PSF EXT CMAP XPLOR AUTOG

         3 !NTITLE
* GENERATED BY CHARMM-GUI (HTTP://WWW.CHARMM-GUI.ORG) V3.7 ON JUL, 07. 2026. JOB
* INPUT GENERATION                                                              
*  DATE:     7/ 7/26      9:50:55      CREATED BY USER: charmm-gui              

     38780 !NATOM
         1 PROA     2        GLY      N        NH3     -0.300000       14.0070           0
         2 PROA     2        GLY      HT1      HC       0.330000       1.00800           0
         3 PROA     2        GLY      HT2      HC       0.330000       1.00800           0
         4 PROA     2        GLY      HT3      HC       0.330000       1.00800           0
         5 PROA     2        GLY      CA       CT2      0.130000       12.0110           0
         6 PROA     2        GLY      HA1      HB2      0.900000E-01   1.00800           0
         7 PROA     2        GLY      HA2      HB2      0.900000E-01   1.00800           0
         8 PROA     2        GLY      C        C        0.510000       12.0110           0
         9 PROA     2        GLY      O        O       -0.510000       15.9994           0
        10 PROA     3        ALA      N        NH1     -0.470000       14.0070           0
        11 PROA     3        ALA      HN       H        0.310000       1.00800           0
        12 PROA     3        ALA      CA       CT1      0.700000E-01   12.0110           0
        13 PROA     3        ALA      HA       HB1      0.900000E-01   1.00800           0
        14 PROA     3        ALA      CB       CT3     -0.270000       12.0110           0
        15 PROA     3        ALA      HB1      HA3      0.900000E-01   1.00800           0
        16 PROA     3        ALA      HB2      HA3      0.900000E-01   1.00800           0
        17 PROA     3        ALA      HB3      HA3      0.900000E-01   1.00800           0
        18 PROA     3        ALA      C        C        0.510000       12.0110           0
        19 PROA     3        ALA      O        O       -0.510000       15.9994           0
        20 PROA     4        LEU      N        NH1     -0.470000       14.0070           0
        21 PROA     4        LEU      HN       H        0.310000       1.00800           0
        22 PROA     4        LEU      CA       CT1      0.700000E-01   12.0110           0
        23 PROA     4        LEU      HA       HB1      0.900000E-01   1.00800           0
        24 PROA     4        LEU      CB       CT2     -0.180000       12.0110           0
        25 PROA     4        LEU      HB1      HA2      0.900000E-01   1.00800           0
        26 PROA     4        LEU      HB2      HA2      0.900000E-01   1.00800           0
        27 PROA     4        LEU      CG       CT1     -0.900000E-01   12.0110           0
        28 PROA     4        LEU      HG       HA1      0.900000E-01   1.00800           0
        29 PROA     4        LEU      CD1      CT3     -0.270000       12.0110           0
        30 PROA     4        LEU      HD11     HA3      0.900000E-01   1.00800           0
        31 PROA     4        LEU      HD12     HA3      0.900000E-01   1.00800           0
        32 PROA     4        LEU      HD13     HA3      0.900000E-01   1.00800           0
        33 PROA     4        LEU      CD2      CT3     -0.270000       12.0110           0
        34 PROA     4        LEU      HD21     HA3      0.900000E-01   1.00800           0
        35 PROA     4        LEU      HD22     HA3      0.900000E-01   1.00800           0
        36 PROA     4        LEU      HD23     HA3      0.900000E-01   1.00800           0
        37 PROA     4        LEU      C        C        0.510000       12.0110           0
        38 PROA     4        LEU      O        O       -0.510000       15.9994           0
        39 PROA     5        ALA      N        NH1     -0.470000       14.0070           0
        40 PROA     5        ALA      HN       H        0.310000       1.00800           0
        41 PROA     5        ALA      CA       CT1      0.700000E-01   12.0110           0
        42 PROA     5        ALA      HA       HB1      0.900000E-01   1.00800           0
        43 PROA     5        ALA      CB       CT3     -0.270000       12.0110           0
        44 PROA     5        ALA      HB1      HA3      0.900000E-01   1.00800           0
        45 PROA     5        ALA      HB2      HA3      0.900000E-01   1.00800           0
        46 PROA     5        ALA      HB3      HA3      0.900000E-01   1.00800           0
        47 PROA     5        ALA      C        C        0.510000       12.0110           0
        48 PROA     5        ALA      O        O       -0.510000       15.9994           0
        49 PROA     6        VAL      N        NH1     -0.470000       14.0070           0
        50 PROA     6        VAL      HN       H        0.310000       1.00800           0
        51 PROA     6        VAL      CA       CT1      0.700000E-01   12.0110           0
        52 PROA     6        VAL      HA       HB1      0.900000E-01   1.00800           0
        53 PROA     6        VAL      CB       CT1     -0.900000E-01   12.0110           0
        54 PROA     6        VAL      HB       HA1      0.900000E-01   1.00800           0
        55 PROA     6        VAL      CG1      CT3     -0.270000       12.0110           0
        56 PROA     6        VAL      HG11     HA3      0.900000E-01   1.00800           0
        57 PROA     6        VAL      HG12     HA3      0.900000E-01   1.00800           0
        58 PROA     6        VAL      HG13     HA3      0.900000E-01   1.00800           0
        59 PROA     6        VAL      CG2      CT3     -0.270000       12.0110           0
        60 PROA     6        VAL      HG21     HA3      0.900000E-01   1.00800           0
        61 PROA     6        VAL      HG22     HA3      0.900000E-01   1.00800           0
        62 PROA     6        VAL      HG23     HA3      0.900000E-01   1.00800           0
        63 PROA     6        VAL      C        C        0.510000       12.0110           0
        64 PROA     6        VAL      O        O       -0.510000       15.9994           0
        65 PROA     7        VAL      N        NH1     -0.470000       14.0070           0
        66 PROA     7        VAL      HN       H        0.310000       1.00800           0
        67 PROA     7        VAL      CA       CT1      0.700000E-01   12.0110           0
        68 PROA     7        VAL      HA       HB1      0.900000E-01   1.00800           0
        69 PROA     7        VAL      CB       CT1     -0.900000E-01   12.0110           0
        70 PROA     7        VAL      HB       HA1      0.900000E-01   1.00800           0
        71 PROA     7        VAL      CG1      CT3     -0.270000       12.0110           0
        72 PROA     7        VAL      HG11     HA3      0.900000E-01   1.00800           0
        73 PROA     7        VAL      HG12     HA3      0.900000E-01   1.00800           0
        74 PROA     7        VAL      HG13     HA3      0.900000E-01   1.00800           0
        75 PROA     7        VAL      CG2      CT3     -0.270000       12.0110           0
        76 PROA     7        VAL      HG21     HA3      0.900000E-01   1.00800           0
        77 PROA     7        VAL      HG22     HA3      0.900000E-01   1.00800           0
        78 PROA     7        VAL      HG23     HA3      0.900000E-01   1.00800           0
        79 PROA     7        VAL      C        C        0.510000       12.0110           0
        80 PROA     7        VAL      O        O       -0.510000       15.9994           0
        81 PROA     8        VAL      N        NH1     -0.470000       14.0070           0
        82 PROA     8        VAL      HN       H        0.310000       1.00800           0
        83 PROA     8        VAL      CA       CT1      0.700000E-01   12.0110           0
        84 PROA     8        VAL      HA       HB1      0.900000E-01   1.00800           0
        85 PROA     8        VAL      CB       CT1     -0.900000E-01   12.0110           0
        86 PROA     8        VAL      HB       HA1      0.900000E-01   1.00800           0
        87 PROA     8        VAL      CG1      CT3     -0.270000       12.0110           0
        88 PROA     8        VAL      HG11     HA3      0.900000E-01   1.00800           0
        89 PROA     8        VAL      HG12     HA3      0.900000E-01   1.00800           0
        90 PROA     8        VAL      HG13     HA3      0.900000E-01   1.00800           0
        91 PROA     8        VAL      CG2      CT3     -0.270000       12.0110           0
        92 PROA     8        VAL      HG21     HA3      0.900000E-01   1.00800           0
        93 PROA     8        VAL      HG22     HA3      0.900000E-01   1.00800           0
        94 PROA     8        VAL      HG23     HA3      0.900000E-01   1.00800           0
        95 PROA     8        VAL      C        C        0.510000       12.0110           0
        96 PROA     8        VAL      O        O       -0.510000       15.9994           0
        97 PROA     9        TRP      N        NH1     -0.470000       14.0070           0
        98 PROA     9        TRP      HN       H        0.310000       1.00800           0
        99 PROA     9        TRP      CA       CT1      0.700000E-01   12.0110           0
       100 PROA     9        TRP      HA       HB1      0.900000E-01   1.00800           0
       101 PROA     9        TRP      CB       CT2     -0.180000       12.0110           0
       102 PROA     9        TRP      HB1      HA2      0.900000E-01   1.00800           0
       103 PROA     9        TRP      HB2      HA2      0.900000E-01   1.00800           0
       104 PROA     9        TRP      CG       CY      -0.300000E-01   12.0110           0
       105 PROA     9        TRP      CD1      CA      -0.150000       12.0110           0
       106 PROA     9        TRP      HD1      HP       0.220000       1.00800           0
       107 PROA     9        TRP      NE1      NY      -0.510000       14.0070           0
       108 PROA     9        TRP      HE1      H        0.370000       1.00800           0
       109 PROA     9        TRP      CE2      CPT      0.240000       12.0110           0
       110 PROA     9        TRP      CD2      CPT      0.110000       12.0110           0
       111 PROA     9        TRP      CE3      CAI     -0.250000       12.0110           0
       112 PROA     9        TRP      HE3      HP       0.170000       1.00800           0
       113 PROA     9        TRP      CZ3      CA      -0.200000       12.0110           0
       114 PROA     9        TRP      HZ3      HP       0.140000       1.00800           0
       115 PROA     9        TRP      CZ2      CAI     -0.270000       12.0110           0
       116 PROA     9        TRP      HZ2      HP       0.160000       1.00800           0
       117 PROA     9        TRP      CH2      CA      -0.140000       12.0110           0
       118 PROA     9        TRP      HH2      HP       0.140000       1.00800           0
       119 PROA     9        TRP      C        C        0.510000       12.0110           0
       120 PROA     9        TRP      O        O       -0.510000       15.9994           0
       121 PROA     10       LEU      N        NH1     -0.470000       14.0070           0
       122 PROA     10       LEU      HN       H        0.310000       1.00800           0
       123 PROA     10       LEU      CA       CT1      0.700000E-01   12.0110           0
       124 PROA     10       LEU      HA       HB1      0.900000E-01   1.00800           0
       125 PROA     10       LEU      CB       CT2     -0.180000       12.0110           0
       126 PROA     10       LEU      HB1      HA2      0.900000E-01   1.00800           0
       127 PROA     10       LEU      HB2      HA2      0.900000E-01   1.00800           0
       128 PROA     10       LEU      CG       CT1     -0.900000E-01   12.0110           0
       129 PROA     10       LEU      HG       HA1      0.900000E-01   1.00800           0
       130 PROA     10       LEU      CD1      CT3     -0.270000       12.0110           0
       131 PROA     10       LEU      HD11     HA3      0.900000E-01   1.00800           0
       132 PROA     10       LEU      HD12     HA3      0.900000E-01   1.00800           0
       133 PROA     10       LEU      HD13     HA3      0.900000E-01   1.00800           0
       134 PROA     10       LEU      CD2      CT3     -0.270000       12.0110           0
       135 PROA     10       LEU      HD21     HA3      0.900000E-01   1.00800           0
       136 PROA     10       LEU      HD22     HA3      0.900000E-01   1.00800           0
       137 PROA     10       LEU      HD23     HA3      0.900000E-01   1.00800           0
       138 PROA     10       LEU      C        C        0.510000       12.0110           0
       139 PROA     10       LEU      O        O       -0.510000       15.9994           0
       140 PROA     11       TRP      N        NH1     -0.470000       14.0070           0
       141 PROA     11       TRP      HN       H        0.310000       1.00800           0
       142 PROA     11       TRP      CA       CT1      0.700000E-01   12.0110           0
       143 PROA     11       TRP      HA       HB1      0.900000E-01   1.00800           0
       144 PROA     11       TRP      CB       CT2     -0.180000       12.0110           0
       145 PROA     11       TRP      HB1      HA2      0.900000E-01   1.00800           0
       146 PROA     11       TRP      HB2      HA2      0.900000E-01   1.00800           0
       147 PROA     11       TRP      CG       CY      -0.300000E-01   12.0110           0
       148 PROA     11       TRP      CD1      CA      -0.150000       12.0110           0
       149 PROA     11       TRP      HD1      HP       0.220000       1.00800           0
       150 PROA     11       TRP      NE1      NY      -0.510000       14.0070           0
       151 PROA     11       TRP      HE1      H        0.370000       1.00800           0
       152 PROA     11       TRP      CE2      CPT      0.240000       12.0110           0
       153 PROA     11       TRP      CD2      CPT      0.110000       12.0110           0
       154 PROA     11       TRP      CE3      CAI     -0.250000       12.0110           0
       155 PROA     11       TRP      HE3      HP       0.170000       1.00800           0
       156 PROA     11       TRP      CZ3      CA      -0.200000       12.0110           0
       157 PROA     11       TRP      HZ3      HP       0.140000       1.00800           0
       158 PROA     11       TRP      CZ2      CAI     -0.270000       12.0110           0
       159 PROA     11       TRP      HZ2      HP       0.160000       1.00800           0
       160 PROA     11       TRP      CH2      CA      -0.140000       12.0110           0
       161 PROA     11       TRP      HH2      HP       0.140000       1.00800           0
       162 PROA     11       TRP      C        C        0.510000       12.0110           0
       163 PROA     11       TRP      O        O       -0.510000       15.9994           0
       164 PROA     12       LEU      N        NH1     -0.470000       14.0070           0
       165 PROA     12       LEU      HN       H        0.310000       1.00800           0
       166 PROA     12       LEU      CA       CT1      0.700000E-01   12.0110           0
       167 PROA     12       LEU      HA       HB1      0.900000E-01   1.00800           0
       168 PROA     12       LEU      CB       CT2     -0.180000       12.0110           0
       169 PROA     12       LEU      HB1      HA2      0.900000E-01   1.00800           0
       170 PROA     12       LEU      HB2      HA2      0.900000E-01   1.00800           0
       171 PROA     12       LEU      CG       CT1     -0.900000E-01   12.0110           0
       172 PROA     12       LEU      HG       HA1      0.900000E-01   1.00800           0
       173 PROA     12       LEU      CD1      CT3     -0.270000       12.0110           0
       174 PROA     12       LEU      HD11     HA3      0.900000E-01   1.00800           0
       175 PROA     12       LEU      HD12     HA3      0.900000E-01   1.00800           0
       176 PROA     12       LEU      HD13     HA3      0.900000E-01   1.00800           0
       177 PROA     12       LEU      CD2      CT3     -0.270000       12.0110           0
       178 PROA     12       LEU      HD21     HA3      0.900000E-01   1.00800           0
       179 PROA     12       LEU      HD22     HA3      0.900000E-01   1.00800           0
       180 PROA     12       LEU      HD23     HA3      0.900000E-01   1.00800           0
       181 PROA     12       LEU      C        C        0.510000       12.0110           0
       182 PROA     12       LEU      O        O       -0.510000       15.9994           0
       183 PROA     13       TRP      N        NH1     -0.470000       14.0070           0
       184 PROA     13       TRP      HN       H        0.310000       1.00800           0
       185 PROA     13       TRP      CA       CT1      0.700000E-01   12.0110           0
       186 PROA     13       TRP      HA       HB1      0.900000E-01   1.00800           0
       187 PROA     13       TRP      CB       CT2     -0.180000       12.0110           0
       188 PROA     13       TRP      HB1      HA2      0.900000E-01   1.00800           0
       189 PROA     13       TRP      HB2      HA2      0.900000E-01   1.00800           0
       190 PROA     13       TRP      CG       CY      -0.300000E-01   12.0110           0
       191 PROA     13       TRP      CD1      CA      -0.150000       12.0110           0
       192 PROA     13       TRP      HD1      HP       0.220000       1.00800           0
       193 PROA     13       TRP      NE1      NY      -0.510000       14.0070           0
       194 PROA     13       TRP      HE1      H        0.370000       1.00800           0
       195 PROA     13       TRP      CE2      CPT      0.240000       12.0110           0
       196 PROA     13       TRP      CD2      CPT      0.110000       12.0110           0
       197 PROA     13       TRP      CE3      CAI     -0.250000       12.0110           0
       198 PROA     13       TRP      HE3      HP       0.170000       1.00800           0
       199 PROA     13       TRP      CZ3      CA      -0.200000       12.0110           0
       200 PROA     13       TRP      HZ3      HP       0.140000       1.00800           0
       201 PROA     13       TRP      CZ2      CAI     -0.270000       12.0110           0
       202 PROA     13       TRP      HZ2      HP       0.160000       1.00800           0
       203 PROA     13       TRP      CH2      CA      -0.140000       12.0110           0
       204 PROA     13       TRP      HH2      HP       0.140000       1.00800           0
       205 PROA     13       TRP      C        C        0.510000       12.0110           0
       206 PROA     13       TRP      O        O       -0.510000       15.9994           0
       207 PROA     14       LEU      N        NH1     -0.470000       14.0070           0
       208 PROA     14       LEU      HN       H        0.310000       1.00800           0
       209 PROA     14       LEU      CA       CT1      0.700000E-01   12.0110           0
       210 PROA     14       LEU      HA       HB1      0.900000E-01   1.00800           0
       211 PROA     14       LEU      CB       CT2     -0.180000       12.0110           0
       212 PROA     14       LEU      HB1      HA2      0.900000E-01   1.00800           0
       213 PROA     14       LEU      HB2      HA2      0.900000E-01   1.00800           0
       214 PROA     14       LEU      CG       CT1     -0.900000E-01   12.0110           0
       215 PROA     14       LEU      HG       HA1      0.900000E-01   1.00800           0
       216 PROA     14       LEU      CD1      CT3     -0.270000       12.0110           0
       217 PROA     14       LEU      HD11     HA3      0.900000E-01   1.00800           0
       218 PROA     14       LEU      HD12     HA3      0.900000E-01   1.00800           0
       219 PROA     14       LEU      HD13     HA3      0.900000E-01   1.00800           0
       220 PROA     14       LEU      CD2      CT3     -0.270000       12.0110           0
       221 PROA     14       LEU      HD21     HA3      0.900000E-01   1.00800           0
       222 PROA     14       LEU      HD22     HA3      0.900000E-01   1.00800           0
       223 PROA     14       LEU      HD23     HA3      0.900000E-01   1.00800           0
       224 PROA     14       LEU      C        C        0.510000       12.0110           0
       225 PROA     14       LEU      O        O       -0.510000       15.9994           0
       226 PROA     15       TRP      N        NH1     -0.470000       14.0070           0
       227 PROA     15       TRP      HN       H        0.310000       1.00800           0
       228 PROA     15       TRP      CA       CT1      0.700000E-01   12.0110           0
       229 PROA     15       TRP      HA       HB1      0.900000E-01   1.00800           0
       230 PROA     15       TRP      CB       CT2     -0.180000       12.0110           0
       231 PROA     15       TRP      HB1      HA2      0.900000E-01   1.00800           0
       232 PROA     15       TRP      HB2      HA2      0.900000E-01   1.00800           0
       233 PROA     15       TRP      CG       CY      -0.300000E-01   12.0110           0
       234 PROA     15       TRP      CD1      CA      -0.150000       12.0110           0
       235 PROA     15       TRP      HD1      HP       0.220000       1.00800           0
       236 PROA     15       TRP      NE1      NY      -0.510000       14.0070           0
       237 PROA     15       TRP      HE1      H        0.370000       1.00800           0
       238 PROA     15       TRP      CE2      CPT      0.240000       12.0110           0
       239 PROA     15       TRP      CD2      CPT      0.110000       12.0110           0
       240 PROA     15       TRP      CE3      CAI     -0.250000       12.0110           0
       241 PROA     15       TRP      HE3      HP       0.170000       1.00800           0
       242 PROA     15       TRP      CZ3      CA      -0.200000       12.0110           0
       243 PROA     15       TRP      HZ3      HP       0.140000       1.00800           0
       244 PROA     15       TRP      CZ2      CAI     -0.270000       12.0110           0
       245 PROA     15       TRP      HZ2      HP       0.160000       1.00800           0
       246 PROA     15       TRP      CH2      CA      -0.140000       12.0110           0
       247 PROA     15       TRP      HH2      HP       0.140000       1.00800           0
       248 PROA     15       TRP      C        CC       0.340000       12.0110           0
       249 PROA     15       TRP      OT1      OC      -0.670000       15.9994           0
       250 PROA     15       TRP      OT2      OC      -0.670000       15.9994           0
       251 PROB     2        GLY      N        NH3     -0.300000       14.0070           0
       252 PROB     2        GLY      HT1      HC       0.330000       1.00800           0
       253 PROB     2        GLY      HT2      HC       0.330000       1.00800           0
       254 PROB     2        GLY      HT3      HC       0.330000       1.00800           0
       255 PROB     2        GLY      CA       CT2      0.130000       12.0110           0
       256 PROB     2        GLY      HA1      HB2      0.900000E-01   1.00800           0
       257 PROB     2        GLY      HA2      HB2      0.900000E-01   1.00800           0
       258 PROB     2        GLY      C        C        0.510000       12.0110           0
       259 PROB     2        GLY      O        O       -0.510000       15.9994           0
       260 PROB     3        ALA      N        NH1     -0.470000       14.0070           0
       261 PROB     3        ALA      HN       H        0.310000       1.00800           0
       262 PROB     3        ALA      CA       CT1      0.700000E-01   12.0110           0
       263 PROB     3        ALA      HA       HB1      0.900000E-01   1.00800           0
       264 PROB     3        ALA      CB       CT3     -0.270000       12.0110           0
       265 PROB     3        ALA      HB1      HA3      0.900000E-01   1.00800           0
       266 PROB     3        ALA      HB2      HA3      0.900000E-01   1.00800           0
       267 PROB     3        ALA      HB3      HA3      0.900000E-01   1.00800           0
       268 PROB     3        ALA      C        C        0.510000       12.0110           0
       269 PROB     3        ALA      O        O       -0.510000       15.9994           0
       270 PROB     4        LEU      N        NH1     -0.470000       14.0070           0
       271 PROB     4        LEU      HN       H        0.310000       1.00800           0
       272 PROB     4        LEU      CA       CT1      0.700000E-01   12.0110           0
       273 PROB     4        LEU      HA       HB1      0.900000E-01   1.00800           0
       274 PROB     4        LEU      CB       CT2     -0.180000       12.0110           0
       275 PROB     4        LEU      HB1      HA2      0.900000E-01   1.00800           0
       276 PROB     4        LEU      HB2      HA2      0.900000E-01   1.00800           0
       277 PROB     4        LEU      CG       CT1     -0.900000E-01   12.0110           0
       278 PROB     4        LEU      HG       HA1      0.900000E-01   1.00800           0
       279 PROB     4        LEU      CD1      CT3     -0.270000       12.0110           0
       280 PROB     4        LEU      HD11     HA3      0.900000E-01   1.00800           0
       281 PROB     4        LEU      HD12     HA3      0.900000E-01   1.00800           0
       282 PROB     4        LEU      HD13     HA3      0.900000E-01   1.00800           0
       283 PROB     4        LEU      CD2      CT3     -0.270000       12.0110           0
       284 PROB     4        LEU      HD21     HA3      0.900000E-01   1.00800           0
       285 PROB     4        LEU      HD22     HA3      0.900000E-01   1.00800           0
       286 PROB     4        LEU      HD23     HA3      0.900000E-01   1.00800           0
       287 PROB     4        LEU      C        C        0.510000       12.0110           0
       288 PROB     4        LEU      O        O       -0.510000       15.9994           0
       289 PROB     5        ALA      N        NH1     -0.470000       14.0070           0
       290 PROB     5        ALA      HN       H        0.310000       1.00800           0
       291 PROB     5        ALA      CA       CT1      0.700000E-01   12.0110           0
       292 PROB     5        ALA      HA       HB1      0.900000E-01   1.00800           0
       293 PROB     5        ALA      CB       CT3     -0.270000       12.0110           0
       294 PROB     5        ALA      HB1      HA3      0.900000E-01   1.00800           0
       295 PROB     5        ALA      HB2      HA3      0.900000E-01   1.00800           0
       296 PROB     5        ALA      HB3      HA3      0.900000E-01   1.00800           0
       297 PROB     5        ALA      C        C        0.510000       12.0110           0
       298 PROB     5        ALA      O        O       -0.510000       15.9994           0
       299 PROB     6        VAL      N        NH1     -0.470000       14.0070           0
       300 PROB     6        VAL      HN       H        0.310000       1.00800           0
       301 PROB     6        VAL      CA       CT1      0.700000E-01   12.0110           0
       302 PROB     6        VAL      HA       HB1      0.900000E-01   1.00800           0
       303 PROB     6        VAL      CB       CT1     -0.900000E-01   12.0110           0
       304 PROB     6        VAL      HB       HA1      0.900000E-01   1.00800           0
       305 PROB     6        VAL      CG1      CT3     -0.270000       12.0110           0
       306 PROB     6        VAL      HG11     HA3      0.900000E-01   1.00800           0
       307 PROB     6        VAL      HG12     HA3      0.900000E-01   1.00800           0
       308 PROB     6        VAL      HG13     HA3      0.900000E-01   1.00800           0
       309 PROB     6        VAL      CG2      CT3     -0.270000       12.0110           0
       310 PROB     6        VAL      HG21     HA3      0.900000E-01   1.00800           0
       311 PROB     6        VAL      HG22     HA3      0.900000E-01   1.00800           0
       312 PROB     6        VAL      HG23     HA3      0.900000E-01   1.00800           0
       313 PROB     6        VAL      C        C        0.510000       12.0110           0
       314 PROB     6        VAL      O        O       -0.510000       15.9994           0
       315 PROB     7        VAL      N        NH1     -0.470000       14.0070           0
       316 PROB     7        VAL      HN       H        0.310000       1.00800           0
       317 PROB     7        VAL      CA       CT1      0.700000E-01   12.0110           0
       318 PROB     7        VAL      HA       HB1      0.900000E-01   1.00800           0
       319 PROB     7        VAL      CB       CT1     -0.900000E-01   12.0110           0
       320 PROB     7        VAL      HB       HA1      0.900000E-01   1.00800           0
       321 PROB     7        VAL      CG1      CT3     -0.270000       12.0110           0
       322 PROB     7        VAL      HG11     HA3      0.900000E-01   1.00800           0
       323 PROB     7        VAL      HG12     HA3      0.900000E-01   1.00800           0
       324 PROB     7        VAL      HG13     HA3      0.900000E-01   1.00800           0
       325 PROB     7        VAL      CG2      CT3     -0.270000       12.0110           0
       326 PROB     7        VAL      HG21     HA3      0.900000E-01   1.00800           0
       327 PROB     7        VAL      HG22     HA3      0.900000E-01   1.00800           0
       328 PROB     7        VAL      HG23     HA3      0.900000E-01   1.00800           0
       329 PROB     7        VAL      C        C        0.510000       12.0110           0
       330 PROB     7        VAL      O        O       -0.510000       15.9994           0
       331 PROB     8        VAL      N        NH1     -0.470000       14.0070           0
       332 PROB     8        VAL      HN       H        0.310000       1.00800           0
       333 PROB     8        VAL      CA       CT1      0.700000E-01   12.0110           0
       334 PROB     8        VAL      HA       HB1      0.900000E-01   1.00800           0
       335 PROB     8        VAL      CB       CT1     -0.900000E-01   12.0110           0
       336 PROB     8        VAL      HB       HA1      0.900000E-01   1.00800           0
       337 PROB     8        VAL      CG1      CT3     -0.270000       12.0110           0
       338 PROB     8        VAL      HG11     HA3      0.900000E-01   1.00800           0
       339 PROB     8        VAL      HG12     HA3      0.900000E-01   1.00800           0
       340 PROB     8        VAL      HG13     HA3      0.900000E-01   1.00800           0
       341 PROB     8        VAL      CG2      CT3     -0.270000       12.0110           0
       342 PROB     8        VAL      HG21     HA3      0.900000E-01   1.00800           0
       343 PROB     8        VAL      HG22     HA3      0.900000E-01   1.00800           0
       344 PROB     8        VAL      HG23     HA3      0.900000E-01   1.00800           0
       345 PROB     8        VAL      C        C        0.510000       12.0110           0
       346 PROB     8        VAL      O        O       -0.510000       15.9994           0
       347 PROB     9        TRP      N        NH1     -0.470000       14.0070           0
       348 PROB     9        TRP      HN       H        0.310000       1.00800           0
       349 PROB     9        TRP      CA       CT1      0.700000E-01   12.0110           0
       350 PROB     9        TRP      HA       HB1      0.900000E-01   1.00800           0
       351 PROB     9        TRP      CB       CT2     -0.180000       12.0110           0
       352 PROB     9        TRP      HB1      HA2      0.900000E-01   1.00800           0
       353 PROB     9        TRP      HB2      HA2      0.900000E-01   1.00800           0
       354 PROB     9        TRP      CG       CY      -0.300000E-01   12.0110           0
       355 PROB     9        TRP      CD1      CA      -0.150000       12.0110           0
       356 PROB     9        TRP      HD1      HP       0.220000       1.00800           0
       357 PROB     9        TRP      NE1      NY      -0.510000       14.0070           0
       358 PROB     9        TRP      HE1      H        0.370000       1.00800           0
       359 PROB     9        TRP      CE2      CPT      0.240000       12.0110           0
       360 PROB     9        TRP      CD2      CPT      0.110000       12.0110           0
       361 PROB     9        TRP      CE3      CAI     -0.250000       12.0110           0
       362 PROB     9        TRP      HE3      HP       0.170000       1.00800           0
       363 PROB     9        TRP      CZ3      CA      -0.200000       12.0110           0
       364 PROB     9        TRP      HZ3      HP       0.140000       1.00800           0
       365 PROB     9        TRP      CZ2      CAI     -0.270000       12.0110           0
       366 PROB     9        TRP      HZ2      HP       0.160000       1.00800           0
       367 PROB     9        TRP      CH2      CA      -0.140000       12.0110           0
       368 PROB     9        TRP      HH2      HP       0.140000       1.00800           0
       369 PROB     9        TRP      C        C        0.510000       12.0110           0
       370 PROB     9        TRP      O        O       -0.510000       15.9994           0
       371 PROB     10       LEU      N        NH1     -0.470000       14.0070           0
       372 PROB     10       LEU      HN       H        0.310000       1.00800           0
       373 PROB     10       LEU      CA       CT1      0.700000E-01   12.0110           0
       374 PROB     10       LEU      HA       HB1      0.900000E-01   1.00800           0
       375 PROB     10       LEU      CB       CT2     -0.180000       12.0110           0
       376 PROB     10       LEU      HB1      HA2      0.900000E-01   1.00800           0
       377 PROB     10       LEU      HB2      HA2      0.900000E-01   1.00800           0
       378 PROB     10       LEU      CG       CT1     -0.900000E-01   12.0110           0
       379 PROB     10       LEU      HG       HA1      0.900000E-01   1.00800           0
       380 PROB     10       LEU      CD1      CT3     -0.270000       12.0110           0
       381 PROB     10       LEU      HD11     HA3      0.900000E-01   1.00800           0
       382 PROB     10       LEU      HD12     HA3      0.900000E-01   1.00800           0
       383 PROB     10       LEU      HD13     HA3      0.900000E-01   1.00800           0
       384 PROB     10       LEU      CD2      CT3     -0.270000       12.0110           0
       385 PROB     10       LEU      HD21     HA3      0.900000E-01   1.00800           0
       386 PROB     10       LEU      HD22     HA3      0.900000E-01   1.00800           0
       387 PROB     10       LEU      HD23     HA3      0.900000E-01   1.00800           0
       388 PROB     10       LEU      C        C        0.510000       12.0110           0
       389 PROB     10       LEU      O        O       -0.510000       15.9994           0
       390 PROB     11       TRP      N        NH1     -0.470000       14.0070           0
       391 PROB     11       TRP      HN       H        0.310000       1.00800           0
       392 PROB     11       TRP      CA       CT1      0.700000E-01   12.0110           0
       393 PROB     11       TRP      HA       HB1      0.900000E-01   1.00800           0
       394 PROB     11       TRP      CB       CT2     -0.180000       12.0110           0
       395 PROB     11       TRP      HB1      HA2      0.900000E-01   1.00800           0
       396 PROB     11       TRP      HB2      HA2      0.900000E-01   1.00800           0
       397 PROB     11       TRP      CG       CY      -0.300000E-01   12.0110           0
       398 PROB     11       TRP      CD1      CA      -0.150000       12.0110           0
       399 PROB     11       TRP      HD1      HP       0.220000       1.00800           0
       400 PROB     11       TRP      NE1      NY      -0.510000       14.0070           0
       401 PROB     11       TRP      HE1      H        0.370000       1.00800           0
       402 PROB     11       TRP      CE2      CPT      0.240000       12.0110           0
       403 PROB     11       TRP      CD2      CPT      0.110000       12.0110           0
       404 PROB     11       TRP      CE3      CAI     -0.250000       12.0110           0
       405 PROB     11       TRP      HE3      HP       0.170000       1.00800           0
       406 PROB     11       TRP      CZ3      CA      -0.200000       12.0110           0
       407 PROB     11       TRP      HZ3      HP       0.140000       1.00800           0
       408 PROB     11       TRP      CZ2      CAI     -0.270000       12.0110           0
       409 PROB     11       TRP      HZ2      HP       0.160000       1.00800           0
       410 PROB     11       TRP      CH2      CA      -0.140000       12.0110           0
       411 PROB     11       TRP      HH2      HP       0.140000       1.00800           0
       412 PROB     11       TRP      C        C        0.510000       12.0110           0
       413 PROB     11       TRP      O        O       -0.510000       15.9994           0
       414 PROB     12       LEU      N        NH1     -0.470000       14.0070           0
       415 PROB     12       LEU      HN       H        0.310000       1.00800           0
       416 PROB     12       LEU      CA       CT1      0.700000E-01   12.0110           0
       417 PROB     12       LEU      HA       HB1      0.900000E-01   1.00800           0
       418 PROB     12       LEU      CB       CT2     -0.180000       12.0110           0
       419 PROB     12       LEU      HB1      HA2      0.900000E-01   1.00800           0
       420 PROB     12       LEU      HB2      HA2      0.900000E-01   1.00800           0
       421 PROB     12       LEU      CG       CT1     -0.900000E-01   12.0110           0
       422 PROB     12       LEU      HG       HA1      0.900000E-01   1.00800           0
       423 PROB     12       LEU      CD1      CT3     -0.270000       12.0110           0
       424 PROB     12       LEU      HD11     HA3      0.900000E-01   1.00800           0
       425 PROB     12       LEU      HD12     HA3      0.900000E-01   1.00800           0
       426 PROB     12       LEU      HD13     HA3      0.900000E-01   1.00800           0
       427 PROB     12       LEU      CD2      CT3     -0.270000       12.0110           0
       428 PROB     12       LEU      HD21     HA3      0.900000E-01   1.00800           0
       429 PROB     12       LEU      HD22     HA3      0.900000E-01   1.00800           0
       430 PROB     12       LEU      HD23     HA3      0.900000E-01   1.00800           0
       431 PROB     12       LEU      C        C        0.510000       12.0110           0
       432 PROB     12       LEU      O        O       -0.510000       15.9994           0
       433 PROB     13       TRP      N        NH1     -0.470000       14.0070           0
       434 PROB     13       TRP      HN       H        0.310000       1.00800           0
       435 PROB     13       TRP      CA       CT1      0.700000E-01   12.0110           0
       436 PROB     13       TRP      HA       HB1      0.900000E-01   1.00800           0
       437 PROB     13       TRP      CB       CT2     -0.180000       12.0110           0
       438 PROB     13       TRP      HB1      HA2      0.900000E-01   1.00800           0
       439 PROB     13       TRP      HB2      HA2      0.900000E-01   1.00800           0
       440 PROB     13       TRP      CG       CY      -0.300000E-01   12.0110           0
       441 PROB     13       TRP      CD1      CA      -0.150000       12.0110           0
       442 PROB     13       TRP      HD1      HP       0.220000       1.00800           0
       443 PROB     13       TRP      NE1      NY      -0.510000       14.0070           0
       444 PROB     13       TRP      HE1      H        0.370000       1.00800           0
       445 PROB     13       TRP      CE2      CPT      0.240000       12.0110           0
       446 PROB     13       TRP      CD2      CPT      0.110000       12.0110           0
       447 PROB     13       TRP      CE3      CAI     -0.250000       12.0110           0
       448 PROB     13       TRP      HE3      HP       0.170000       1.00800           0
       449 PROB     13       TRP      CZ3      CA      -0.200000       12.0110           0
       450 PROB     13       TRP      HZ3      HP       0.140000       1.00800           0
       451 PROB     13       TRP      CZ2      CAI     -0.270000       12.0110           0
       452 PROB     13       TRP      HZ2      HP       0.160000       1.00800           0
       453 PROB     13       TRP      CH2      CA      -0.140000       12.0110           0
       454 PROB     13       TRP      HH2      HP       0.140000       1.00800           0
       455 PROB     13       TRP      C        C        0.510000       12.0110           0
       456 PROB     13       TRP      O        O       -0.510000       15.9994           0
       457 PROB     14       LEU      N        NH1     -0.470000       14.0070           0
       458 PROB     14       LEU      HN       H        0.310000       1.00800           0
       459 PROB     14       LEU      CA       CT1      0.700000E-01   12.0110           0
       460 PROB     14       LEU      HA       HB1      0.900000E-01   1.00800           0
       461 PROB     14       LEU      CB       CT2     -0.180000       12.0110           0
       462 PROB     14       LEU      HB1      HA2      0.900000E-01   1.00800           0
       463 PROB     14       LEU      HB2      HA2      0.900000E-01   1.00800           0
       464 PROB     14       LEU      CG       CT1     -0.900000E-01   12.0110           0
       465 PROB     14       LEU      HG       HA1      0.900000E-01   1.00800           0
       466 PROB     14       LEU      CD1      CT3     -0.270000       12.0110           0
       467 PROB     14       LEU      HD11     HA3      0.900000E-01   1.00800           0
       468 PROB     14       LEU      HD12     HA3      0.900000E-01   1.00800           0
       469 PROB     14       LEU      HD13     HA3      0.900000E-01   1.00800           0
       470 PROB     14       LEU      CD2      CT3     -0.270000       12.0110           0
       471 PROB     14       LEU      HD21     HA3      0.900000E-01   1.00800           0
       472 PROB     14       LEU      HD22     HA3      0.900000E-01   1.00800           0
       473 PROB     14       LEU      HD23     HA3      0.900000E-01   1.00800           0
       474 PROB     14       LEU      C        C        0.510000       12.0110           0
       475 PROB     14       LEU      O        O       -0.510000       15.9994           0
       476 PROB     15       TRP      N        NH1     -0.470000       14.0070           0
       477 PROB     15       TRP      HN       H        0.310000       1.00800           0
       478 PROB     15       TRP      CA       CT1      0.700000E-01   12.0110           0
       479 PROB     15       TRP      HA       HB1      0.900000E-01   1.00800           0
       480 PROB     15       TRP      CB       CT2     -0.180000       12.0110           0
       481 PROB     15       TRP      HB1      HA2      0.900000E-01   1.00800           0
       482 PROB     15       TRP      HB2      HA2      0.900000E-01   1.00800           0
       483 PROB     15       TRP      CG       CY      -0.300000E-01   12.0110           0
       484 PROB     15       TRP      CD1      CA      -0.150000       12.0110           0
       485 PROB     15       TRP      HD1      HP       0.220000       1.00800           0
       486 PROB     15       TRP      NE1      NY      -0.510000       14.0070           0
       487 PROB     15       TRP      HE1      H        0.370000       1.00800           0
       488 PROB     15       TRP      CE2      CPT      0.240000       12.0110           0
       489 PROB     15       TRP      CD2      CPT      0.110000       12.0110           0
       490 PROB     15       TRP      CE3      CAI     -0.250000       12.0110           0
       491 PROB     15       TRP      HE3      HP       0.170000       1.00800           0
       492 PROB     15       TRP      CZ3      CA      -0.200000       12.0110           0
       493 PROB     15       TRP      HZ3      HP       0.140000       1.00800           0
       494 PROB     15       TRP      CZ2      CAI     -0.270000       12.0110           0
       495 PROB     15       TRP      HZ2      HP       0.160000       1.00800           0
       496 PROB     15       TRP      CH2      CA      -0.140000       12.0110           0
       497 PROB     15       TRP      HH2      HP       0.140000       1.00800           0
       498 PROB     15       TRP      C        CC       0.340000       12.0110           0
       499 PROB     15       TRP      OT1      OC      -0.670000       15.9994           0
       500 PROB     15       TRP      OT2      OC      -0.670000       15.9994           0
       501 MEMB     1        DOPC     N        NTL     -0.600000       14.0070           0
       502 MEMB     1        DOPC     C12      CTL2    -0.100000       12.0110           0
       503 MEMB     1        DOPC     H12A     HL       0.250000       1.00800           0
       504 MEMB     1        DOPC     H12B     HL       0.250000       1.00800           0
       505 MEMB     1        DOPC     C13      CTL5    -0.350000       12.0110           0
       506 MEMB     1        DOPC     H13A     HL       0.250000       1.00800           0
       507 MEMB     1        DOPC     H13B     HL       0.250000       1.00800           0
       508 MEMB     1        DOPC     H13C     HL       0.250000       1.00800           0
       509 MEMB     1        DOPC     C14      CTL5    -0.350000       12.0110           0
       510 MEMB     1        DOPC     H14A     HL       0.250000       1.00800           0
       511 MEMB     1        DOPC     H14B     HL       0.250000       1.00800           0
       512 MEMB     1        DOPC     H14C     HL       0.250000       1.00800           0
       513 MEMB     1        DOPC     C15      CTL5    -0.350000       12.0110           0
       514 MEMB     1        DOPC     H15A     HL       0.250000       1.00800           0
       515 MEMB     1        DOPC     H15B     HL       0.250000       1.00800           0
       516 MEMB     1        DOPC     H15C     HL       0.250000       1.00800           0
       517 MEMB     1        DOPC     C11      CTL2    -0.800000E-01   12.0110           0
       518 MEMB     1        DOPC     H11A     HAL2     0.900000E-01   1.00800           0
       519 MEMB     1        DOPC     H11B     HAL2     0.900000E-01   1.00800           0
       520 MEMB     1        DOPC     P        PL        1.50000       30.9740           0
       521 MEMB     1        DOPC     O13      O2L     -0.780000       15.9994           0
       522 MEMB     1        DOPC     O14      O2L     -0.780000       15.9994           0
       523 MEMB     1        DOPC     O12      OSLP    -0.570000       15.9994           0
       524 MEMB     1        DOPC     O11      OSLP    -0.570000       15.9994           0
       525 MEMB     1        DOPC     C1       CTL2    -0.800000E-01   12.0110           0
       526 MEMB     1        DOPC     HA       HAL2     0.900000E-01   1.00800           0
       527 MEMB     1        DOPC     HB       HAL2     0.900000E-01   1.00800           0
       528 MEMB     1        DOPC     C2       CTL1     0.170000       12.0110           0
       529 MEMB     1        DOPC     HS       HAL1     0.900000E-01   1.00800           0
       530 MEMB     1        DOPC     O21      OSL     -0.490000       15.9994           0
       531 MEMB     1        DOPC     C21      CL       0.900000       12.0110           0
       532 MEMB     1        DOPC     O22      OBL     -0.630000       15.9994           0
       533 MEMB     1        DOPC     C22      CTL2    -0.220000       12.0110           0
       534 MEMB     1        DOPC     H2R      HAL2     0.900000E-01   1.00800           0
       535 MEMB     1        DOPC     H2S      HAL2     0.900000E-01   1.00800           0
       536 MEMB     1        DOPC     C3       CTL2     0.800000E-01   12.0110           0
       537 MEMB     1        DOPC     HX       HAL2     0.900000E-01   1.00800           0
       538 MEMB     1        DOPC     HY       HAL2     0.900000E-01   1.00800           0
       539 MEMB     1        DOPC     O31      OSL     -0.490000       15.9994           0
       540 MEMB     1        DOPC     C31      CL       0.900000       12.0110           0
       541 MEMB     1        DOPC     O32      OBL     -0.630000       15.9994           0
       542 MEMB     1        DOPC     C32      CTL2    -0.220000       12.0110           0
       543 MEMB     1        DOPC     H2X      HAL2     0.900000E-01   1.00800           0
       544 MEMB     1        DOPC     H2Y      HAL2     0.900000E-01   1.00800           0
       545 MEMB     1        DOPC     C23      CTL2    -0.180000       12.0110           0
       546 MEMB     1        DOPC     H3R      HAL2     0.900000E-01   1.00800           0
       547 MEMB     1        DOPC     H3S      HAL2     0.900000E-01   1.00800           0
       548 MEMB     1        DOPC     C24      CTL2    -0.180000       12.0110           0
       549 MEMB     1        DOPC     H4R      HAL2     0.900000E-01   1.00800           0
       550 MEMB     1        DOPC     H4S      HAL2     0.900000E-01   1.00800           0
       551 MEMB     1        DOPC     C25      CTL2    -0.180000       12.0110           0
       552 MEMB     1        DOPC     H5R      HAL2     0.900000E-01   1.00800           0
       553 MEMB     1        DOPC     H5S      HAL2     0.900000E-01   1.00800           0
       554 MEMB     1        DOPC     C26      CTL2    -0.180000       12.0110           0
       555 MEMB     1        DOPC     H6R      HAL2     0.900000E-01   1.00800           0
       556 MEMB     1        DOPC     H6S      HAL2     0.900000E-01   1.00800           0
       557 MEMB     1        DOPC     C27      CTL2    -0.180000       12.0110           0
       558 MEMB     1        DOPC     H7R      HAL2     0.900000E-01   1.00800           0
       559 MEMB     1        DOPC     H7S      HAL2     0.900000E-01   1.00800           0
       560 MEMB     1        DOPC     C28      CTL2    -0.180000       12.0110           0
       561 MEMB     1        DOPC     H8R      HAL2     0.900000E-01   1.00800           0
       562 MEMB     1        DOPC     H8S      HAL2     0.900000E-01   1.00800           0
       563 MEMB     1        DOPC     C29      CEL1    -0.150000       12.0110           0
       564 MEMB     1        DOPC     H9R      HEL1     0.150000       1.00800           0
       565 MEMB     1        DOPC     C210     CEL1    -0.150000       12.0110           0
       566 MEMB     1        DOPC     H10R     HEL1     0.150000       1.00800           0
       567 MEMB     1        DOPC     C211     CTL2    -0.180000       12.0110           0
       568 MEMB     1        DOPC     H11R     HAL2     0.900000E-01   1.00800           0
       569 MEMB     1        DOPC     H11S     HAL2     0.900000E-01   1.00800           0
       570 MEMB     1        DOPC     C212     CTL2    -0.180000       12.0110           0
       571 MEMB     1        DOPC     H12R     HAL2     0.900000E-01   1.00800           0
       572 MEMB     1        DOPC     H12S     HAL2     0.900000E-01   1.00800           0
       573 MEMB     1        DOPC     C213     CTL2    -0.180000       12.0110           0
       574 MEMB     1        DOPC     H13R     HAL2     0.900000E-01   1.00800           0
       575 MEMB     1        DOPC     H13S     HAL2     0.900000E-01   1.00800           0
       576 MEMB     1        DOPC     C214     CTL2    -0.180000       12.0110           0
       577 MEMB     1        DOPC     H14R     HAL2     0.900000E-01   1.00800           0
       578 MEMB     1        DOPC     H14S     HAL2     0.900000E-01   1.00800           0
       579 MEMB     1        DOPC     C215     CTL2    -0.180000       12.0110           0
       580 MEMB     1        DOPC     H15R     HAL2     0.900000E-01   1.00800           0
       581 MEMB     1        DOPC     H15S     HAL2     0.900000E-01   1.00800           0
       582 MEMB     1        DOPC     C216     CTL2    -0.180000       12.0110           0
       583 MEMB     1        DOPC     H16R     HAL2     0.900000E-01   1.00800           0
       584 MEMB     1        DOPC     H16S     HAL2     0.900000E-01   1.00800           0
       585 MEMB     1        DOPC     C217     CTL2    -0.180000       12.0110           0
       586 MEMB     1        DOPC     H17R     HAL2     0.900000E-01   1.00800           0
       587 MEMB     1        DOPC     H17S     HAL2     0.900000E-01   1.00800           0
       588 MEMB     1        DOPC     C218     CTL3    -0.270000       12.0110           0
       589 MEMB     1        DOPC     H18R     HAL3     0.900000E-01   1.00800           0
       590 MEMB     1        DOPC     H18S     HAL3     0.900000E-01   1.00800           0
       591 MEMB     1        DOPC     H18T     HAL3     0.900000E-01   1.00800           0
       592 MEMB     1        DOPC     C33      CTL2    -0.180000       12.0110           0
       593 MEMB     1        DOPC     H3X      HAL2     0.900000E-01   1.00800           0
       594 MEMB     1        DOPC     H3Y      HAL2     0.900000E-01   1.00800           0
       595 MEMB     1        DOPC     C34      CTL2    -0.180000       12.0110           0
       596 MEMB     1        DOPC     H4X      HAL2     0.900000E-01   1.00800           0
       597 MEMB     1        DOPC     H4Y      HAL2     0.900000E-01   1.00800           0
       598 MEMB     1        DOPC     C35      CTL2    -0.180000       12.0110           0
       599 MEMB     1        DOPC     H5X      HAL2     0.900000E-01   1.00800           0
       600 MEMB     1        DOPC     H5Y      HAL2     0.900000E-01   1.00800           0
       601 MEMB     1        DOPC     C36      CTL2    -0.180000       12.0110           0
       602 MEMB     1        DOPC     H6X      HAL2     0.900000E-01   1.00800           0
       603 MEMB     1        DOPC     H6Y      HAL2     0.900000E-01   1.00800           0
       604 MEMB     1        DOPC     C37      CTL2    -0.180000       12.0110           0
       605 MEMB     1        DOPC     H7X      HAL2     0.900000E-01   1.00800           0
       606 MEMB     1        DOPC     H7Y      HAL2     0.900000E-01   1.00800           0
       607 MEMB     1        DOPC     C38      CTL2    -0.180000       12.0110           0
       608 MEMB     1        DOPC     H8X      HAL2     0.900000E-01   1.00800           0
       609 MEMB     1        DOPC     H8Y      HAL2     0.900000E-01   1.00800           0
       610 MEMB     1        DOPC     C39      CEL1    -0.150000       12.0110           0
       611 MEMB     1        DOPC     H9X      HEL1     0.150000       1.00800           0
       612 MEMB     1        DOPC     C310     CEL1    -0.150000       12.0110           0
       613 MEMB     1        DOPC     H10X     HEL1     0.150000       1.00800           0
       614 MEMB     1        DOPC     C311     CTL2    -0.180000       12.0110           0
       615 MEMB     1        DOPC     H11X     HAL2     0.900000E-01   1.00800           0
       616 MEMB     1        DOPC     H11Y     HAL2     0.900000E-01   1.00800           0
       617 MEMB     1        DOPC     C312     CTL2    -0.180000       12.0110           0
       618 MEMB     1        DOPC     H12X     HAL2     0.900000E-01   1.00800           0
       619 MEMB     1        DOPC     H12Y     HAL2     0.900000E-01   1.00800           0
       620 MEMB     1        DOPC     C313     CTL2    -0.180000       12.0110           0
       621 MEMB     1        DOPC     H13X     HAL2     0.900000E-01   1.00800           0
       622 MEMB     1        DOPC     H13Y     HAL2     0.900000E-01   1.00800           0
       623 MEMB     1        DOPC     C314     CTL2    -0.180000       12.0110           0
       624 MEMB     1        DOPC     H14X     HAL2     0.900000E-01   1.00800           0
       625 MEMB     1        DOPC     H14Y     HAL2     0.900000E-01   1.00800           0
       626 MEMB     1        DOPC     C315     CTL2    -0.180000       12.0110           0
       627 MEMB     1        DOPC     H15X     HAL2     0.900000E-01   1.00800           0
       628 MEMB     1        DOPC     H15Y     HAL2     0.900000E-01   1.00800           0
       629 MEMB     1        DOPC     C316     CTL2    -0.180000       12.0110           0
       630 MEMB     1        DOPC     H16X     HAL2     0.900000E-01   1.00800           0
       631 MEMB     1        DOPC     H16Y     HAL2     0.900000E-01   1.00800           0
       632 MEMB     1        DOPC     C317     CTL2    -0.180000       12.0110           0
       633 MEMB     1        DOPC     H17X     HAL2     0.900000E-01   1.00800           0
       634 MEMB     1        DOPC     H17Y     HAL2     0.900000E-01   1.00800           0
       635 MEMB     1        DOPC     C318     CTL3    -0.270000       12.0110           0
       636 MEMB     1        DOPC     H18X     HAL3     0.900000E-01   1.00800           0
       637 MEMB     1        DOPC     H18Y     HAL3     0.900000E-01   1.00800           0
       638 MEMB     1        DOPC     H18Z     HAL3     0.900000E-01   1.00800           0
       639 MEMB     2        DOPC     N        NTL     -0.600000       14.0070           0
       640 MEMB     2        DOPC     C12      CTL2    -0.100000       12.0110           0
       641 MEMB     2        DOPC     H12A     HL       0.250000       1.00800           0
       642 MEMB     2        DOPC     H12B     HL       0.250000       1.00800           0
       643 MEMB     2        DOPC     C13      CTL5    -0.350000       12.0110           0
       644 MEMB     2        DOPC     H13A     HL       0.250000       1.00800           0
       645 MEMB     2        DOPC     H13B     HL       0.250000       1.00800           0
       646 MEMB     2        DOPC     H13C     HL       0.250000       1.00800           0
       647 MEMB     2        DOPC     C14      CTL5    -0.350000       12.0110           0
       648 MEMB     2        DOPC     H14A     HL       0.250000       1.00800           0
       649 MEMB     2        DOPC     H14B     HL       0.250000       1.00800           0
       650 MEMB     2        DOPC     H14C     HL       0.250000       1.00800           0
       651 MEMB     2        DOPC     C15      CTL5    -0.350000       12.0110           0
       652 MEMB     2        DOPC     H15A     HL       0.250000       1.00800           0
       653 MEMB     2        DOPC     H15B     HL       0.250000       1.00800           0
       654 MEMB     2        DOPC     H15C     HL       0.250000       1.00800           0
       655 MEMB     2        DOPC     C11      CTL2    -0.800000E-01   12.0110           0
       656 MEMB     2        DOPC     H11A     HAL2     0.900000E-01   1.00800           0
       657 MEMB     2        DOPC     H11B     HAL2     0.900000E-01   1.00800           0
       658 MEMB     2        DOPC     P        PL        1.50000       30.9740           0
       659 MEMB     2        DOPC     O13      O2L     -0.780000       15.9994           0
       660 MEMB     2        DOPC     O14      O2L     -0.780000       15.9994           0
       661 MEMB     2        DOPC     O12      OSLP    -0.570000       15.9994           0
       662 MEMB     2        DOPC     O11      OSLP    -0.570000       15.9994           0
       663 MEMB     2        DOPC     C1       CTL2    -0.800000E-01   12.0110           0
       664 MEMB     2        DOPC     HA       HAL2     0.900000E-01   1.00800           0
       665 MEMB     2        DOPC     HB       HAL2     0.900000E-01   1.00800           0
       666 MEMB     2        DOPC     C2       CTL1     0.170000       12.0110           0
       667 MEMB     2        DOPC     HS       HAL1     0.900000E-01   1.00800           0
       668 MEMB     2        DOPC     O21      OSL     -0.490000       15.9994           0
       669 MEMB     2        DOPC     C21      CL       0.900000       12.0110           0
       670 MEMB     2        DOPC     O22      OBL     -0.630000       15.9994           0
       671 MEMB     2        DOPC     C22      CTL2    -0.220000       12.0110           0
       672 MEMB     2        DOPC     H2R      HAL2     0.900000E-01   1.00800           0
       673 MEMB     2        DOPC     H2S      HAL2     0.900000E-01   1.00800           0
       674 MEMB     2        DOPC     C3       CTL2     0.800000E-01   12.0110           0
       675 MEMB     2        DOPC     HX       HAL2     0.900000E-01   1.00800           0
       676 MEMB     2        DOPC     HY       HAL2     0.900000E-01   1.00800           0
       677 MEMB     2        DOPC     O31      OSL     -0.490000       15.9994           0
       678 MEMB     2        DOPC     C31      CL       0.900000       12.0110           0
       679 MEMB     2        DOPC     O32      OBL     -0.630000       15.9994           0
       680 MEMB     2        DOPC     C32      CTL2    -0.220000       12.0110           0
       681 MEMB     2        DOPC     H2X      HAL2     0.900000E-01   1.00800           0
       682 MEMB     2        DOPC     H2Y      HAL2     0.900000E-01   1.00800           0
       683 MEMB     2        DOPC     C23      CTL2    -0.180000       12.0110           0
       684 MEMB     2        DOPC     H3R      HAL2     0.900000E-01   1.00800           0
       685 MEMB     2        DOPC     H3S      HAL2     0.900000E-01   1.00800           0
       686 MEMB     2        DOPC     C24      CTL2    -0.180000       12.0110           0
       687 MEMB     2        DOPC     H4R      HAL2     0.900000E-01   1.00800           0
       688 MEMB     2        DOPC     H4S      HAL2     0.900000E-01   1.00800           0
       689 MEMB     2        DOPC     C25      CTL2    -0.180000       12.0110           0
       690 MEMB     2        DOPC     H5R      HAL2     0.900000E-01   1.00800           0
       691 MEMB     2        DOPC     H5S      HAL2     0.900000E-01   1.00800           0
       692 MEMB     2        DOPC     C26      CTL2    -0.180000       12.0110           0
       693 MEMB     2        DOPC     H6R      HAL2     0.900000E-01   1.00800           0
       694 MEMB     2        DOPC     H6S      HAL2     0.900000E-01   1.00800           0
       695 MEMB     2        DOPC     C27      CTL2    -0.180000       12.0110           0
       696 MEMB     2        DOPC     H7R      HAL2     0.900000E-01   1.00800           0
       697 MEMB     2        DOPC     H7S      HAL2     0.900000E-01   1.00800           0
       698 MEMB     2        DOPC     C28      CTL2    -0.180000       12.0110           0
       699 MEMB     2        DOPC     H8R      HAL2     0.900000E-01   1.00800           0
       700 MEMB     2        DOPC     H8S      HAL2     0.900000E-01   1.00800           0
       701 MEMB     2        DOPC     C29      CEL1    -0.150000       12.0110           0
       702 MEMB     2        DOPC     H9R      HEL1     0.150000       1.00800           0
       703 MEMB     2        DOPC     C210     CEL1    -0.150000       12.0110           0
       704 MEMB     2        DOPC     H10R     HEL1     0.150000       1.00800           0
       705 MEMB     2        DOPC     C211     CTL2    -0.180000       12.0110           0
       706 MEMB     2        DOPC     H11R     HAL2     0.900000E-01   1.00800           0
       707 MEMB     2        DOPC     H11S     HAL2     0.900000E-01   1.00800           0
       708 MEMB     2        DOPC     C212     CTL2    -0.180000       12.0110           0
       709 MEMB     2        DOPC     H12R     HAL2     0.900000E-01   1.00800           0
       710 MEMB     2        DOPC     H12S     HAL2     0.900000E-01   1.00800           0
       711 MEMB     2        DOPC     C213     CTL2    -0.180000       12.0110           0
       712 MEMB     2        DOPC     H13R     HAL2     0.900000E-01   1.00800           0
       713 MEMB     2        DOPC     H13S     HAL2     0.900000E-01   1.00800           0
       714 MEMB     2        DOPC     C214     CTL2    -0.180000       12.0110           0
       715 MEMB     2        DOPC     H14R     HAL2     0.900000E-01   1.00800           0
       716 MEMB     2        DOPC     H14S     HAL2     0.900000E-01   1.00800           0
       717 MEMB     2        DOPC     C215     CTL2    -0.180000       12.0110           0
       718 MEMB     2        DOPC     H15R     HAL2     0.900000E-01   1.00800           0
       719 MEMB     2        DOPC     H15S     HAL2     0.900000E-01   1.00800           0
       720 MEMB     2        DOPC     C216     CTL2    -0.180000       12.0110           0
       721 MEMB     2        DOPC     H16R     HAL2     0.900000E-01   1.00800           0
       722 MEMB     2        DOPC     H16S     HAL2     0.900000E-01   1.00800           0
       723 MEMB     2        DOPC     C217     CTL2    -0.180000       12.0110           0
       724 MEMB     2        DOPC     H17R     HAL2     0.900000E-01   1.00800           0
       725 MEMB     2        DOPC     H17S     HAL2     0.900000E-01   1.00800           0
       726 MEMB     2        DOPC     C218     CTL3    -0.270000       12.0110           0
       727 MEMB     2        DOPC     H18R     HAL3     0.900000E-01   1.00800           0
       728 MEMB     2        DOPC     H18S     HAL3     0.900000E-01   1.00800           0
       729 MEMB     2        DOPC     H18T     HAL3     0.900000E-01   1.00800           0
       730 MEMB     2        DOPC     C33      CTL2    -0.180000       12.0110           0
       731 MEMB     2        DOPC     H3X      HAL2     0.900000E-01   1.00800           0
       732 MEMB     2        DOPC     H3Y      HAL2     0.900000E-01   1.00800           0
       733 MEMB     2        DOPC     C34      CTL2    -0.180000       12.0110           0
       734 MEMB     2        DOPC     H4X      HAL2     0.900000E-01   1.00800           0
       735 MEMB     2        DOPC     H4Y      HAL2     0.900000E-01   1.00800           0
       736 MEMB     2        DOPC     C35      CTL2    -0.180000       12.0110           0
       737 MEMB     2        DOPC     H5X      HAL2     0.900000E-01   1.00800           0
       738 MEMB     2        DOPC     H5Y      HAL2     0.900000E-01   1.00800           0
       739 MEMB     2        DOPC     C36      CTL2    -0.180000       12.0110           0
       740 MEMB     2        DOPC     H6X      HAL2     0.900000E-01   1.00800           0
       741 MEMB     2        DOPC     H6Y      HAL2     0.900000E-01   1.00800           0
       742 MEMB     2        DOPC     C37      CTL2    -0.180000       12.0110           0
       743 MEMB     2        DOPC     H7X      HAL2     0.900000E-01   1.00800           0
       744 MEMB     2        DOPC     H7Y      HAL2     0.900000E-01   1.00800           0
       745 MEMB     2        DOPC     C38      CTL2    -0.180000       12.0110           0
       746 MEMB     2        DOPC     H8X      HAL2     0.900000E-01   1.00800           0
       747 MEMB     2        DOPC     H8Y      HAL2     0.900000E-01   1.00800           0
       748 MEMB     2        DOPC     C39      CEL1    -0.150000       12.0110           0
       749 MEMB     2        DOPC     H9X      HEL1     0.150000       1.00800           0
       750 MEMB     2        DOPC     C310     CEL1    -0.150000       12.0110           0
       751 MEMB     2        DOPC     H10X     HEL1     0.150000       1.00800           0
       752 MEMB     2        DOPC     C311     CTL2    -0.180000       12.0110           0
       753 MEMB     2        DOPC     H11X     HAL2     0.900000E-01   1.00800           0
       754 MEMB     2        DOPC     H11Y     HAL2     0.900000E-01   1.00800           0
       755 MEMB     2        DOPC     C312     CTL2    -0.180000       12.0110           0
       756 MEMB     2        DOPC     H12X     HAL2     0.900000E-01   1.00800           0
       757 MEMB     2        DOPC     H12Y     HAL2     0.900000E-01   1.00800           0
       758 MEMB     2        DOPC     C313     CTL2    -0.180000       12.0110           0
       759 MEMB     2        DOPC     H13X     HAL2     0.900000E-01   1.00800           0
       760 MEMB     2        DOPC     H13Y     HAL2     0.900000E-01   1.00800           0
       761 MEMB     2        DOPC     C314     CTL2    -0.180000       12.0110           0
       762 MEMB     2        DOPC     H14X     HAL2     0.900000E-01   1.00800           0
       763 MEMB     2        DOPC     H14Y     HAL2     0.900000E-01   1.00800           0
       764 MEMB     2        DOPC     C315     CTL2    -0.180000       12.0110           0
       765 MEMB     2        DOPC     H15X     HAL2     0.900000E-01   1.00800           0
       766 MEMB     2        DOPC     H15Y     HAL2     0.900000E-01   1.00800           0
       767 MEMB     2        DOPC     C316     CTL2    -0.180000       12.0110           0
       768 MEMB     2        DOPC     H16X     HAL2     0.900000E-01   1.00800           0
       769 MEMB     2        DOPC     H16Y     HAL2     0.900000E-01   1.00800           0
       770 MEMB     2        DOPC     C317     CTL2    -0.180000       12.0110           0
       771 MEMB     2        DOPC     H17X     HAL2     0.900000E-01   1.00800           0
       772 MEMB     2        DOPC     H17Y     HAL2     0.900000E-01   1.00800           0
       773 MEMB     2        DOPC     C318     CTL3    -0.270000       12.0110           0
       774 MEMB     2        DOPC     H18X     HAL3     0.900000E-01   1.00800           0
       775 MEMB     2        DOPC     H18Y     HAL3     0.900000E-01   1.00800           0
       776 MEMB     2        DOPC     H18Z     HAL3     0.900000E-01   1.00800           0
       777 MEMB     3        DOPC     N        NTL     -0.600000       14.0070           0
       778 MEMB     3        DOPC     C12      CTL2    -0.100000       12.0110           0
       779 MEMB     3        DOPC     H12A     HL       0.250000       1.00800           0
       780 MEMB     3        DOPC     H12B     HL       0.250000       1.00800           0
       781 MEMB     3        DOPC     C13      CTL5    -0.350000       12.0110           0
       782 MEMB     3        DOPC     H13A     HL       0.250000       1.00800           0
       783 MEMB     3        DOPC     H13B     HL       0.250000       1.00800           0
       784 MEMB     3        DOPC     H13C     HL       0.250000       1.00800           0
       785 MEMB     3        DOPC     C14      CTL5    -0.350000       12.0110           0
       786 MEMB     3        DOPC     H14A     HL       0.250000       1.00800           0
       787 MEMB     3        DOPC     H14B     HL       0.250000       1.00800           0
       788 MEMB     3        DOPC     H14C     HL       0.250000       1.00800           0
       789 MEMB     3        DOPC     C15      CTL5    -0.350000       12.0110           0
       790 MEMB     3        DOPC     H15A     HL       0.250000       1.00800           0
       791 MEMB     3        DOPC     H15B     HL       0.250000       1.00800           0
       792 MEMB     3        DOPC     H15C     HL       0.250000       1.00800           0
       793 MEMB     3        DOPC     C11      CTL2    -0.800000E-01   12.0110           0
       794 MEMB     3        DOPC     H11A     HAL2     0.900000E-01   1.00800           0
       795 MEMB     3        DOPC     H11B     HAL2     0.900000E-01   1.00800           0
       796 MEMB     3        DOPC     P        PL        1.50000       30.9740           0
       797 MEMB     3        DOPC     O13      O2L     -0.780000       15.9994           0
       798 MEMB     3        DOPC     O14      O2L     -0.780000       15.9994           0
       799 MEMB     3        DOPC     O12      OSLP    -0.570000       15.9994           0
       800 MEMB     3        DOPC     O11      OSLP    -0.570000       15.9994           0
       801 MEMB     3        DOPC     C1       CTL2    -0.800000E-01   12.0110           0
       802 MEMB     3        DOPC     HA       HAL2     0.900000E-01   1.00800           0
       803 MEMB     3        DOPC     HB       HAL2     0.900000E-01   1.00800           0
       804 MEMB     3        DOPC     C2       CTL1     0.170000       12.0110           0
       805 MEMB     3        DOPC     HS       HAL1     0.900000E-01   1.00800           0
       806 MEMB     3        DOPC     O21      OSL     -0.490000       15.9994           0
       807 MEMB     3        DOPC     C21      CL       0.900000       12.0110           0
       808 MEMB     3        DOPC     O22      OBL     -0.630000       15.9994           0
       809 MEMB     3        DOPC     C22      CTL2    -0.220000       12.0110           0
       810 MEMB     3        DOPC     H2R      HAL2     0.900000E-01   1.00800           0
       811 MEMB     3        DOPC     H2S      HAL2     0.900000E-01   1.00800           0
       812 MEMB     3        DOPC     C3       CTL2     0.800000E-01   12.0110           0
       813 MEMB     3        DOPC     HX       HAL2     0.900000E-01   1.00800           0
       814 MEMB     3        DOPC     HY       HAL2     0.900000E-01   1.00800           0
       815 MEMB     3        DOPC     O31      OSL     -0.490000       15.9994           0
       816 MEMB     3        DOPC     C31      CL       0.900000       12.0110           0
       817 MEMB     3        DOPC     O32      OBL     -0.630000       15.9994           0
       818 MEMB     3        DOPC     C32      CTL2    -0.220000       12.0110           0
       819 MEMB     3        DOPC     H2X      HAL2     0.900000E-01   1.00800           0
       820 MEMB     3        DOPC     H2Y      HAL2     0.900000E-01   1.00800           0
       821 MEMB     3        DOPC     C23      CTL2    -0.180000       12.0110           0
       822 MEMB     3        DOPC     H3R      HAL2     0.900000E-01   1.00800           0
       823 MEMB     3        DOPC     H3S      HAL2     0.900000E-01   1.00800           0
       824 MEMB     3        DOPC     C24      CTL2    -0.180000       12.0110           0
       825 MEMB     3        DOPC     H4R      HAL2     0.900000E-01   1.00800           0
       826 MEMB     3        DOPC     H4S      HAL2     0.900000E-01   1.00800           0
       827 MEMB     3        DOPC     C25      CTL2    -0.180000       12.0110           0
       828 MEMB     3        DOPC     H5R      HAL2     0.900000E-01   1.00800           0
       829 MEMB     3        DOPC     H5S      HAL2     0.900000E-01   1.00800           0
       830 MEMB     3        DOPC     C26      CTL2    -0.180000       12.0110           0
       831 MEMB     3        DOPC     H6R      HAL2     0.900000E-01   1.00800           0
       832 MEMB     3        DOPC     H6S      HAL2     0.900000E-01   1.00800           0
       833 MEMB     3        DOPC     C27      CTL2    -0.180000       12.0110           0
       834 MEMB     3        DOPC     H7R      HAL2     0.900000E-01   1.00800           0
       835 MEMB     3        DOPC     H7S      HAL2     0.900000E-01   1.00800           0
       836 MEMB     3        DOPC     C28      CTL2    -0.180000       12.0110           0
       837 MEMB     3        DOPC     H8R      HAL2     0.900000E-01   1.00800           0
       838 MEMB     3        DOPC     H8S      HAL2     0.900000E-01   1.00800           0
       839 MEMB     3        DOPC     C29      CEL1    -0.150000       12.0110           0
       840 MEMB     3        DOPC     H9R      HEL1     0.150000       1.00800           0
       841 MEMB     3        DOPC     C210     CEL1    -0.150000       12.0110           0
       842 MEMB     3        DOPC     H10R     HEL1     0.150000       1.00800           0
       843 MEMB     3        DOPC     C211     CTL2    -0.180000       12.0110           0
       844 MEMB     3        DOPC     H11R     HAL2     0.900000E-01   1.00800           0
       845 MEMB     3        DOPC     H11S     HAL2     0.900000E-01   1.00800           0
       846 MEMB     3        DOPC     C212     CTL2    -0.180000       12.0110           0
       847 MEMB     3        DOPC     H12R     HAL2     0.900000E-01   1.00800           0
       848 MEMB     3        DOPC     H12S     HAL2     0.900000E-01   1.00800           0
       849 MEMB     3        DOPC     C213     CTL2    -0.180000       12.0110           0
       850 MEMB     3        DOPC     H13R     HAL2     0.900000E-01   1.00800           0
       851 MEMB     3        DOPC     H13S     HAL2     0.900000E-01   1.00800           0
       852 MEMB     3        DOPC     C214     CTL2    -0.180000       12.0110           0
       853 MEMB     3        DOPC     H14R     HAL2     0.900000E-01   1.00800           0
       854 MEMB     3        DOPC     H14S     HAL2     0.900000E-01   1.00800           0
       855 MEMB     3        DOPC     C215     CTL2    -0.180000       12.0110           0
       856 MEMB     3        DOPC     H15R     HAL2     0.900000E-01   1.00800           0
       857 MEMB     3        DOPC     H15S     HAL2     0.900000E-01   1.00800           0
       858 MEMB     3        DOPC     C216     CTL2    -0.180000       12.0110           0
       859 MEMB     3        DOPC     H16R     HAL2     0.900000E-01   1.00800           0
       860 MEMB     3        DOPC     H16S     HAL2     0.900000E-01   1.00800           0
       861 MEMB     3        DOPC     C217     CTL2    -0.180000       12.0110           0
       862 MEMB     3        DOPC     H17R     HAL2     0.900000E-01   1.00800           0
       863 MEMB     3        DOPC     H17S     HAL2     0.900000E-01   1.00800           0
       864 MEMB     3        DOPC     C218     CTL3    -0.270000       12.0110           0
       865 MEMB     3        DOPC     H18R     HAL3     0.900000E-01   1.00800           0
       866 MEMB     3        DOPC     H18S     HAL3     0.900000E-01   1.00800           0
       867 MEMB     3        DOPC     H18T     HAL3     0.900000E-01   1.00800           0
       868 MEMB     3        DOPC     C33      CTL2    -0.180000       12.0110           0
       869 MEMB     3        DOPC     H3X      HAL2     0.900000E-01   1.00800           0
       870 MEMB     3        DOPC     H3Y      HAL2     0.900000E-01   1.00800           0
       871 MEMB     3        DOPC     C34      CTL2    -0.180000       12.0110           0
       872 MEMB     3        DOPC     H4X      HAL2     0.900000E-01   1.00800           0
       873 MEMB     3        DOPC     H4Y      HAL2     0.900000E-01   1.00800           0
       874 MEMB     3        DOPC     C35      CTL2    -0.180000       12.0110           0
       875 MEMB     3        DOPC     H5X      HAL2     0.900000E-01   1.00800           0
       876 MEMB     3        DOPC     H5Y      HAL2     0.900000E-01   1.00800           0
       877 MEMB     3        DOPC     C36      CTL2    -0.180000       12.0110           0
       878 MEMB     3        DOPC     H6X      HAL2     0.900000E-01   1.00800           0
       879 MEMB     3        DOPC     H6Y      HAL2     0.900000E-01   1.00800           0
       880 MEMB     3        DOPC     C37      CTL2    -0.180000       12.0110           0
       881 MEMB     3        DOPC     H7X      HAL2     0.900000E-01   1.00800           0
       882 MEMB     3        DOPC     H7Y      HAL2     0.900000E-01   1.00800           0
       883 MEMB     3        DOPC     C38      CTL2    -0.180000       12.0110           0
       884 MEMB     3        DOPC     H8X      HAL2     0.900000E-01   1.00800           0
       885 MEMB     3        DOPC     H8Y      HAL2     0.900000E-01   1.00800           0
       886 MEMB     3        DOPC     C39      CEL1    -0.150000       12.0110           0
       887 MEMB     3        DOPC     H9X      HEL1     0.150000       1.00800           0
       888 MEMB     3        DOPC     C310     CEL1    -0.150000       12.0110           0
       889 MEMB     3        DOPC     H10X     HEL1     0.150000       1.00800           0
       890 MEMB     3        DOPC     C311     CTL2    -0.180000       12.0110           0
       891 MEMB     3        DOPC     H11X     HAL2     0.900000E-01   1.00800           0
       892 MEMB     3        DOPC     H11Y     HAL2     0.900000E-01   1.00800           0
       893 MEMB     3        DOPC     C312     CTL2    -0.180000       12.0110           0
       894 MEMB     3        DOPC     H12X     HAL2     0.900000E-01   1.00800           0
       895 MEMB     3        DOPC     H12Y     HAL2     0.900000E-01   1.00800           0
       896 MEMB     3        DOPC     C313     CTL2    -0.180000       12.0110           0
       897 MEMB     3        DOPC     H13X     HAL2     0.900000E-01   1.00800           0
       898 MEMB     3        DOPC     H13Y     HAL2     0.900000E-01   1.00800           0
       899 MEMB     3        DOPC     C314     CTL2    -0.180000       12.0110           0
       900 MEMB     3        DOPC     H14X     HAL2     0.900000E-01   1.00800           0
       901 MEMB     3        DOPC     H14Y     HAL2     0.900000E-01   1.00800           0
       902 MEMB     3        DOPC     C315     CTL2    -0.180000       12.0110           0
       903 MEMB     3        DOPC     H15X     HAL2     0.900000E-01   1.00800           0
       904 MEMB     3        DOPC     H15Y     HAL2     0.900000E-01   1.00800           0
       905 MEMB     3        DOPC     C316     CTL2    -0.180000       12.0110           0
       906 MEMB     3        DOPC     H16X     HAL2     0.900000E-01   1.00800           0
       907 MEMB     3        DOPC     H16Y     HAL2     0.900000E-01   1.00800           0
       908 MEMB     3        DOPC     C317     CTL2    -0.180000       12.0110           0
       909 MEMB     3        DOPC     H17X     HAL2     0.900000E-01   1.00800           0
       910 MEMB     3        DOPC     H17Y     HAL2     0.900000E-01   1.00800           0
       911 MEMB     3        DOPC     C318     CTL3    -0.270000       12.0110           0
       912 MEMB     3        DOPC     H18X     HAL3     0.900000E-01   1.00800           0
       913 MEMB     3        DOPC     H18Y     HAL3     0.900000E-01   1.00800           0
       914 MEMB     3        DOPC     H18Z     HAL3     0.900000E-01   1.00800           0
       915 MEMB     4        DOPC     N        NTL     -0.600000       14.0070           0
       916 MEMB     4        DOPC     C12      CTL2    -0.100000       12.0110           0
       917 MEMB     4        DOPC     H12A     HL       0.250000       1.00800           0
       918 MEMB     4        DOPC     H12B     HL       0.250000       1.00800           0
       919 MEMB     4        DOPC     C13      CTL5    -0.350000       12.0110           0
       920 MEMB     4        DOPC     H13A     HL       0.250000       1.00800           0
       921 MEMB     4        DOPC     H13B     HL       0.250000       1.00800           0
       922 MEMB     4        DOPC     H13C     HL       0.250000       1.00800           0
       923 MEMB     4        DOPC     C14      CTL5    -0.350000       12.0110           0
       924 MEMB     4        DOPC     H14A     HL       0.250000       1.00800           0
       925 MEMB     4        DOPC     H14B     HL       0.250000       1.00800           0
       926 MEMB     4        DOPC     H14C     HL       0.250000       1.00800           0
       927 MEMB     4        DOPC     C15      CTL5    -0.350000       12.0110           0
       928 MEMB     4        DOPC     H15A     HL       0.250000       1.00800           0
       929 MEMB     4        DOPC     H15B     HL       0.250000       1.00800           0
       930 MEMB     4        DOPC     H15C     HL       0.250000       1.00800           0
       931 MEMB     4        DOPC     C11      CTL2    -0.800000E-01   12.0110           0
       932 MEMB     4        DOPC     H11A     HAL2     0.900000E-01   1.00800           0
       933 MEMB     4        DOPC     H11B     HAL2     0.900000E-01   1.00800           0
       934 MEMB     4        DOPC     P        PL        1.50000       30.9740           0
       935 MEMB     4        DOPC     O13      O2L     -0.780000       15.9994           0
       936 MEMB     4        DOPC     O14      O2L     -0.780000       15.9994           0
       937 MEMB     4        DOPC     O12      OSLP    -0.570000       15.9994           0
       938 MEMB     4        DOPC     O11      OSLP    -0.570000       15.9994           0
       939 MEMB     4        DOPC     C1       CTL2    -0.800000E-01   12.0110           0
       940 MEMB     4        DOPC     HA       HAL2     0.900000E-01   1.00800           0
       941 MEMB     4        DOPC     HB       HAL2     0.900000E-01   1.00800           0
       942 MEMB     4        DOPC     C2       CTL1     0.170000       12.0110           0
       943 MEMB     4        DOPC     HS       HAL1     0.900000E-01   1.00800           0
       944 MEMB     4        DOPC     O21      OSL     -0.490000       15.9994           0
       945 MEMB     4        DOPC     C21      CL       0.900000       12.0110           0
       946 MEMB     4        DOPC     O22      OBL     -0.630000       15.9994           0
       947 MEMB     4        DOPC     C22      CTL2    -0.220000       12.0110           0
       948 MEMB     4        DOPC     H2R      HAL2     0.900000E-01   1.00800           0
       949 MEMB     4        DOPC     H2S      HAL2     0.900000E-01   1.00800           0
       950 MEMB     4        DOPC     C3       CTL2     0.800000E-01   12.0110           0
       951 MEMB     4        DOPC     HX       HAL2     0.900000E-01   1.00800           0
       952 MEMB     4        DOPC     HY       HAL2     0.900000E-01   1.00800           0
       953 MEMB     4        DOPC     O31      OSL     -0.490000       15.9994           0
       954 MEMB     4        DOPC     C31      CL       0.900000       12.0110           0
       955 MEMB     4        DOPC     O32      OBL     -0.630000       15.9994           0
       956 MEMB     4        DOPC     C32      CTL2    -0.220000       12.0110           0
       957 MEMB     4        DOPC     H2X      HAL2     0.900000E-01   1.00800           0
       958 MEMB     4        DOPC     H2Y      HAL2     0.900000E-01   1.00800           0
       959 MEMB     4        DOPC     C23      CTL2    -0.180000       12.0110           0
       960 MEMB     4        DOPC     H3R      HAL2     0.900000E-01   1.00800           0
       961 MEMB     4        DOPC     H3S      HAL2     0.900000E-01   1.00800           0
       962 MEMB     4        DOPC     C24      CTL2    -0.180000       12.0110           0
       963 MEMB     4        DOPC     H4R      HAL2     0.900000E-01   1.00800           0
       964 MEMB     4        DOPC     H4S      HAL2     0.900000E-01   1.00800           0
       965 MEMB     4        DOPC     C25      CTL2    -0.180000       12.0110           0
       966 MEMB     4        DOPC     H5R      HAL2     0.900000E-01   1.00800           0
       967 MEMB     4        DOPC     H5S      HAL2     0.900000E-01   1.00800           0
       968 MEMB     4        DOPC     C26      CTL2    -0.180000       12.0110           0
       969 MEMB     4        DOPC     H6R      HAL2     0.900000E-01   1.00800           0
       970 MEMB     4        DOPC     H6S      HAL2     0.900000E-01   1.00800           0
       971 MEMB     4        DOPC     C27      CTL2    -0.180000       12.0110           0
       972 MEMB     4        DOPC     H7R      HAL2     0.900000E-01   1.00800           0
       973 MEMB     4        DOPC     H7S      HAL2     0.900000E-01   1.00800           0
       974 MEMB     4        DOPC     C28      CTL2    -0.180000       12.0110           0
       975 MEMB     4        DOPC     H8R      HAL2     0.900000E-01   1.00800           0
       976 MEMB     4        DOPC     H8S      HAL2     0.900000E-01   1.00800           0
       977 MEMB     4        DOPC     C29      CEL1    -0.150000       12.0110           0
       978 MEMB     4        DOPC     H9R      HEL1     0.150000       1.00800           0
       979 MEMB     4        DOPC     C210     CEL1    -0.150000       12.0110           0
       980 MEMB     4        DOPC     H10R     HEL1     0.150000       1.00800           0
       981 MEMB     4        DOPC     C211     CTL2    -0.180000       12.0110           0
       982 MEMB     4        DOPC     H11R     HAL2     0.900000E-01   1.00800           0
       983 MEMB     4        DOPC     H11S     HAL2     0.900000E-01   1.00800           0
       984 MEMB     4        DOPC     C212     CTL2    -0.180000       12.0110           0
       985 MEMB     4        DOPC     H12R     HAL2     0.900000E-01   1.00800           0
       986 MEMB     4        DOPC     H12S     HAL2     0.900000E-01   1.00800           0
       987 MEMB     4        DOPC     C213     CTL2    -0.180000       12.0110           0
       988 MEMB     4        DOPC     H13R     HAL2     0.900000E-01   1.00800           0
       989 MEMB     4        DOPC     H13S     HAL2     0.900000E-01   1.00800           0
       990 MEMB     4        DOPC     C214     CTL2    -0.180000       12.0110           0
       991 MEMB     4        DOPC     H14R     HAL2     0.900000E-01   1.00800           0
       992 MEMB     4        DOPC     H14S     HAL2     0.900000E-01   1.00800           0
       993 MEMB     4        DOPC     C215     CTL2    -0.180000       12.0110           0
       994 MEMB     4        DOPC     H15R     HAL2     0.900000E-01   1.00800           0
       995 MEMB     4        DOPC     H15S     HAL2     0.900000E-01   1.00800           0
       996 MEMB     4        DOPC     C216     CTL2    -0.180000       12.0110           0
       997 MEMB     4        DOPC     H16R     HAL2     0.900000E-01   1.00800           0
       998 MEMB     4        DOPC     H16S     HAL2     0.900000E-01   1.00800           0
       999 MEMB     4        DOPC     C217     CTL2    -0.180000       12.0110           0
      1000 MEMB     4        DOPC     H17R     HAL2     0.900000E-01   1.00800           0
      1001 MEMB     4        DOPC     H17S     HAL2     0.900000E-01   1.00800           0
      1002 MEMB     4        DOPC     C218     CTL3    -0.270000       12.0110           0
      1003 MEMB     4        DOPC     H18R     HAL3     0.900000E-01   1.00800           0
      1004 MEMB     4        DOPC     H18S     HAL3     0.900000E-01   1.00800           0
      1005 MEMB     4        DOPC     H18T     HAL3     0.900000E-01   1.00800           0
      1006 MEMB     4        DOPC     C33      CTL2    -0.180000       12.0110           0
      1007 MEMB     4        DOPC     H3X      HAL2     0.900000E-01   1.00800           0
      1008 MEMB     4        DOPC     H3Y      HAL2     0.900000E-01   1.00800           0
      1009 MEMB     4        DOPC     C34      CTL2    -0.180000       12.0110           0
      1010 MEMB     4        DOPC     H4X      HAL2     0.900000E-01   1.00800           0
      1011 MEMB     4        DOPC     H4Y      HAL2     0.900000E-01   1.00800           0
      1012 MEMB     4        DOPC     C35      CTL2    -0.180000       12.0110           0
      1013 MEMB     4        DOPC     H5X      HAL2     0.900000E-01   1.00800           0
      1014 MEMB     4        DOPC     H5Y      HAL2     0.900000E-01   1.00800           0
      1015 MEMB     4        DOPC     C36      CTL2    -0.180000       12.0110           0
      1016 MEMB     4        DOPC     H6X      HAL2     0.900000E-01   1.00800           0
      1017 MEMB     4        DOPC     H6Y      HAL2     0.900000E-01   1.00800           0
      1018 MEMB     4        DOPC     C37      CTL2    -0.180000       12.0110           0
      1019 MEMB     4        DOPC     H7X      HAL2     0.900000E-01   1.00800           0
      1020 MEMB     4        DOPC     H7Y      HAL2     0.900000E-01   1.00800           0
      1021 MEMB     4        DOPC     C38      CTL2    -0.180000       12.0110           0
      1022 MEMB     4        DOPC     H8X      HAL2     0.900000E-01   1.00800           0
      1023 MEMB     4        DOPC     H8Y      HAL2     0.900000E-01   1.00800           0
      1024 MEMB     4        DOPC     C39      CEL1    -0.150000       12.0110           0
      1025 MEMB     4        DOPC     H9X      HEL1     0.150000       1.00800           0
      1026 MEMB     4        DOPC     C310     CEL1    -0.150000       12.0110           0
      1027 MEMB     4        DOPC     H10X     HEL1     0.150000       1.00800           0
      1028 MEMB     4        DOPC     C311     CTL2    -0.180000       12.0110           0
      1029 MEMB     4        DOPC     H11X     HAL2     0.900000E-01   1.00800           0
      1030 MEMB     4        DOPC     H11Y     HAL2     0.900000E-01   1.00800           0
      1031 MEMB     4        DOPC     C312     CTL2    -0.180000       12.0110           0
      1032 MEMB     4        DOPC     H12X     HAL2     0.900000E-01   1.00800           0
      1033 MEMB     4        DOPC     H12Y     HAL2     0.900000E-01   1.00800           0
      1034 MEMB     4        DOPC     C313     CTL2    -0.180000       12.0110           0
      1035 MEMB     4        DOPC     H13X     HAL2     0.900000E-01   1.00800           0
      1036 MEMB     4        DOPC     H13Y     HAL2     0.900000E-01   1.00800           0
      1037 MEMB     4        DOPC     C314     CTL2    -0.180000       12.0110           0
      1038 MEMB     4        DOPC     H14X     HAL2     0.900000E-01   1.00800           0
      1039 MEMB     4        DOPC     H14Y     HAL2     0.900000E-01   1.00800           0
      1040 MEMB     4        DOPC     C315     CTL2    -0.180000       12.0110           0
      1041 MEMB     4        DOPC     H15X     HAL2     0.900000E-01   1.00800           0
      1042 MEMB     4        DOPC     H15Y     HAL2     0.900000E-01   1.00800           0
      1043 MEMB     4        DOPC     C316     CTL2    -0.180000       12.0110           0
      1044 MEMB     4        DOPC     H16X     HAL2     0.900000E-01   1.00800           0
      1045 MEMB     4        DOPC     H16Y     HAL2     0.900000E-01   1.00800           0
      1046 MEMB     4        DOPC     C317     CTL2    -0.180000       12.0110           0
      1047 MEMB     4        DOPC     H17X     HAL2     0.900000E-01   1.00800           0
      1048 MEMB     4        DOPC     H17Y     HAL2     0.900000E-01   1.00800           0
      1049 MEMB     4        DOPC     C318     CTL3    -0.270000       12.0110           0
      1050 MEMB     4        DOPC     H18X     HAL3     0.900000E-01   1.00800           0
      1051 MEMB     4        DOPC     H18Y     HAL3     0.900000E-01   1.00800           0
      1052 MEMB     4        DOPC     H18Z     HAL3     0.900000E-01   1.00800           0
      1053 MEMB     5        DOPC     N        NTL     -0.600000       14.0070           0
      1054 MEMB     5        DOPC     C12      CTL2    -0.100000       12.0110           0
      1055 MEMB     5        DOPC     H12A     HL       0.250000       1.00800           0
      1056 MEMB     5        DOPC     H12B     HL       0.250000       1.00800           0
      1057 MEMB     5        DOPC     C13      CTL5    -0.350000       12.0110           0
      1058 MEMB     5        DOPC     H13A     HL       0.250000       1.00800           0
      1059 MEMB     5        DOPC     H13B     HL       0.250000       1.00800           0
      1060 MEMB     5        DOPC     H13C     HL       0.250000       1.00800           0
      1061 MEMB     5        DOPC     C14      CTL5    -0.350000       12.0110           0
      1062 MEMB     5        DOPC     H14A     HL       0.250000       1.00800           0
      1063 MEMB     5        DOPC     H14B     HL       0.250000       1.00800           0
      1064 MEMB     5        DOPC     H14C     HL       0.250000       1.00800           0
      1065 MEMB     5        DOPC     C15      CTL5    -0.350000       12.0110           0
      1066 MEMB     5        DOPC     H15A     HL       0.250000       1.00800           0
      1067 MEMB     5        DOPC     H15B     HL       0.250000       1.00800           0
      1068 MEMB     5        DOPC     H15C     HL       0.250000       1.00800           0
      1069 MEMB     5        DOPC     C11      CTL2    -0.800000E-01   12.0110           0
      1070 MEMB     5        DOPC     H11A     HAL2     0.900000E-01   1.00800           0
      1071 MEMB     5        DOPC     H11B     HAL2     0.900000E-01   1.00800           0
      1072 MEMB     5        DOPC     P        PL        1.50000       30.9740           0
      1073 MEMB     5        DOPC     O13      O2L     -0.780000       15.9994           0
      1074 MEMB     5        DOPC     O14      O2L     -0.780000       15.9994           0
      1075 MEMB     5        DOPC     O12      OSLP    -0.570000       15.9994           0
      1076 MEMB     5        DOPC     O11      OSLP    -0.570000       15.9994           0
      1077 MEMB     5        DOPC     C1       CTL2    -0.800000E-01   12.0110           0
      1078 MEMB     5        DOPC     HA       HAL2     0.900000E-01   1.00800           0
      1079 MEMB     5        DOPC     HB       HAL2     0.900000E-01   1.00800           0
      1080 MEMB     5        DOPC     C2       CTL1     0.170000       12.0110           0
      1081 MEMB     5        DOPC     HS       HAL1     0.900000E-01   1.00800           0
      1082 MEMB     5        DOPC     O21      OSL     -0.490000       15.9994           0
      1083 MEMB     5        DOPC     C21      CL       0.900000       12.0110           0
      1084 MEMB     5        DOPC     O22      OBL     -0.630000       15.9994           0
      1085 MEMB     5        DOPC     C22      CTL2    -0.220000       12.0110           0
      1086 MEMB     5        DOPC     H2R      HAL2     0.900000E-01   1.00800           0
      1087 MEMB     5        DOPC     H2S      HAL2     0.900000E-01   1.00800           0
      1088 MEMB     5        DOPC     C3       CTL2     0.800000E-01   12.0110           0
      1089 MEMB     5        DOPC     HX       HAL2     0.900000E-01   1.00800           0
      1090 MEMB     5        DOPC     HY       HAL2     0.900000E-01   1.00800           0
      1091 MEMB     5        DOPC     O31      OSL     -0.490000       15.9994           0
      1092 MEMB     5        DOPC     C31      CL       0.900000       12.0110           0
      1093 MEMB     5        DOPC     O32      OBL     -0.630000       15.9994           0
      1094 MEMB     5        DOPC     C32      CTL2    -0.220000       12.0110           0
      1095 MEMB     5        DOPC     H2X      HAL2     0.900000E-01   1.00800           0
      1096 MEMB     5        DOPC     H2Y      HAL2     0.900000E-01   1.00800           0
      1097 MEMB     5        DOPC     C23      CTL2    -0.180000       12.0110           0
      1098 MEMB     5        DOPC     H3R      HAL2     0.900000E-01   1.00800           0
      1099 MEMB     5        DOPC     H3S      HAL2     0.900000E-01   1.00800           0
      1100 MEMB     5        DOPC     C24      CTL2    -0.180000       12.0110           0
      1101 MEMB     5        DOPC     H4R      HAL2     0.900000E-01   1.00800           0
      1102 MEMB     5        DOPC     H4S      HAL2     0.900000E-01   1.00800           0
      1103 MEMB     5        DOPC     C25      CTL2    -0.180000       12.0110           0
      1104 MEMB     5        DOPC     H5R      HAL2     0.900000E-01   1.00800           0
      1105 MEMB     5        DOPC     H5S      HAL2     0.900000E-01   1.00800           0
      1106 MEMB     5        DOPC     C26      CTL2    -0.180000       12.0110           0
      1107 MEMB     5        DOPC     H6R      HAL2     0.900000E-01   1.00800           0
      1108 MEMB     5        DOPC     H6S      HAL2     0.900000E-01   1.00800           0
      1109 MEMB     5        DOPC     C27      CTL2    -0.180000       12.0110           0
      1110 MEMB     5        DOPC     H7R      HAL2     0.900000E-01   1.00800           0
      1111 MEMB     5        DOPC     H7S      HAL2     0.900000E-01   1.00800           0
      1112 MEMB     5        DOPC     C28      CTL2    -0.180000       12.0110           0
      1113 MEMB     5        DOPC     H8R      HAL2     0.900000E-01   1.00800           0
      1114 MEMB     5        DOPC     H8S      HAL2     0.900000E-01   1.00800           0
      1115 MEMB     5        DOPC     C29      CEL1    -0.150000       12.0110           0
      1116 MEMB     5        DOPC     H9R      HEL1     0.150000       1.00800           0
      1117 MEMB     5        DOPC     C210     CEL1    -0.150000       12.0110           0
      1118 MEMB     5        DOPC     H10R     HEL1     0.150000       1.00800           0
      1119 MEMB     5        DOPC     C211     CTL2    -0.180000       12.0110           0
      1120 MEMB     5        DOPC     H11R     HAL2     0.900000E-01   1.00800           0
      1121 MEMB     5        DOPC     H11S     HAL2     0.900000E-01   1.00800           0
      1122 MEMB     5        DOPC     C212     CTL2    -0.180000       12.0110           0
      1123 MEMB     5        DOPC     H12R     HAL2     0.900000E-01   1.00800           0
      1124 MEMB     5        DOPC     H12S     HAL2     0.900000E-01   1.00800           0
      1125 MEMB     5        DOPC     C213     CTL2    -0.180000       12.0110           0
      1126 MEMB     5        DOPC     H13R     HAL2     0.900000E-01   1.00800           0
      1127 MEMB     5        DOPC     H13S     HAL2     0.900000E-01   1.00800           0
      1128 MEMB     5        DOPC     C214     CTL2    -0.180000       12.0110           0
      1129 MEMB     5        DOPC     H14R     HAL2     0.900000E-01   1.00800           0
      1130 MEMB     5        DOPC     H14S     HAL2     0.900000E-01   1.00800           0
      1131 MEMB     5        DOPC     C215     CTL2    -0.180000       12.0110           0
      1132 MEMB     5        DOPC     H15R     HAL2     0.900000E-01   1.00800           0
      1133 MEMB     5        DOPC     H15S     HAL2     0.900000E-01   1.00800           0
      1134 MEMB     5        DOPC     C216     CTL2    -0.180000       12.0110           0
      1135 MEMB     5        DOPC     H16R     HAL2     0.900000E-01   1.00800           0
      1136 MEMB     5        DOPC     H16S     HAL2     0.900000E-01   1.00800           0
      1137 MEMB     5        DOPC     C217     CTL2    -0.180000       12.0110           0
      1138 MEMB     5        DOPC     H17R     HAL2     0.900000E-01   1.00800           0
      1139 MEMB     5        DOPC     H17S     HAL2     0.900000E-01   1.00800           0
      1140 MEMB     5        DOPC     C218     CTL3    -0.270000       12.0110           0
      1141 MEMB     5        DOPC     H18R     HAL3     0.900000E-01   1.00800           0
      1142 MEMB     5        DOPC     H18S     HAL3     0.900000E-01   1.00800           0
      1143 MEMB     5        DOPC     H18T     HAL3     0.900000E-01   1.00800           0
      1144 MEMB     5        DOPC     C33      CTL2    -0.180000       12.0110           0
      1145 MEMB     5        DOPC     H3X      HAL2     0.900000E-01   1.00800           0
      1146 MEMB     5        DOPC     H3Y      HAL2     0.900000E-01   1.00800           0
      1147 MEMB     5        DOPC     C34      CTL2    -0.180000       12.0110           0
      1148 MEMB     5        DOPC     H4X      HAL2     0.900000E-01   1.00800           0
      1149 MEMB     5        DOPC     H4Y      HAL2     0.900000E-01   1.00800           0
      1150 MEMB     5        DOPC     C35      CTL2    -0.180000       12.0110           0
      1151 MEMB     5        DOPC     H5X      HAL2     0.900000E-01   1.00800           0
      1152 MEMB     5        DOPC     H5Y      HAL2     0.900000E-01   1.00800           0
      1153 MEMB     5        DOPC     C36      CTL2    -0.180000       12.0110           0
      1154 MEMB     5        DOPC     H6X      HAL2     0.900000E-01   1.00800           0
      1155 MEMB     5        DOPC     H6Y      HAL2     0.900000E-01   1.00800           0
      1156 MEMB     5        DOPC     C37      CTL2    -0.180000       12.0110           0
      1157 MEMB     5        DOPC     H7X      HAL2     0.900000E-01   1.00800           0
      1158 MEMB     5        DOPC     H7Y      HAL2     0.900000E-01   1.00800           0
      1159 MEMB     5        DOPC     C38      CTL2    -0.180000       12.0110           0
      1160 MEMB     5        DOPC     H8X      HAL2     0.900000E-01   1.00800           0
      1161 MEMB     5        DOPC     H8Y      HAL2     0.900000E-01   1.00800           0
      1162 MEMB     5        DOPC     C39      CEL1    -0.150000       12.0110           0
      1163 MEMB     5        DOPC     H9X      HEL1     0.150000       1.00800           0
      1164 MEMB     5        DOPC     C310     CEL1    -0.150000       12.0110           0
      1165 MEMB     5        DOPC     H10X     HEL1     0.150000       1.00800           0
      1166 MEMB     5        DOPC     C311     CTL2    -0.180000       12.0110           0
      1167 MEMB     5        DOPC     H11X     HAL2     0.900000E-01   1.00800           0
      1168 MEMB     5        DOPC     H11Y     HAL2     0.900000E-01   1.00800           0
      1169 MEMB     5        DOPC     C312     CTL2    -0.180000       12.0110           0
      1170 MEMB     5        DOPC     H12X     HAL2     0.900000E-01   1.00800           0
      1171 MEMB     5        DOPC     H12Y     HAL2     0.900000E-01   1.00800           0
      1172 MEMB     5        DOPC     C313     CTL2    -0.180000       12.0110           0
      1173 MEMB     5        DOPC     H13X     HAL2     0.900000E-01   1.00800           0
      1174 MEMB     5        DOPC     H13Y     HAL2     0.900000E-01   1.00800           0
      1175 MEMB     5        DOPC     C314     CTL2    -0.180000       12.0110           0
      1176 MEMB     5        DOPC     H14X     HAL2     0.900000E-01   1.00800           0
      1177 MEMB     5        DOPC     H14Y     HAL2     0.900000E-01   1.00800           0
      1178 MEMB     5        DOPC     C315     CTL2    -0.180000       12.0110           0
      1179 MEMB     5        DOPC     H15X     HAL2     0.900000E-01   1.00800           0
      1180 MEMB     5        DOPC     H15Y     HAL2     0.900000E-01   1.00800           0
      1181 MEMB     5        DOPC     C316     CTL2    -0.180000       12.0110           0
      1182 MEMB     5        DOPC     H16X     HAL2     0.900000E-01   1.00800           0
      1183 MEMB     5        DOPC     H16Y     HAL2     0.900000E-01   1.00800           0
      1184 MEMB     5        DOPC     C317     CTL2    -0.180000       12.0110           0
      1185 MEMB     5        DOPC     H17X     HAL2     0.900000E-01   1.00800           0
      1186 MEMB     5        DOPC     H17Y     HAL2     0.900000E-01   1.00800           0
      1187 MEMB     5        DOPC     C318     CTL3    -0.270000       12.0110           0
      1188 MEMB     5        DOPC     H18X     HAL3     0.900000E-01   1.00800           0
      1189 MEMB     5        DOPC     H18Y     HAL3     0.900000E-01   1.00800           0
      1190 MEMB     5        DOPC     H18Z     HAL3     0.900000E-01   1.00800           0
      1191 MEMB     6        DOPC     N        NTL     -0.600000       14.0070           0
      1192 MEMB     6        DOPC     C12      CTL2    -0.100000       12.0110           0
      1193 MEMB     6        DOPC     H12A     HL       0.250000       1.00800           0
      1194 MEMB     6        DOPC     H12B     HL       0.250000       1.00800           0
      1195 MEMB     6        DOPC     C13      CTL5    -0.350000       12.0110           0
      1196 MEMB     6        DOPC     H13A     HL       0.250000       1.00800           0
      1197 MEMB     6        DOPC     H13B     HL       0.250000       1.00800           0
      1198 MEMB     6        DOPC     H13C     HL       0.250000       1.00800           0
      1199 MEMB     6        DOPC     C14      CTL5    -0.350000       12.0110           0
      1200 MEMB     6        DOPC     H14A     HL       0.250000       1.00800           0
      1201 MEMB     6        DOPC     H14B     HL       0.250000       1.00800           0
      1202 MEMB     6        DOPC     H14C     HL       0.250000       1.00800           0
      1203 MEMB     6        DOPC     C15      CTL5    -0.350000       12.0110           0
      1204 MEMB     6        DOPC     H15A     HL       0.250000       1.00800           0
      1205 MEMB     6        DOPC     H15B     HL       0.250000       1.00800           0
      1206 MEMB     6        DOPC     H15C     HL       0.250000       1.00800           0
      1207 MEMB     6        DOPC     C11      CTL2    -0.800000E-01   12.0110           0
      1208 MEMB     6        DOPC     H11A     HAL2     0.900000E-01   1.00800           0
      1209 MEMB     6        DOPC     H11B     HAL2     0.900000E-01   1.00800           0
      1210 MEMB     6        DOPC     P        PL        1.50000       30.9740           0
      1211 MEMB     6        DOPC     O13      O2L     -0.780000       15.9994           0
      1212 MEMB     6        DOPC     O14      O2L     -0.780000       15.9994           0
      1213 MEMB     6        DOPC     O12      OSLP    -0.570000       15.9994           0
      1214 MEMB     6        DOPC     O11      OSLP    -0.570000       15.9994           0
      1215 MEMB     6        DOPC     C1       CTL2    -0.800000E-01   12.0110           0
      1216 MEMB     6        DOPC     HA       HAL2     0.900000E-01   1.00800           0
      1217 MEMB     6        DOPC     HB       HAL2     0.900000E-01   1.00800           0
      1218 MEMB     6        DOPC     C2       CTL1     0.170000       12.0110           0
      1219 MEMB     6        DOPC     HS       HAL1     0.900000E-01   1.00800           0
      1220 MEMB     6        DOPC     O21      OSL     -0.490000       15.9994           0
      1221 MEMB     6        DOPC     C21      CL       0.900000       12.0110           0
      1222 MEMB     6        DOPC     O22      OBL     -0.630000       15.9994           0
      1223 MEMB     6        DOPC     C22      CTL2    -0.220000       12.0110           0
      1224 MEMB     6        DOPC     H2R      HAL2     0.900000E-01   1.00800           0
      1225 MEMB     6        DOPC     H2S      HAL2     0.900000E-01   1.00800           0
      1226 MEMB     6        DOPC     C3       CTL2     0.800000E-01   12.0110           0
      1227 MEMB     6        DOPC     HX       HAL2     0.900000E-01   1.00800           0
      1228 MEMB     6        DOPC     HY       HAL2     0.900000E-01   1.00800           0
      1229 MEMB     6        DOPC     O31      OSL     -0.490000       15.9994           0
      1230 MEMB     6        DOPC     C31      CL       0.900000       12.0110           0
      1231 MEMB     6        DOPC     O32      OBL     -0.630000       15.9994           0
      1232 MEMB     6        DOPC     C32      CTL2    -0.220000       12.0110           0
      1233 MEMB     6        DOPC     H2X      HAL2     0.900000E-01   1.00800           0
      1234 MEMB     6        DOPC     H2Y      HAL2     0.900000E-01   1.00800           0
      1235 MEMB     6        DOPC     C23      CTL2    -0.180000       12.0110           0
      1236 MEMB     6        DOPC     H3R      HAL2     0.900000E-01   1.00800           0
      1237 MEMB     6        DOPC     H3S      HAL2     0.900000E-01   1.00800           0
      1238 MEMB     6        DOPC     C24      CTL2    -0.180000       12.0110           0
      1239 MEMB     6        DOPC     H4R      HAL2     0.900000E-01   1.00800           0
      1240 MEMB     6        DOPC     H4S      HAL2     0.900000E-01   1.00800           0
      1241 MEMB     6        DOPC     C25      CTL2    -0.180000       12.0110           0
      1242 MEMB     6        DOPC     H5R      HAL2     0.900000E-01   1.00800           0
      1243 MEMB     6        DOPC     H5S      HAL2     0.900000E-01   1.00800           0
      1244 MEMB     6        DOPC     C26      CTL2    -0.180000       12.0110           0
      1245 MEMB     6        DOPC     H6R      HAL2     0.900000E-01   1.00800           0
      1246 MEMB     6        DOPC     H6S      HAL2     0.900000E-01   1.00800           0
      1247 MEMB     6        DOPC     C27      CTL2    -0.180000       12.0110           0
      1248 MEMB     6        DOPC     H7R      HAL2     0.900000E-01   1.00800           0
      1249 MEMB     6        DOPC     H7S      HAL2     0.900000E-01   1.00800           0
      1250 MEMB     6        DOPC     C28      CTL2    -0.180000       12.0110           0
      1251 MEMB     6        DOPC     H8R      HAL2     0.900000E-01   1.00800           0
      1252 MEMB     6        DOPC     H8S      HAL2     0.900000E-01   1.00800           0
      1253 MEMB     6        DOPC     C29      CEL1    -0.150000       12.0110           0
      1254 MEMB     6        DOPC     H9R      HEL1     0.150000       1.00800           0
      1255 MEMB     6        DOPC     C210     CEL1    -0.150000       12.0110           0
      1256 MEMB     6        DOPC     H10R     HEL1     0.150000       1.00800           0
      1257 MEMB     6        DOPC     C211     CTL2    -0.180000       12.0110           0
      1258 MEMB     6        DOPC     H11R     HAL2     0.900000E-01   1.00800           0
      1259 MEMB     6        DOPC     H11S     HAL2     0.900000E-01   1.00800           0
      1260 MEMB     6        DOPC     C212     CTL2    -0.180000       12.0110           0
      1261 MEMB     6        DOPC     H12R     HAL2     0.900000E-01   1.00800           0
      1262 MEMB     6        DOPC     H12S     HAL2     0.900000E-01   1.00800           0
      1263 MEMB     6        DOPC     C213     CTL2    -0.180000       12.0110           0
      1264 MEMB     6        DOPC     H13R     HAL2     0.900000E-01   1.00800           0
      1265 MEMB     6        DOPC     H13S     HAL2     0.900000E-01   1.00800           0
      1266 MEMB     6        DOPC     C214     CTL2    -0.180000       12.0110           0
      1267 MEMB     6        DOPC     H14R     HAL2     0.900000E-01   1.00800           0
      1268 MEMB     6        DOPC     H14S     HAL2     0.900000E-01   1.00800           0
      1269 MEMB     6        DOPC     C215     CTL2    -0.180000       12.0110           0
      1270 MEMB     6        DOPC     H15R     HAL2     0.900000E-01   1.00800           0
      1271 MEMB     6        DOPC     H15S     HAL2     0.900000E-01   1.00800           0
      1272 MEMB     6        DOPC     C216     CTL2    -0.180000       12.0110           0
      1273 MEMB     6        DOPC     H16R     HAL2     0.900000E-01   1.00800           0
      1274 MEMB     6        DOPC     H16S     HAL2     0.900000E-01   1.00800           0
      1275 MEMB     6        DOPC     C217     CTL2    -0.180000       12.0110           0
      1276 MEMB     6        DOPC     H17R     HAL2     0.900000E-01   1.00800           0
      1277 MEMB     6        DOPC     H17S     HAL2     0.900000E-01   1.00800           0
      1278 MEMB     6        DOPC     C218     CTL3    -0.270000       12.0110           0
      1279 MEMB     6        DOPC     H18R     HAL3     0.900000E-01   1.00800           0
      1280 MEMB     6        DOPC     H18S     HAL3     0.900000E-01   1.00800           0
      1281 MEMB     6        DOPC     H18T     HAL3     0.900000E-01   1.00800           0
      1282 MEMB     6        DOPC     C33      CTL2    -0.180000       12.0110           0
      1283 MEMB     6        DOPC     H3X      HAL2     0.900000E-01   1.00800           0
      1284 MEMB     6        DOPC     H3Y      HAL2     0.900000E-01   1.00800           0
      1285 MEMB     6        DOPC     C34      CTL2    -0.180000       12.0110           0
      1286 MEMB     6        DOPC     H4X      HAL2     0.900000E-01   1.00800           0
      1287 MEMB     6        DOPC     H4Y      HAL2     0.900000E-01   1.00800           0
      1288 MEMB     6        DOPC     C35      CTL2    -0.180000       12.0110           0
      1289 MEMB     6        DOPC     H5X      HAL2     0.900000E-01   1.00800           0
      1290 MEMB     6        DOPC     H5Y      HAL2     0.900000E-01   1.00800           0
      1291 MEMB     6        DOPC     C36      CTL2    -0.180000       12.0110           0
      1292 MEMB     6        DOPC     H6X      HAL2     0.900000E-01   1.00800           0
      1293 MEMB     6        DOPC     H6Y      HAL2     0.900000E-01   1.00800           0
      1294 MEMB     6        DOPC     C37      CTL2    -0.180000       12.0110           0
      1295 MEMB     6        DOPC     H7X      HAL2     0.900000E-01   1.00800           0
      1296 MEMB     6        DOPC     H7Y      HAL2     0.900000E-01   1.00800           0
      1297 MEMB     6        DOPC     C38      CTL2    -0.180000       12.0110           0
      1298 MEMB     6        DOPC     H8X      HAL2     0.900000E-01   1.00800           0
      1299 MEMB     6        DOPC     H8Y      HAL2     0.900000E-01   1.00800           0
      1300 MEMB     6        DOPC     C39      CEL1    -0.150000       12.0110           0
      1301 MEMB     6        DOPC     H9X      HEL1     0.150000       1.00800           0
      1302 MEMB     6        DOPC     C310     CEL1    -0.150000       12.0110           0
      1303 MEMB     6        DOPC     H10X     HEL1     0.150000       1.00800           0
      1304 MEMB     6        DOPC     C311     CTL2    -0.180000       12.0110           0
      1305 MEMB     6        DOPC     H11X     HAL2     0.900000E-01   1.00800           0
      1306 MEMB     6        DOPC     H11Y     HAL2     0.900000E-01   1.00800           0
      1307 MEMB     6        DOPC     C312     CTL2    -0.180000       12.0110           0
      1308 MEMB     6        DOPC     H12X     HAL2     0.900000E-01   1.00800           0
      1309 MEMB     6        DOPC     H12Y     HAL2     0.900000E-01   1.00800           0
      1310 MEMB     6        DOPC     C313     CTL2    -0.180000       12.0110           0
      1311 MEMB     6        DOPC     H13X     HAL2     0.900000E-01   1.00800           0
      1312 MEMB     6        DOPC     H13Y     HAL2     0.900000E-01   1.00800           0
      1313 MEMB     6        DOPC     C314     CTL2    -0.180000       12.0110           0
      1314 MEMB     6        DOPC     H14X     HAL2     0.900000E-01   1.00800           0
      1315 MEMB     6        DOPC     H14Y     HAL2     0.900000E-01   1.00800           0
      1316 MEMB     6        DOPC     C315     CTL2    -0.180000       12.0110           0
      1317 MEMB     6        DOPC     H15X     HAL2     0.900000E-01   1.00800           0
      1318 MEMB     6        DOPC     H15Y     HAL2     0.900000E-01   1.00800           0
      1319 MEMB     6        DOPC     C316     CTL2    -0.180000       12.0110           0
      1320 MEMB     6        DOPC     H16X     HAL2     0.900000E-01   1.00800           0
      1321 MEMB     6        DOPC     H16Y     HAL2     0.900000E-01   1.00800           0
      1322 MEMB     6        DOPC     C317     CTL2    -0.180000       12.0110           0
      1323 MEMB     6        DOPC     H17X     HAL2     0.900000E-01   1.00800           0
      1324 MEMB     6        DOPC     H17Y     HAL2     0.900000E-01   1.00800           0
      1325 MEMB     6        DOPC     C318     CTL3    -0.270000       12.0110           0
      1326 MEMB     6        DOPC     H18X     HAL3     0.900000E-01   1.00800           0
      1327 MEMB     6        DOPC     H18Y     HAL3     0.900000E-01   1.00800           0
      1328 MEMB     6        DOPC     H18Z     HAL3     0.900000E-01   1.00800           0
      1329 MEMB     7        DOPC     N        NTL     -0.600000       14.0070           0
      1330 MEMB     7        DOPC     C12      CTL2    -0.100000       12.0110           0
      1331 MEMB     7        DOPC     H12A     HL       0.250000       1.00800           0
      1332 MEMB     7        DOPC     H12B     HL       0.250000       1.00800           0
      1333 MEMB     7        DOPC     C13      CTL5    -0.350000       12.0110           0
      1334 MEMB     7        DOPC     H13A     HL       0.250000       1.00800           0
      1335 MEMB     7        DOPC     H13B     HL       0.250000       1.00800           0
      1336 MEMB     7        DOPC     H13C     HL       0.250000       1.00800           0
      1337 MEMB     7        DOPC     C14      CTL5    -0.350000       12.0110           0
      1338 MEMB     7        DOPC     H14A     HL       0.250000       1.00800           0
      1339 MEMB     7        DOPC     H14B     HL       0.250000       1.00800           0
      1340 MEMB     7        DOPC     H14C     HL       0.250000       1.00800           0
      1341 MEMB     7        DOPC     C15      CTL5    -0.350000       12.0110           0
      1342 MEMB     7        DOPC     H15A     HL       0.250000       1.00800           0
      1343 MEMB     7        DOPC     H15B     HL       0.250000       1.00800           0
      1344 MEMB     7        DOPC     H15C     HL       0.250000       1.00800           0
      1345 MEMB     7        DOPC     C11      CTL2    -0.800000E-01   12.0110           0
      1346 MEMB     7        DOPC     H11A     HAL2     0.900000E-01   1.00800           0
      1347 MEMB     7        DOPC     H11B     HAL2     0.900000E-01   1.00800           0
      1348 MEMB     7        DOPC     P        PL        1.50000       30.9740           0
      1349 MEMB     7        DOPC     O13      O2L     -0.780000       15.9994           0
      1350 MEMB     7        DOPC     O14      O2L     -0.780000       15.9994           0
      1351 MEMB     7        DOPC     O12      OSLP    -0.570000       15.9994           0
      1352 MEMB     7        DOPC     O11      OSLP    -0.570000       15.9994           0
      1353 MEMB     7        DOPC     C1       CTL2    -0.800000E-01   12.0110           0
      1354 MEMB     7        DOPC     HA       HAL2     0.900000E-01   1.00800           0
      1355 MEMB     7        DOPC     HB       HAL2     0.900000E-01   1.00800           0
      1356 MEMB     7        DOPC     C2       CTL1     0.170000       12.0110           0
      1357 MEMB     7        DOPC     HS       HAL1     0.900000E-01   1.00800           0
      1358 MEMB     7        DOPC     O21      OSL     -0.490000       15.9994           0
      1359 MEMB     7        DOPC     C21      CL       0.900000       12.0110           0
      1360 MEMB     7        DOPC     O22      OBL     -0.630000       15.9994           0
      1361 MEMB     7        DOPC     C22      CTL2    -0.220000       12.0110           0
      1362 MEMB     7        DOPC     H2R      HAL2     0.900000E-01   1.00800           0
      1363 MEMB     7        DOPC     H2S      HAL2     0.900000E-01   1.00800           0
      1364 MEMB     7        DOPC     C3       CTL2     0.800000E-01   12.0110           0
      1365 MEMB     7        DOPC     HX       HAL2     0.900000E-01   1.00800           0
      1366 MEMB     7        DOPC     HY       HAL2     0.900000E-01   1.00800           0
      1367 MEMB     7        DOPC     O31      OSL     -0.490000       15.9994           0
      1368 MEMB     7        DOPC     C31      CL       0.900000       12.0110           0
      1369 MEMB     7        DOPC     O32      OBL     -0.630000       15.9994           0
      1370 MEMB     7        DOPC     C32      CTL2    -0.220000       12.0110           0
      1371 MEMB     7        DOPC     H2X      HAL2     0.900000E-01   1.00800           0
      1372 MEMB     7        DOPC     H2Y      HAL2     0.900000E-01   1.00800           0
      1373 MEMB     7        DOPC     C23      CTL2    -0.180000       12.0110           0
      1374 MEMB     7        DOPC     H3R      HAL2     0.900000E-01   1.00800           0
      1375 MEMB     7        DOPC     H3S      HAL2     0.900000E-01   1.00800           0
      1376 MEMB     7        DOPC     C24      CTL2    -0.180000       12.0110           0
      1377 MEMB     7        DOPC     H4R      HAL2     0.900000E-01   1.00800           0
      1378 MEMB     7        DOPC     H4S      HAL2     0.900000E-01   1.00800           0
      1379 MEMB     7        DOPC     C25      CTL2    -0.180000       12.0110           0
      1380 MEMB     7        DOPC     H5R      HAL2     0.900000E-01   1.00800           0
      1381 MEMB     7        DOPC     H5S      HAL2     0.900000E-01   1.00800           0
      1382 MEMB     7        DOPC     C26      CTL2    -0.180000       12.0110           0
      1383 MEMB     7        DOPC     H6R      HAL2     0.900000E-01   1.00800           0
      1384 MEMB     7        DOPC     H6S      HAL2     0.900000E-01   1.00800           0
      1385 MEMB     7        DOPC     C27      CTL2    -0.180000       12.0110           0
      1386 MEMB     7        DOPC     H7R      HAL2     0.900000E-01   1.00800           0
      1387 MEMB     7        DOPC     H7S      HAL2     0.900000E-01   1.00800           0
      1388 MEMB     7        DOPC     C28      CTL2    -0.180000       12.0110           0
      1389 MEMB     7        DOPC     H8R      HAL2     0.900000E-01   1.00800           0
      1390 MEMB     7        DOPC     H8S      HAL2     0.900000E-01   1.00800           0
      1391 MEMB     7        DOPC     C29      CEL1    -0.150000       12.0110           0
      1392 MEMB     7        DOPC     H9R      HEL1     0.150000       1.00800           0
      1393 MEMB     7        DOPC     C210     CEL1    -0.150000       12.0110           0
      1394 MEMB     7        DOPC     H10R     HEL1     0.150000       1.00800           0
      1395 MEMB     7        DOPC     C211     CTL2    -0.180000       12.0110           0
      1396 MEMB     7        DOPC     H11R     HAL2     0.900000E-01   1.00800           0
      1397 MEMB     7        DOPC     H11S     HAL2     0.900000E-01   1.00800           0
      1398 MEMB     7        DOPC     C212     CTL2    -0.180000       12.0110           0
      1399 MEMB     7        DOPC     H12R     HAL2     0.900000E-01   1.00800           0
      1400 MEMB     7        DOPC     H12S     HAL2     0.900000E-01   1.00800           0
      1401 MEMB     7        DOPC     C213     CTL2    -0.180000       12.0110           0
      1402 MEMB     7        DOPC     H13R     HAL2     0.900000E-01   1.00800           0
      1403 MEMB     7        DOPC     H13S     HAL2     0.900000E-01   1.00800           0
      1404 MEMB     7        DOPC     C214     CTL2    -0.180000       12.0110           0
      1405 MEMB     7        DOPC     H14R     HAL2     0.900000E-01   1.00800           0
      1406 MEMB     7        DOPC     H14S     HAL2     0.900000E-01   1.00800           0
      1407 MEMB     7        DOPC     C215     CTL2    -0.180000       12.0110           0
      1408 MEMB     7        DOPC     H15R     HAL2     0.900000E-01   1.00800           0
      1409 MEMB     7        DOPC     H15S     HAL2     0.900000E-01   1.00800           0
      1410 MEMB     7        DOPC     C216     CTL2    -0.180000       12.0110           0
      1411 MEMB     7        DOPC     H16R     HAL2     0.900000E-01   1.00800           0
      1412 MEMB     7        DOPC     H16S     HAL2     0.900000E-01   1.00800           0
      1413 MEMB     7        DOPC     C217     CTL2    -0.180000       12.0110           0
      1414 MEMB     7        DOPC     H17R     HAL2     0.900000E-01   1.00800           0
      1415 MEMB     7        DOPC     H17S     HAL2     0.900000E-01   1.00800           0
      1416 MEMB     7        DOPC     C218     CTL3    -0.270000       12.0110           0
      1417 MEMB     7        DOPC     H18R     HAL3     0.900000E-01   1.00800           0
      1418 MEMB     7        DOPC     H18S     HAL3     0.900000E-01   1.00800           0
      1419 MEMB     7        DOPC     H18T     HAL3     0.900000E-01   1.00800           0
      1420 MEMB     7        DOPC     C33      CTL2    -0.180000       12.0110           0
      1421 MEMB     7        DOPC     H3X      HAL2     0.900000E-01   1.00800           0
      1422 MEMB     7        DOPC     H3Y      HAL2     0.900000E-01   1.00800           0
      1423 MEMB     7        DOPC     C34      CTL2    -0.180000       12.0110           0
      1424 MEMB     7        DOPC     H4X      HAL2     0.900000E-01   1.00800           0
      1425 MEMB     7        DOPC     H4Y      HAL2     0.900000E-01   1.00800           0
      1426 MEMB     7        DOPC     C35      CTL2    -0.180000       12.0110           0
      1427 MEMB     7        DOPC     H5X      HAL2     0.900000E-01   1.00800           0
      1428 MEMB     7        DOPC     H5Y      HAL2     0.900000E-01   1.00800           0
      1429 MEMB     7        DOPC     C36      CTL2    -0.180000       12.0110           0
      1430 MEMB     7        DOPC     H6X      HAL2     0.900000E-01   1.00800           0
      1431 MEMB     7        DOPC     H6Y      HAL2     0.900000E-01   1.00800           0
      1432 MEMB     7        DOPC     C37      CTL2    -0.180000       12.0110           0
      1433 MEMB     7        DOPC     H7X      HAL2     0.900000E-01   1.00800           0
      1434 MEMB     7        DOPC     H7Y      HAL2     0.900000E-01   1.00800           0
      1435 MEMB     7        DOPC     C38      CTL2    -0.180000       12.0110           0
      1436 MEMB     7        DOPC     H8X      HAL2     0.900000E-01   1.00800           0
      1437 MEMB     7        DOPC     H8Y      HAL2     0.900000E-01   1.00800           0
      1438 MEMB     7        DOPC     C39      CEL1    -0.150000       12.0110           0
      1439 MEMB     7        DOPC     H9X      HEL1     0.150000       1.00800           0
      1440 MEMB     7        DOPC     C310     CEL1    -0.150000       12.0110           0
      1441 MEMB     7        DOPC     H10X     HEL1     0.150000       1.00800           0
      1442 MEMB     7        DOPC     C311     CTL2    -0.180000       12.0110           0
      1443 MEMB     7        DOPC     H11X     HAL2     0.900000E-01   1.00800           0
      1444 MEMB     7        DOPC     H11Y     HAL2     0.900000E-01   1.00800           0
      1445 MEMB     7        DOPC     C312     CTL2    -0.180000       12.0110           0
      1446 MEMB     7        DOPC     H12X     HAL2     0.900000E-01   1.00800           0
      1447 MEMB     7        DOPC     H12Y     HAL2     0.900000E-01   1.00800           0
      1448 MEMB     7        DOPC     C313     CTL2    -0.180000       12.0110           0
      1449 MEMB     7        DOPC     H13X     HAL2     0.900000E-01   1.00800           0
      1450 MEMB     7        DOPC     H13Y     HAL2     0.900000E-01   1.00800           0
      1451 MEMB     7        DOPC     C314     CTL2    -0.180000       12.0110           0
      1452 MEMB     7        DOPC     H14X     HAL2     0.900000E-01   1.00800           0
      1453 MEMB     7        DOPC     H14Y     HAL2     0.900000E-01   1.00800           0
      1454 MEMB     7        DOPC     C315     CTL2    -0.180000       12.0110           0
      1455 MEMB     7        DOPC     H15X     HAL2     0.900000E-01   1.00800           0
      1456 MEMB     7        DOPC     H15Y     HAL2     0.900000E-01   1.00800           0
      1457 MEMB     7        DOPC     C316     CTL2    -0.180000       12.0110           0
      1458 MEMB     7        DOPC     H16X     HAL2     0.900000E-01   1.00800           0
      1459 MEMB     7        DOPC     H16Y     HAL2     0.900000E-01   1.00800           0
      1460 MEMB     7        DOPC     C317     CTL2    -0.180000       12.0110           0
      1461 MEMB     7        DOPC     H17X     HAL2     0.900000E-01   1.00800           0
      1462 MEMB     7        DOPC     H17Y     HAL2     0.900000E-01   1.00800           0
      1463 MEMB     7        DOPC     C318     CTL3    -0.270000       12.0110           0
      1464 MEMB     7        DOPC     H18X     HAL3     0.900000E-01   1.00800           0
      1465 MEMB     7        DOPC     H18Y     HAL3     0.900000E-01   1.00800           0
      1466 MEMB     7        DOPC     H18Z     HAL3     0.900000E-01   1.00800           0
      1467 MEMB     8        DOPC     N        NTL     -0.600000       14.0070           0
      1468 MEMB     8        DOPC     C12      CTL2    -0.100000       12.0110           0
      1469 MEMB     8        DOPC     H12A     HL       0.250000       1.00800           0
      1470 MEMB     8        DOPC     H12B     HL       0.250000       1.00800           0
      1471 MEMB     8        DOPC     C13      CTL5    -0.350000       12.0110           0
      1472 MEMB     8        DOPC     H13A     HL       0.250000       1.00800           0
      1473 MEMB     8        DOPC     H13B     HL       0.250000       1.00800           0
      1474 MEMB     8        DOPC     H13C     HL       0.250000       1.00800           0
      1475 MEMB     8        DOPC     C14      CTL5    -0.350000       12.0110           0
      1476 MEMB     8        DOPC     H14A     HL       0.250000       1.00800           0
      1477 MEMB     8        DOPC     H14B     HL       0.250000       1.00800           0
      1478 MEMB     8        DOPC     H14C     HL       0.250000       1.00800           0
      1479 MEMB     8        DOPC     C15      CTL5    -0.350000       12.0110           0
      1480 MEMB     8        DOPC     H15A     HL       0.250000       1.00800           0
      1481 MEMB     8        DOPC     H15B     HL       0.250000       1.00800           0
      1482 MEMB     8        DOPC     H15C     HL       0.250000       1.00800           0
      1483 MEMB     8        DOPC     C11      CTL2    -0.800000E-01   12.0110           0
      1484 MEMB     8        DOPC     H11A     HAL2     0.900000E-01   1.00800           0
      1485 MEMB     8        DOPC     H11B     HAL2     0.900000E-01   1.00800           0
      1486 MEMB     8        DOPC     P        PL        1.50000       30.9740           0
      1487 MEMB     8        DOPC     O13      O2L     -0.780000       15.9994           0
      1488 MEMB     8        DOPC     O14      O2L     -0.780000       15.9994           0
      1489 MEMB     8        DOPC     O12      OSLP    -0.570000       15.9994           0
      1490 MEMB     8        DOPC     O11      OSLP    -0.570000       15.9994           0
      1491 MEMB     8        DOPC     C1       CTL2    -0.800000E-01   12.0110           0
      1492 MEMB     8        DOPC     HA       HAL2     0.900000E-01   1.00800           0
      1493 MEMB     8        DOPC     HB       HAL2     0.900000E-01   1.00800           0
      1494 MEMB     8        DOPC     C2       CTL1     0.170000       12.0110           0
      1495 MEMB     8        DOPC     HS       HAL1     0.900000E-01   1.00800           0
      1496 MEMB     8        DOPC     O21      OSL     -0.490000       15.9994           0
      1497 MEMB     8        DOPC     C21      CL       0.900000       12.0110           0
      1498 MEMB     8        DOPC     O22      OBL     -0.630000       15.9994           0
      1499 MEMB     8        DOPC     C22      CTL2    -0.220000       12.0110           0
      1500 MEMB     8        DOPC     H2R      HAL2     0.900000E-01   1.00800           0
      1501 MEMB     8        DOPC     H2S      HAL2     0.900000E-01   1.00800           0
      1502 MEMB     8        DOPC     C3       CTL2     0.800000E-01   12.0110           0
      1503 MEMB     8        DOPC     HX       HAL2     0.900000E-01   1.00800           0
      1504 MEMB     8        DOPC     HY       HAL2     0.900000E-01   1.00800           0
      1505 MEMB     8        DOPC     O31      OSL     -0.490000       15.9994           0
      1506 MEMB     8        DOPC     C31      CL       0.900000       12.0110           0
      1507 MEMB     8        DOPC     O32      OBL     -0.630000       15.9994           0
      1508 MEMB     8        DOPC     C32      CTL2    -0.220000       12.0110           0
      1509 MEMB     8        DOPC     H2X      HAL2     0.900000E-01   1.00800           0
      1510 MEMB     8        DOPC     H2Y      HAL2     0.900000E-01   1.00800           0
      1511 MEMB     8        DOPC     C23      CTL2    -0.180000       12.0110           0
      1512 MEMB     8        DOPC     H3R      HAL2     0.900000E-01   1.00800           0
      1513 MEMB     8        DOPC     H3S      HAL2     0.900000E-01   1.00800           0
      1514 MEMB     8        DOPC     C24      CTL2    -0.180000       12.0110           0
      1515 MEMB     8        DOPC     H4R      HAL2     0.900000E-01   1.00800           0
      1516 MEMB     8        DOPC     H4S      HAL2     0.900000E-01   1.00800           0
      1517 MEMB     8        DOPC     C25      CTL2    -0.180000       12.0110           0
      1518 MEMB     8        DOPC     H5R      HAL2     0.900000E-01   1.00800           0
      1519 MEMB     8        DOPC     H5S      HAL2     0.900000E-01   1.00800           0
      1520 MEMB     8        DOPC     C26      CTL2    -0.180000       12.0110           0
      1521 MEMB     8        DOPC     H6R      HAL2     0.900000E-01   1.00800           0
      1522 MEMB     8        DOPC     H6S      HAL2     0.900000E-01   1.00800           0
      1523 MEMB     8        DOPC     C27      CTL2    -0.180000       12.0110           0
      1524 MEMB     8        DOPC     H7R      HAL2     0.900000E-01   1.00800           0
      1525 MEMB     8        DOPC     H7S      HAL2     0.900000E-01   1.00800           0
      1526 MEMB     8        DOPC     C28      CTL2    -0.180000       12.0110           0
      1527 MEMB     8        DOPC     H8R      HAL2     0.900000E-01   1.00800           0
      1528 MEMB     8        DOPC     H8S      HAL2     0.900000E-01   1.00800           0
      1529 MEMB     8        DOPC     C29      CEL1    -0.150000       12.0110           0
      1530 MEMB     8        DOPC     H9R      HEL1     0.150000       1.00800           0
      1531 MEMB     8        DOPC     C210     CEL1    -0.150000       12.0110           0
      1532 MEMB     8        DOPC     H10R     HEL1     0.150000       1.00800           0
      1533 MEMB     8        DOPC     C211     CTL2    -0.180000       12.0110           0
      1534 MEMB     8        DOPC     H11R     HAL2     0.900000E-01   1.00800           0
      1535 MEMB     8        DOPC     H11S     HAL2     0.900000E-01   1.00800           0
      1536 MEMB     8        DOPC     C212     CTL2    -0.180000       12.0110           0
      1537 MEMB     8        DOPC     H12R     HAL2     0.900000E-01   1.00800           0
      1538 MEMB     8        DOPC     H12S     HAL2     0.900000E-01   1.00800           0
      1539 MEMB     8        DOPC     C213     CTL2    -0.180000       12.0110           0
      1540 MEMB     8        DOPC     H13R     HAL2     0.900000E-01   1.00800           0
      1541 MEMB     8        DOPC     H13S     HAL2     0.900000E-01   1.00800           0
      1542 MEMB     8        DOPC     C214     CTL2    -0.180000       12.0110           0
      1543 MEMB     8        DOPC     H14R     HAL2     0.900000E-01   1.00800           0
      1544 MEMB     8        DOPC     H14S     HAL2     0.900000E-01   1.00800           0
      1545 MEMB     8        DOPC     C215     CTL2    -0.180000       12.0110           0
      1546 MEMB     8        DOPC     H15R     HAL2     0.900000E-01   1.00800           0
      1547 MEMB     8        DOPC     H15S     HAL2     0.900000E-01   1.00800           0
      1548 MEMB     8        DOPC     C216     CTL2    -0.180000       12.0110           0
      1549 MEMB     8        DOPC     H16R     HAL2     0.900000E-01   1.00800           0
      1550 MEMB     8        DOPC     H16S     HAL2     0.900000E-01   1.00800           0
      1551 MEMB     8        DOPC     C217     CTL2    -0.180000       12.0110           0
      1552 MEMB     8        DOPC     H17R     HAL2     0.900000E-01   1.00800           0
      1553 MEMB     8        DOPC     H17S     HAL2     0.900000E-01   1.00800           0
      1554 MEMB     8        DOPC     C218     CTL3    -0.270000       12.0110           0
      1555 MEMB     8        DOPC     H18R     HAL3     0.900000E-01   1.00800           0
      1556 MEMB     8        DOPC     H18S     HAL3     0.900000E-01   1.00800           0
      1557 MEMB     8        DOPC     H18T     HAL3     0.900000E-01   1.00800           0
      1558 MEMB     8        DOPC     C33      CTL2    -0.180000       12.0110           0
      1559 MEMB     8        DOPC     H3X      HAL2     0.900000E-01   1.00800           0
      1560 MEMB     8        DOPC     H3Y      HAL2     0.900000E-01   1.00800           0
      1561 MEMB     8        DOPC     C34      CTL2    -0.180000       12.0110           0
      1562 MEMB     8        DOPC     H4X      HAL2     0.900000E-01   1.00800           0
      1563 MEMB     8        DOPC     H4Y      HAL2     0.900000E-01   1.00800           0
      1564 MEMB     8        DOPC     C35      CTL2    -0.180000       12.0110           0
      1565 MEMB     8        DOPC     H5X      HAL2     0.900000E-01   1.00800           0
      1566 MEMB     8        DOPC     H5Y      HAL2     0.900000E-01   1.00800           0
      1567 MEMB     8        DOPC     C36      CTL2    -0.180000       12.0110           0
      1568 MEMB     8        DOPC     H6X      HAL2     0.900000E-01   1.00800           0
      1569 MEMB     8        DOPC     H6Y      HAL2     0.900000E-01   1.00800           0
      1570 MEMB     8        DOPC     C37      CTL2    -0.180000       12.0110           0
      1571 MEMB     8        DOPC     H7X      HAL2     0.900000E-01   1.00800           0
      1572 MEMB     8        DOPC     H7Y      HAL2     0.900000E-01   1.00800           0
      1573 MEMB     8        DOPC     C38      CTL2    -0.180000       12.0110           0
      1574 MEMB     8        DOPC     H8X      HAL2     0.900000E-01   1.00800           0
      1575 MEMB     8        DOPC     H8Y      HAL2     0.900000E-01   1.00800           0
      1576 MEMB     8        DOPC     C39      CEL1    -0.150000       12.0110           0
      1577 MEMB     8        DOPC     H9X      HEL1     0.150000       1.00800           0
      1578 MEMB     8        DOPC     C310     CEL1    -0.150000       12.0110           0
      1579 MEMB     8        DOPC     H10X     HEL1     0.150000       1.00800           0
      1580 MEMB     8        DOPC     C311     CTL2    -0.180000       12.0110           0
      1581 MEMB     8        DOPC     H11X     HAL2     0.900000E-01   1.00800           0
      1582 MEMB     8        DOPC     H11Y     HAL2     0.900000E-01   1.00800           0
      1583 MEMB     8        DOPC     C312     CTL2    -0.180000       12.0110           0
      1584 MEMB     8        DOPC     H12X     HAL2     0.900000E-01   1.00800           0
      1585 MEMB     8        DOPC     H12Y     HAL2     0.900000E-01   1.00800           0
      1586 MEMB     8        DOPC     C313     CTL2    -0.180000       12.0110           0
      1587 MEMB     8        DOPC     H13X     HAL2     0.900000E-01   1.00800           0
      1588 MEMB     8        DOPC     H13Y     HAL2     0.900000E-01   1.00800           0
      1589 MEMB     8        DOPC     C314     CTL2    -0.180000       12.0110           0
      1590 MEMB     8        DOPC     H14X     HAL2     0.900000E-01   1.00800           0
      1591 MEMB     8        DOPC     H14Y     HAL2     0.900000E-01   1.00800           0
      1592 MEMB     8        DOPC     C315     CTL2    -0.180000       12.0110           0
      1593 MEMB     8        DOPC     H15X     HAL2     0.900000E-01   1.00800           0
      1594 MEMB     8        DOPC     H15Y     HAL2     0.900000E-01   1.00800           0
      1595 MEMB     8        DOPC     C316     CTL2    -0.180000       12.0110           0
      1596 MEMB     8        DOPC     H16X     HAL2     0.900000E-01   1.00800           0
      1597 MEMB     8        DOPC     H16Y     HAL2     0.900000E-01   1.00800           0
      1598 MEMB     8        DOPC     C317     CTL2    -0.180000       12.0110           0
      1599 MEMB     8        DOPC     H17X     HAL2     0.900000E-01   1.00800           0
      1600 MEMB     8        DOPC     H17Y     HAL2     0.900000E-01   1.00800           0
      1601 MEMB     8        DOPC     C318     CTL3    -0.270000       12.0110           0
      1602 MEMB     8        DOPC     H18X     HAL3     0.900000E-01   1.00800           0
      1603 MEMB     8        DOPC     H18Y     HAL3     0.900000E-01   1.00800           0
      1604 MEMB     8        DOPC     H18Z     HAL3     0.900000E-01   1.00800           0
      1605 MEMB     9        DOPC     N        NTL     -0.600000       14.0070           0
      1606 MEMB     9        DOPC     C12      CTL2    -0.100000       12.0110           0
      1607 MEMB     9        DOPC     H12A     HL       0.250000       1.00800           0
      1608 MEMB     9        DOPC     H12B     HL       0.250000       1.00800           0
      1609 MEMB     9        DOPC     C13      CTL5    -0.350000       12.0110           0
      1610 MEMB     9        DOPC     H13A     HL       0.250000       1.00800           0
      1611 MEMB     9        DOPC     H13B     HL       0.250000       1.00800           0
      1612 MEMB     9        DOPC     H13C     HL       0.250000       1.00800           0
      1613 MEMB     9        DOPC     C14      CTL5    -0.350000       12.0110           0
      1614 MEMB     9        DOPC     H14A     HL       0.250000       1.00800           0
      1615 MEMB     9        DOPC     H14B     HL       0.250000       1.00800           0
      1616 MEMB     9        DOPC     H14C     HL       0.250000       1.00800           0
      1617 MEMB     9        DOPC     C15      CTL5    -0.350000       12.0110           0
      1618 MEMB     9        DOPC     H15A     HL       0.250000       1.00800           0
      1619 MEMB     9        DOPC     H15B     HL       0.250000       1.00800           0
      1620 MEMB     9        DOPC     H15C     HL       0.250000       1.00800           0
      1621 MEMB     9        DOPC     C11      CTL2    -0.800000E-01   12.0110           0
      1622 MEMB     9        DOPC     H11A     HAL2     0.900000E-01   1.00800           0
      1623 MEMB     9        DOPC     H11B     HAL2     0.900000E-01   1.00800           0
      1624 MEMB     9        DOPC     P        PL        1.50000       30.9740           0
      1625 MEMB     9        DOPC     O13      O2L     -0.780000       15.9994           0
      1626 MEMB     9        DOPC     O14      O2L     -0.780000       15.9994           0
      1627 MEMB     9        DOPC     O12      OSLP    -0.570000       15.9994           0
      1628 MEMB     9        DOPC     O11      OSLP    -0.570000       15.9994           0
      1629 MEMB     9        DOPC     C1       CTL2    -0.800000E-01   12.0110           0
      1630 MEMB     9        DOPC     HA       HAL2     0.900000E-01   1.00800           0
      1631 MEMB     9        DOPC     HB       HAL2     0.900000E-01   1.00800           0
      1632 MEMB     9        DOPC     C2       CTL1     0.170000       12.0110           0
      1633 MEMB     9        DOPC     HS       HAL1     0.900000E-01   1.00800           0
      1634 MEMB     9        DOPC     O21      OSL     -0.490000       15.9994           0
      1635 MEMB     9        DOPC     C21      CL       0.900000       12.0110           0
      1636 MEMB     9        DOPC     O22      OBL     -0.630000       15.9994           0
      1637 MEMB     9        DOPC     C22      CTL2    -0.220000       12.0110           0
      1638 MEMB     9        DOPC     H2R      HAL2     0.900000E-01   1.00800           0
      1639 MEMB     9        DOPC     H2S      HAL2     0.900000E-01   1.00800           0
      1640 MEMB     9        DOPC     C3       CTL2     0.800000E-01   12.0110           0
      1641 MEMB     9        DOPC     HX       HAL2     0.900000E-01   1.00800           0
      1642 MEMB     9        DOPC     HY       HAL2     0.900000E-01   1.00800           0
      1643 MEMB     9        DOPC     O31      OSL     -0.490000       15.9994           0
      1644 MEMB     9        DOPC     C31      CL       0.900000       12.0110           0
      1645 MEMB     9        DOPC     O32      OBL     -0.630000       15.9994           0
      1646 MEMB     9        DOPC     C32      CTL2    -0.220000       12.0110           0
      1647 MEMB     9        DOPC     H2X      HAL2     0.900000E-01   1.00800           0
      1648 MEMB     9        DOPC     H2Y      HAL2     0.900000E-01   1.00800           0
      1649 MEMB     9        DOPC     C23      CTL2    -0.180000       12.0110           0
      1650 MEMB     9        DOPC     H3R      HAL2     0.900000E-01   1.00800           0
      1651 MEMB     9        DOPC     H3S      HAL2     0.900000E-01   1.00800           0
      1652 MEMB     9        DOPC     C24      CTL2    -0.180000       12.0110           0
      1653 MEMB     9        DOPC     H4R      HAL2     0.900000E-01   1.00800           0
      1654 MEMB     9        DOPC     H4S      HAL2     0.900000E-01   1.00800           0
      1655 MEMB     9        DOPC     C25      CTL2    -0.180000       12.0110           0
      1656 MEMB     9        DOPC     H5R      HAL2     0.900000E-01   1.00800           0
      1657 MEMB     9        DOPC     H5S      HAL2     0.900000E-01   1.00800           0
      1658 MEMB     9        DOPC     C26      CTL2    -0.180000       12.0110           0
      1659 MEMB     9        DOPC     H6R      HAL2     0.900000E-01   1.00800           0
      1660 MEMB     9        DOPC     H6S      HAL2     0.900000E-01   1.00800           0
      1661 MEMB     9        DOPC     C27      CTL2    -0.180000       12.0110           0
      1662 MEMB     9        DOPC     H7R      HAL2     0.900000E-01   1.00800           0
      1663 MEMB     9        DOPC     H7S      HAL2     0.900000E-01   1.00800           0
      1664 MEMB     9        DOPC     C28      CTL2    -0.180000       12.0110           0
      1665 MEMB     9        DOPC     H8R      HAL2     0.900000E-01   1.00800           0
      1666 MEMB     9        DOPC     H8S      HAL2     0.900000E-01   1.00800           0
      1667 MEMB     9        DOPC     C29      CEL1    -0.150000       12.0110           0
      1668 MEMB     9        DOPC     H9R      HEL1     0.150000       1.00800           0
      1669 MEMB     9        DOPC     C210     CEL1    -0.150000       12.0110           0
      1670 MEMB     9        DOPC     H10R     HEL1     0.150000       1.00800           0
      1671 MEMB     9        DOPC     C211     CTL2    -0.180000       12.0110           0
      1672 MEMB     9        DOPC     H11R     HAL2     0.900000E-01   1.00800           0
      1673 MEMB     9        DOPC     H11S     HAL2     0.900000E-01   1.00800           0
      1674 MEMB     9        DOPC     C212     CTL2    -0.180000       12.0110           0
      1675 MEMB     9        DOPC     H12R     HAL2     0.900000E-01   1.00800           0
      1676 MEMB     9        DOPC     H12S     HAL2     0.900000E-01   1.00800           0
      1677 MEMB     9        DOPC     C213     CTL2    -0.180000       12.0110           0
      1678 MEMB     9        DOPC     H13R     HAL2     0.900000E-01   1.00800           0
      1679 MEMB     9        DOPC     H13S     HAL2     0.900000E-01   1.00800           0
      1680 MEMB     9        DOPC     C214     CTL2    -0.180000       12.0110           0
      1681 MEMB     9        DOPC     H14R     HAL2     0.900000E-01   1.00800           0
      1682 MEMB     9        DOPC     H14S     HAL2     0.900000E-01   1.00800           0
      1683 MEMB     9        DOPC     C215     CTL2    -0.180000       12.0110           0
      1684 MEMB     9        DOPC     H15R     HAL2     0.900000E-01   1.00800           0
      1685 MEMB     9        DOPC     H15S     HAL2     0.900000E-01   1.00800           0
      1686 MEMB     9        DOPC     C216     CTL2    -0.180000       12.0110           0
      1687 MEMB     9        DOPC     H16R     HAL2     0.900000E-01   1.00800           0
      1688 MEMB     9        DOPC     H16S     HAL2     0.900000E-01   1.00800           0
      1689 MEMB     9        DOPC     C217     CTL2    -0.180000       12.0110           0
      1690 MEMB     9        DOPC     H17R     HAL2     0.900000E-01   1.00800           0
      1691 MEMB     9        DOPC     H17S     HAL2     0.900000E-01   1.00800           0
      1692 MEMB     9        DOPC     C218     CTL3    -0.270000       12.0110           0
      1693 MEMB     9        DOPC     H18R     HAL3     0.900000E-01   1.00800           0
      1694 MEMB     9        DOPC     H18S     HAL3     0.900000E-01   1.00800           0
      1695 MEMB     9        DOPC     H18T     HAL3     0.900000E-01   1.00800           0
      1696 MEMB     9        DOPC     C33      CTL2    -0.180000       12.0110           0
      1697 MEMB     9        DOPC     H3X      HAL2     0.900000E-01   1.00800           0
      1698 MEMB     9        DOPC     H3Y      HAL2     0.900000E-01   1.00800           0
      1699 MEMB     9        DOPC     C34      CTL2    -0.180000       12.0110           0
      1700 MEMB     9        DOPC     H4X      HAL2     0.900000E-01   1.00800           0
      1701 MEMB     9        DOPC     H4Y      HAL2     0.900000E-01   1.00800           0
      1702 MEMB     9        DOPC     C35      CTL2    -0.180000       12.0110           0
      1703 MEMB     9        DOPC     H5X      HAL2     0.900000E-01   1.00800           0
      1704 MEMB     9        DOPC     H5Y      HAL2     0.900000E-01   1.00800           0
      1705 MEMB     9        DOPC     C36      CTL2    -0.180000       12.0110           0
      1706 MEMB     9        DOPC     H6X      HAL2     0.900000E-01   1.00800           0
      1707 MEMB     9        DOPC     H6Y      HAL2     0.900000E-01   1.00800           0
      1708 MEMB     9        DOPC     C37      CTL2    -0.180000       12.0110           0
      1709 MEMB     9        DOPC     H7X      HAL2     0.900000E-01   1.00800           0
      1710 MEMB     9        DOPC     H7Y      HAL2     0.900000E-01   1.00800           0
      1711 MEMB     9        DOPC     C38      CTL2    -0.180000       12.0110           0
      1712 MEMB     9        DOPC     H8X      HAL2     0.900000E-01   1.00800           0
      1713 MEMB     9        DOPC     H8Y      HAL2     0.900000E-01   1.00800           0
      1714 MEMB     9        DOPC     C39      CEL1    -0.150000       12.0110           0
      1715 MEMB     9        DOPC     H9X      HEL1     0.150000       1.00800           0
      1716 MEMB     9        DOPC     C310     CEL1    -0.150000       12.0110           0
      1717 MEMB     9        DOPC     H10X     HEL1     0.150000       1.00800           0
      1718 MEMB     9        DOPC     C311     CTL2    -0.180000       12.0110           0
      1719 MEMB     9        DOPC     H11X     HAL2     0.900000E-01   1.00800           0
      1720 MEMB     9        DOPC     H11Y     HAL2     0.900000E-01   1.00800           0
      1721 MEMB     9        DOPC     C312     CTL2    -0.180000       12.0110           0
      1722 MEMB     9        DOPC     H12X     HAL2     0.900000E-01   1.00800           0
      1723 MEMB     9        DOPC     H12Y     HAL2     0.900000E-01   1.00800           0
      1724 MEMB     9        DOPC     C313     CTL2    -0.180000       12.0110           0
      1725 MEMB     9        DOPC     H13X     HAL2     0.900000E-01   1.00800           0
      1726 MEMB     9        DOPC     H13Y     HAL2     0.900000E-01   1.00800           0
      1727 MEMB     9        DOPC     C314     CTL2    -0.180000       12.0110           0
      1728 MEMB     9        DOPC     H14X     HAL2     0.900000E-01   1.00800           0
      1729 MEMB     9        DOPC     H14Y     HAL2     0.900000E-01   1.00800           0
      1730 MEMB     9        DOPC     C315     CTL2    -0.180000       12.0110           0
      1731 MEMB     9        DOPC     H15X     HAL2     0.900000E-01   1.00800           0
      1732 MEMB     9        DOPC     H15Y     HAL2     0.900000E-01   1.00800           0
      1733 MEMB     9        DOPC     C316     CTL2    -0.180000       12.0110           0
      1734 MEMB     9        DOPC     H16X     HAL2     0.900000E-01   1.00800           0
      1735 MEMB     9        DOPC     H16Y     HAL2     0.900000E-01   1.00800           0
      1736 MEMB     9        DOPC     C317     CTL2    -0.180000       12.0110           0
      1737 MEMB     9        DOPC     H17X     HAL2     0.900000E-01   1.00800           0
      1738 MEMB     9        DOPC     H17Y     HAL2     0.900000E-01   1.00800           0
      1739 MEMB     9        DOPC     C318     CTL3    -0.270000       12.0110           0
      1740 MEMB     9        DOPC     H18X     HAL3     0.900000E-01   1.00800           0
      1741 MEMB     9        DOPC     H18Y     HAL3     0.900000E-01   1.00800           0
      1742 MEMB     9        DOPC     H18Z     HAL3     0.900000E-01   1.00800           0
      1743 MEMB     10       DOPC     N        NTL     -0.600000       14.0070           0
      1744 MEMB     10       DOPC     C12      CTL2    -0.100000       12.0110           0
      1745 MEMB     10       DOPC     H12A     HL       0.250000       1.00800           0
      1746 MEMB     10       DOPC     H12B     HL       0.250000       1.00800           0
      1747 MEMB     10       DOPC     C13      CTL5    -0.350000       12.0110           0
      1748 MEMB     10       DOPC     H13A     HL       0.250000       1.00800           0
      1749 MEMB     10       DOPC     H13B     HL       0.250000       1.00800           0
      1750 MEMB     10       DOPC     H13C     HL       0.250000       1.00800           0
      1751 MEMB     10       DOPC     C14      CTL5    -0.350000       12.0110           0
      1752 MEMB     10       DOPC     H14A     HL       0.250000       1.00800           0
      1753 MEMB     10       DOPC     H14B     HL       0.250000       1.00800           0
      1754 MEMB     10       DOPC     H14C     HL       0.250000       1.00800           0
      1755 MEMB     10       DOPC     C15      CTL5    -0.350000       12.0110           0
      1756 MEMB     10       DOPC     H15A     HL       0.250000       1.00800           0
      1757 MEMB     10       DOPC     H15B     HL       0.250000       1.00800           0
      1758 MEMB     10       DOPC     H15C     HL       0.250000       1.00800           0
      1759 MEMB     10       DOPC     C11      CTL2    -0.800000E-01   12.0110           0
      1760 MEMB     10       DOPC     H11A     HAL2     0.900000E-01   1.00800           0
      1761 MEMB     10       DOPC     H11B     HAL2     0.900000E-01   1.00800           0
      1762 MEMB     10       DOPC     P        PL        1.50000       30.9740           0
      1763 MEMB     10       DOPC     O13      O2L     -0.780000       15.9994           0
      1764 MEMB     10       DOPC     O14      O2L     -0.780000       15.9994           0
      1765 MEMB     10       DOPC     O12      OSLP    -0.570000       15.9994           0
      1766 MEMB     10       DOPC     O11      OSLP    -0.570000       15.9994           0
      1767 MEMB     10       DOPC     C1       CTL2    -0.800000E-01   12.0110           0
      1768 MEMB     10       DOPC     HA       HAL2     0.900000E-01   1.00800           0
      1769 MEMB     10       DOPC     HB       HAL2     0.900000E-01   1.00800           0
      1770 MEMB     10       DOPC     C2       CTL1     0.170000       12.0110           0
      1771 MEMB     10       DOPC     HS       HAL1     0.900000E-01   1.00800           0
      1772 MEMB     10       DOPC     O21      OSL     -0.490000       15.9994           0
      1773 MEMB     10       DOPC     C21      CL       0.900000       12.0110           0
      1774 MEMB     10       DOPC     O22      OBL     -0.630000       15.9994           0
      1775 MEMB     10       DOPC     C22      CTL2    -0.220000       12.0110           0
      1776 MEMB     10       DOPC     H2R      HAL2     0.900000E-01   1.00800           0
      1777 MEMB     10       DOPC     H2S      HAL2     0.900000E-01   1.00800           0
      1778 MEMB     10       DOPC     C3       CTL2     0.800000E-01   12.0110           0
      1779 MEMB     10       DOPC     HX       HAL2     0.900000E-01   1.00800           0
      1780 MEMB     10       DOPC     HY       HAL2     0.900000E-01   1.00800           0
      1781 MEMB     10       DOPC     O31      OSL     -0.490000       15.9994           0
      1782 MEMB     10       DOPC     C31      CL       0.900000       12.0110           0
      1783 MEMB     10       DOPC     O32      OBL     -0.630000       15.9994           0
      1784 MEMB     10       DOPC     C32      CTL2    -0.220000       12.0110           0
      1785 MEMB     10       DOPC     H2X      HAL2     0.900000E-01   1.00800           0
      1786 MEMB     10       DOPC     H2Y      HAL2     0.900000E-01   1.00800           0
      1787 MEMB     10       DOPC     C23      CTL2    -0.180000       12.0110           0
      1788 MEMB     10       DOPC     H3R      HAL2     0.900000E-01   1.00800           0
      1789 MEMB     10       DOPC     H3S      HAL2     0.900000E-01   1.00800           0
      1790 MEMB     10       DOPC     C24      CTL2    -0.180000       12.0110           0
      1791 MEMB     10       DOPC     H4R      HAL2     0.900000E-01   1.00800           0
      1792 MEMB     10       DOPC     H4S      HAL2     0.900000E-01   1.00800           0
      1793 MEMB     10       DOPC     C25      CTL2    -0.180000       12.0110           0
      1794 MEMB     10       DOPC     H5R      HAL2     0.900000E-01   1.00800           0
      1795 MEMB     10       DOPC     H5S      HAL2     0.900000E-01   1.00800           0
      1796 MEMB     10       DOPC     C26      CTL2    -0.180000       12.0110           0
      1797 MEMB     10       DOPC     H6R      HAL2     0.900000E-01   1.00800           0
      1798 MEMB     10       DOPC     H6S      HAL2     0.900000E-01   1.00800           0
      1799 MEMB     10       DOPC     C27      CTL2    -0.180000       12.0110           0
      1800 MEMB     10       DOPC     H7R      HAL2     0.900000E-01   1.00800           0
      1801 MEMB     10       DOPC     H7S      HAL2     0.900000E-01   1.00800           0
      1802 MEMB     10       DOPC     C28      CTL2    -0.180000       12.0110           0
      1803 MEMB     10       DOPC     H8R      HAL2     0.900000E-01   1.00800           0
      1804 MEMB     10       DOPC     H8S      HAL2     0.900000E-01   1.00800           0
      1805 MEMB     10       DOPC     C29      CEL1    -0.150000       12.0110           0
      1806 MEMB     10       DOPC     H9R      HEL1     0.150000       1.00800           0
      1807 MEMB     10       DOPC     C210     CEL1    -0.150000       12.0110           0
      1808 MEMB     10       DOPC     H10R     HEL1     0.150000       1.00800           0
      1809 MEMB     10       DOPC     C211     CTL2    -0.180000       12.0110           0
      1810 MEMB     10       DOPC     H11R     HAL2     0.900000E-01   1.00800           0
      1811 MEMB     10       DOPC     H11S     HAL2     0.900000E-01   1.00800           0
      1812 MEMB     10       DOPC     C212     CTL2    -0.180000       12.0110           0
      1813 MEMB     10       DOPC     H12R     HAL2     0.900000E-01   1.00800           0
      1814 MEMB     10       DOPC     H12S     HAL2     0.900000E-01   1.00800           0
      1815 MEMB     10       DOPC     C213     CTL2    -0.180000       12.0110           0
      1816 MEMB     10       DOPC     H13R     HAL2     0.900000E-01   1.00800           0
      1817 MEMB     10       DOPC     H13S     HAL2     0.900000E-01   1.00800           0
      1818 MEMB     10       DOPC     C214     CTL2    -0.180000       12.0110           0
      1819 MEMB     10       DOPC     H14R     HAL2     0.900000E-01   1.00800           0
      1820 MEMB     10       DOPC     H14S     HAL2     0.900000E-01   1.00800           0
      1821 MEMB     10       DOPC     C215     CTL2    -0.180000       12.0110           0
      1822 MEMB     10       DOPC     H15R     HAL2     0.900000E-01   1.00800           0
      1823 MEMB     10       DOPC     H15S     HAL2     0.900000E-01   1.00800           0
      1824 MEMB     10       DOPC     C216     CTL2    -0.180000       12.0110           0
      1825 MEMB     10       DOPC     H16R     HAL2     0.900000E-01   1.00800           0
      1826 MEMB     10       DOPC     H16S     HAL2     0.900000E-01   1.00800           0
      1827 MEMB     10       DOPC     C217     CTL2    -0.180000       12.0110           0
      1828 MEMB     10       DOPC     H17R     HAL2     0.900000E-01   1.00800           0
      1829 MEMB     10       DOPC     H17S     HAL2     0.900000E-01   1.00800           0
      1830 MEMB     10       DOPC     C218     CTL3    -0.270000       12.0110           0
      1831 MEMB     10       DOPC     H18R     HAL3     0.900000E-01   1.00800           0
      1832 MEMB     10       DOPC     H18S     HAL3     0.900000E-01   1.00800           0
      1833 MEMB     10       DOPC     H18T     HAL3     0.900000E-01   1.00800           0
      1834 MEMB     10       DOPC     C33      CTL2    -0.180000       12.0110           0
      1835 MEMB     10       DOPC     H3X      HAL2     0.900000E-01   1.00800           0
      1836 MEMB     10       DOPC     H3Y      HAL2     0.900000E-01   1.00800           0
      1837 MEMB     10       DOPC     C34      CTL2    -0.180000       12.0110           0
      1838 MEMB     10       DOPC     H4X      HAL2     0.900000E-01   1.00800           0
      1839 MEMB     10       DOPC     H4Y      HAL2     0.900000E-01   1.00800           0
      1840 MEMB     10       DOPC     C35      CTL2    -0.180000       12.0110           0
      1841 MEMB     10       DOPC     H5X      HAL2     0.900000E-01   1.00800           0
      1842 MEMB     10       DOPC     H5Y      HAL2     0.900000E-01   1.00800           0
      1843 MEMB     10       DOPC     C36      CTL2    -0.180000       12.0110           0
      1844 MEMB     10       DOPC     H6X      HAL2     0.900000E-01   1.00800           0
      1845 MEMB     10       DOPC     H6Y      HAL2     0.900000E-01   1.00800           0
      1846 MEMB     10       DOPC     C37      CTL2    -0.180000       12.0110           0
      1847 MEMB     10       DOPC     H7X      HAL2     0.900000E-01   1.00800           0
      1848 MEMB     10       DOPC     H7Y      HAL2     0.900000E-01   1.00800           0
      1849 MEMB     10       DOPC     C38      CTL2    -0.180000       12.0110           0
      1850 MEMB     10       DOPC     H8X      HAL2     0.900000E-01   1.00800           0
      1851 MEMB     10       DOPC     H8Y      HAL2     0.900000E-01   1.00800           0
      1852 MEMB     10       DOPC     C39      CEL1    -0.150000       12.0110           0
      1853 MEMB     10       DOPC     H9X      HEL1     0.150000       1.00800           0
      1854 MEMB     10       DOPC     C310     CEL1    -0.150000       12.0110           0
      1855 MEMB     10       DOPC     H10X     HEL1     0.150000       1.00800           0
      1856 MEMB     10       DOPC     C311     CTL2    -0.180000       12.0110           0
      1857 MEMB     10       DOPC     H11X     HAL2     0.900000E-01   1.00800           0
      1858 MEMB     10       DOPC     H11Y     HAL2     0.900000E-01   1.00800           0
      1859 MEMB     10       DOPC     C312     CTL2    -0.180000       12.0110           0
      1860 MEMB     10       DOPC     H12X     HAL2     0.900000E-01   1.00800           0
      1861 MEMB     10       DOPC     H12Y     HAL2     0.900000E-01   1.00800           0
      1862 MEMB     10       DOPC     C313     CTL2    -0.180000       12.0110           0
      1863 MEMB     10       DOPC     H13X     HAL2     0.900000E-01   1.00800           0
      1864 MEMB     10       DOPC     H13Y     HAL2     0.900000E-01   1.00800           0
      1865 MEMB     10       DOPC     C314     CTL2    -0.180000       12.0110           0
      1866 MEMB     10       DOPC     H14X     HAL2     0.900000E-01   1.00800           0
      1867 MEMB     10       DOPC     H14Y     HAL2     0.900000E-01   1.00800           0
      1868 MEMB     10       DOPC     C315     CTL2    -0.180000       12.0110           0
      1869 MEMB     10       DOPC     H15X     HAL2     0.900000E-01   1.00800           0
      1870 MEMB     10       DOPC     H15Y     HAL2     0.900000E-01   1.00800           0
      1871 MEMB     10       DOPC     C316     CTL2    -0.180000       12.0110           0
      1872 MEMB     10       DOPC     H16X     HAL2     0.900000E-01   1.00800           0
      1873 MEMB     10       DOPC     H16Y     HAL2     0.900000E-01   1.00800           0
      1874 MEMB     10       DOPC     C317     CTL2    -0.180000       12.0110           0
      1875 MEMB     10       DOPC     H17X     HAL2     0.900000E-01   1.00800           0
      1876 MEMB     10       DOPC     H17Y     HAL2     0.900000E-01   1.00800           0
      1877 MEMB     10       DOPC     C318     CTL3    -0.270000       12.0110           0
      1878 MEMB     10       DOPC     H18X     HAL3     0.900000E-01   1.00800           0
      1879 MEMB     10       DOPC     H18Y     HAL3     0.900000E-01   1.00800           0
      1880 MEMB     10       DOPC     H18Z     HAL3     0.900000E-01   1.00800           0
      1881 MEMB     11       DOPC     N        NTL     -0.600000       14.0070           0
      1882 MEMB     11       DOPC     C12      CTL2    -0.100000       12.0110           0
      1883 MEMB     11       DOPC     H12A     HL       0.250000       1.00800           0
      1884 MEMB     11       DOPC     H12B     HL       0.250000       1.00800           0
      1885 MEMB     11       DOPC     C13      CTL5    -0.350000       12.0110           0
      1886 MEMB     11       DOPC     H13A     HL       0.250000       1.00800           0
      1887 MEMB     11       DOPC     H13B     HL       0.250000       1.00800           0
      1888 MEMB     11       DOPC     H13C     HL       0.250000       1.00800           0
      1889 MEMB     11       DOPC     C14      CTL5    -0.350000       12.0110           0
      1890 MEMB     11       DOPC     H14A     HL       0.250000       1.00800           0
      1891 MEMB     11       DOPC     H14B     HL       0.250000       1.00800           0
      1892 MEMB     11       DOPC     H14C     HL       0.250000       1.00800           0
      1893 MEMB     11       DOPC     C15      CTL5    -0.350000       12.0110           0
      1894 MEMB     11       DOPC     H15A     HL       0.250000       1.00800           0
      1895 MEMB     11       DOPC     H15B     HL       0.250000       1.00800           0
      1896 MEMB     11       DOPC     H15C     HL       0.250000       1.00800           0
      1897 MEMB     11       DOPC     C11      CTL2    -0.800000E-01   12.0110           0
      1898 MEMB     11       DOPC     H11A     HAL2     0.900000E-01   1.00800           0
      1899 MEMB     11       DOPC     H11B     HAL2     0.900000E-01   1.00800           0
      1900 MEMB     11       DOPC     P        PL        1.50000       30.9740           0
      1901 MEMB     11       DOPC     O13      O2L     -0.780000       15.9994           0
      1902 MEMB     11       DOPC     O14      O2L     -0.780000       15.9994           0
      1903 MEMB     11       DOPC     O12      OSLP    -0.570000       15.9994           0
      1904 MEMB     11       DOPC     O11      OSLP    -0.570000       15.9994           0
      1905 MEMB     11       DOPC     C1       CTL2    -0.800000E-01   12.0110           0
      1906 MEMB     11       DOPC     HA       HAL2     0.900000E-01   1.00800           0
      1907 MEMB     11       DOPC     HB       HAL2     0.900000E-01   1.00800           0
      1908 MEMB     11       DOPC     C2       CTL1     0.170000       12.0110           0
      1909 MEMB     11       DOPC     HS       HAL1     0.900000E-01   1.00800           0
      1910 MEMB     11       DOPC     O21      OSL     -0.490000       15.9994           0
      1911 MEMB     11       DOPC     C21      CL       0.900000       12.0110           0
      1912 MEMB     11       DOPC     O22      OBL     -0.630000       15.9994           0
      1913 MEMB     11       DOPC     C22      CTL2    -0.220000       12.0110           0
      1914 MEMB     11       DOPC     H2R      HAL2     0.900000E-01   1.00800           0
      1915 MEMB     11       DOPC     H2S      HAL2     0.900000E-01   1.00800           0
      1916 MEMB     11       DOPC     C3       CTL2     0.800000E-01   12.0110           0
      1917 MEMB     11       DOPC     HX       HAL2     0.900000E-01   1.00800           0
      1918 MEMB     11       DOPC     HY       HAL2     0.900000E-01   1.00800           0
      1919 MEMB     11       DOPC     O31      OSL     -0.490000       15.9994           0
      1920 MEMB     11       DOPC     C31      CL       0.900000       12.0110           0
      1921 MEMB     11       DOPC     O32      OBL     -0.630000       15.9994           0
      1922 MEMB     11       DOPC     C32      CTL2    -0.220000       12.0110           0
      1923 MEMB     11       DOPC     H2X      HAL2     0.900000E-01   1.00800           0
      1924 MEMB     11       DOPC     H2Y      HAL2     0.900000E-01   1.00800           0
      1925 MEMB     11       DOPC     C23      CTL2    -0.180000       12.0110           0
      1926 MEMB     11       DOPC     H3R      HAL2     0.900000E-01   1.00800           0
      1927 MEMB     11       DOPC     H3S      HAL2     0.900000E-01   1.00800           0
      1928 MEMB     11       DOPC     C24      CTL2    -0.180000       12.0110           0
      1929 MEMB     11       DOPC     H4R      HAL2     0.900000E-01   1.00800           0
      1930 MEMB     11       DOPC     H4S      HAL2     0.900000E-01   1.00800           0
      1931 MEMB     11       DOPC     C25      CTL2    -0.180000       12.0110           0
      1932 MEMB     11       DOPC     H5R      HAL2     0.900000E-01   1.00800           0
      1933 MEMB     11       DOPC     H5S      HAL2     0.900000E-01   1.00800           0
      1934 MEMB     11       DOPC     C26      CTL2    -0.180000       12.0110           0
      1935 MEMB     11       DOPC     H6R      HAL2     0.900000E-01   1.00800           0
      1936 MEMB     11       DOPC     H6S      HAL2     0.900000E-01   1.00800           0
      1937 MEMB     11       DOPC     C27      CTL2    -0.180000       12.0110           0
      1938 MEMB     11       DOPC     H7R      HAL2     0.900000E-01   1.00800           0
      1939 MEMB     11       DOPC     H7S      HAL2     0.900000E-01   1.00800           0
      1940 MEMB     11       DOPC     C28      CTL2    -0.180000       12.0110           0
      1941 MEMB     11       DOPC     H8R      HAL2     0.900000E-01   1.00800           0
      1942 MEMB     11       DOPC     H8S      HAL2     0.900000E-01   1.00800           0
      1943 MEMB     11       DOPC     C29      CEL1    -0.150000       12.0110           0
      1944 MEMB     11       DOPC     H9R      HEL1     0.150000       1.00800           0
      1945 MEMB     11       DOPC     C210     CEL1    -0.150000       12.0110           0
      1946 MEMB     11       DOPC     H10R     HEL1     0.150000       1.00800           0
      1947 MEMB     11       DOPC     C211     CTL2    -0.180000       12.0110           0
      1948 MEMB     11       DOPC     H11R     HAL2     0.900000E-01   1.00800           0
      1949 MEMB     11       DOPC     H11S     HAL2     0.900000E-01   1.00800           0
      1950 MEMB     11       DOPC     C212     CTL2    -0.180000       12.0110           0
      1951 MEMB     11       DOPC     H12R     HAL2     0.900000E-01   1.00800           0
      1952 MEMB     11       DOPC     H12S     HAL2     0.900000E-01   1.00800           0
      1953 MEMB     11       DOPC     C213     CTL2    -0.180000       12.0110           0
      1954 MEMB     11       DOPC     H13R     HAL2     0.900000E-01   1.00800           0
      1955 MEMB     11       DOPC     H13S     HAL2     0.900000E-01   1.00800           0
      1956 MEMB     11       DOPC     C214     CTL2    -0.180000       12.0110           0
      1957 MEMB     11       DOPC     H14R     HAL2     0.900000E-01   1.00800           0
      1958 MEMB     11       DOPC     H14S     HAL2     0.900000E-01   1.00800           0
      1959 MEMB     11       DOPC     C215     CTL2    -0.180000       12.0110           0
      1960 MEMB     11       DOPC     H15R     HAL2     0.900000E-01   1.00800           0
      1961 MEMB     11       DOPC     H15S     HAL2     0.900000E-01   1.00800           0
      1962 MEMB     11       DOPC     C216     CTL2    -0.180000       12.0110           0
      1963 MEMB     11       DOPC     H16R     HAL2     0.900000E-01   1.00800           0
      1964 MEMB     11       DOPC     H16S     HAL2     0.900000E-01   1.00800           0
      1965 MEMB     11       DOPC     C217     CTL2    -0.180000       12.0110           0
      1966 MEMB     11       DOPC     H17R     HAL2     0.900000E-01   1.00800           0
      1967 MEMB     11       DOPC     H17S     HAL2     0.900000E-01   1.00800           0
      1968 MEMB     11       DOPC     C218     CTL3    -0.270000       12.0110           0
      1969 MEMB     11       DOPC     H18R     HAL3     0.900000E-01   1.00800           0
      1970 MEMB     11       DOPC     H18S     HAL3     0.900000E-01   1.00800           0
      1971 MEMB     11       DOPC     H18T     HAL3     0.900000E-01   1.00800           0
      1972 MEMB     11       DOPC     C33      CTL2    -0.180000       12.0110           0
      1973 MEMB     11       DOPC     H3X      HAL2     0.900000E-01   1.00800           0
      1974 MEMB     11       DOPC     H3Y      HAL2     0.900000E-01   1.00800           0
      1975 MEMB     11       DOPC     C34      CTL2    -0.180000       12.0110           0
      1976 MEMB     11       DOPC     H4X      HAL2     0.900000E-01   1.00800           0
      1977 MEMB     11       DOPC     H4Y      HAL2     0.900000E-01   1.00800           0
      1978 MEMB     11       DOPC     C35      CTL2    -0.180000       12.0110           0
      1979 MEMB     11       DOPC     H5X      HAL2     0.900000E-01   1.00800           0
      1980 MEMB     11       DOPC     H5Y      HAL2     0.900000E-01   1.00800           0
      1981 MEMB     11       DOPC     C36      CTL2    -0.180000       12.0110           0
      1982 MEMB     11       DOPC     H6X      HAL2     0.900000E-01   1.00800           0
      1983 MEMB     11       DOPC     H6Y      HAL2     0.900000E-01   1.00800           0
      1984 MEMB     11       DOPC     C37      CTL2    -0.180000       12.0110           0
      1985 MEMB     11       DOPC     H7X      HAL2     0.900000E-01   1.00800           0
      1986 MEMB     11       DOPC     H7Y      HAL2     0.900000E-01   1.00800           0
      1987 MEMB     11       DOPC     C38      CTL2    -0.180000       12.0110           0
      1988 MEMB     11       DOPC     H8X      HAL2     0.900000E-01   1.00800           0
      1989 MEMB     11       DOPC     H8Y      HAL2     0.900000E-01   1.00800           0
      1990 MEMB     11       DOPC     C39      CEL1    -0.150000       12.0110           0
      1991 MEMB     11       DOPC     H9X      HEL1     0.150000       1.00800           0
      1992 MEMB     11       DOPC     C310     CEL1    -0.150000       12.0110           0
      1993 MEMB     11       DOPC     H10X     HEL1     0.150000       1.00800           0
      1994 MEMB     11       DOPC     C311     CTL2    -0.180000       12.0110           0
      1995 MEMB     11       DOPC     H11X     HAL2     0.900000E-01   1.00800           0
      1996 MEMB     11       DOPC     H11Y     HAL2     0.900000E-01   1.00800           0
      1997 MEMB     11       DOPC     C312     CTL2    -0.180000       12.0110           0
      1998 MEMB     11       DOPC     H12X     HAL2     0.900000E-01   1.00800           0
      1999 MEMB     11       DOPC     H12Y     HAL2     0.900000E-01   1.00800           0
      2000 MEMB     11       DOPC     C313     CTL2    -0.180000       12.0110           0
      2001 MEMB     11       DOPC     H13X     HAL2     0.900000E-01   1.00800           0
      2002 MEMB     11       DOPC     H13Y     HAL2     0.900000E-01   1.00800           0
      2003 MEMB     11       DOPC     C314     CTL2    -0.180000       12.0110           0
      2004 MEMB     11       DOPC     H14X     HAL2     0.900000E-01   1.00800           0
      2005 MEMB     11       DOPC     H14Y     HAL2     0.900000E-01   1.00800           0
      2006 MEMB     11       DOPC     C315     CTL2    -0.180000       12.0110           0
      2007 MEMB     11       DOPC     H15X     HAL2     0.900000E-01   1.00800           0
      2008 MEMB     11       DOPC     H15Y     HAL2     0.900000E-01   1.00800           0
      2009 MEMB     11       DOPC     C316     CTL2    -0.180000       12.0110           0
      2010 MEMB     11       DOPC     H16X     HAL2     0.900000E-01   1.00800           0
      2011 MEMB     11       DOPC     H16Y     HAL2     0.900000E-01   1.00800           0
      2012 MEMB     11       DOPC     C317     CTL2    -0.180000       12.0110           0
      2013 MEMB     11       DOPC     H17X     HAL2     0.900000E-01   1.00800           0
      2014 MEMB     11       DOPC     H17Y     HAL2     0.900000E-01   1.00800           0
      2015 MEMB     11       DOPC     C318     CTL3    -0.270000       12.0110           0
      2016 MEMB     11       DOPC     H18X     HAL3     0.900000E-01   1.00800           0
      2017 MEMB     11       DOPC     H18Y     HAL3     0.900000E-01   1.00800           0
      2018 MEMB     11       DOPC     H18Z     HAL3     0.900000E-01   1.00800           0
      2019 MEMB     12       DOPC     N        NTL     -0.600000       14.0070           0
      2020 MEMB     12       DOPC     C12      CTL2    -0.100000       12.0110           0
      2021 MEMB     12       DOPC     H12A     HL       0.250000       1.00800           0
      2022 MEMB     12       DOPC     H12B     HL       0.250000       1.00800           0
      2023 MEMB     12       DOPC     C13      CTL5    -0.350000       12.0110           0
      2024 MEMB     12       DOPC     H13A     HL       0.250000       1.00800           0
      2025 MEMB     12       DOPC     H13B     HL       0.250000       1.00800           0
      2026 MEMB     12       DOPC     H13C     HL       0.250000       1.00800           0
      2027 MEMB     12       DOPC     C14      CTL5    -0.350000       12.0110           0
      2028 MEMB     12       DOPC     H14A     HL       0.250000       1.00800           0
      2029 MEMB     12       DOPC     H14B     HL       0.250000       1.00800           0
      2030 MEMB     12       DOPC     H14C     HL       0.250000       1.00800           0
      2031 MEMB     12       DOPC     C15      CTL5    -0.350000       12.0110           0
      2032 MEMB     12       DOPC     H15A     HL       0.250000       1.00800           0
      2033 MEMB     12       DOPC     H15B     HL       0.250000       1.00800           0
      2034 MEMB     12       DOPC     H15C     HL       0.250000       1.00800           0
      2035 MEMB     12       DOPC     C11      CTL2    -0.800000E-01   12.0110           0
      2036 MEMB     12       DOPC     H11A     HAL2     0.900000E-01   1.00800           0
      2037 MEMB     12       DOPC     H11B     HAL2     0.900000E-01   1.00800           0
      2038 MEMB     12       DOPC     P        PL        1.50000       30.9740           0
      2039 MEMB     12       DOPC     O13      O2L     -0.780000       15.9994           0
      2040 MEMB     12       DOPC     O14      O2L     -0.780000       15.9994           0
      2041 MEMB     12       DOPC     O12      OSLP    -0.570000       15.9994           0
      2042 MEMB     12       DOPC     O11      OSLP    -0.570000       15.9994           0
      2043 MEMB     12       DOPC     C1       CTL2    -0.800000E-01   12.0110           0
      2044 MEMB     12       DOPC     HA       HAL2     0.900000E-01   1.00800           0
      2045 MEMB     12       DOPC     HB       HAL2     0.900000E-01   1.00800           0
      2046 MEMB     12       DOPC     C2       CTL1     0.170000       12.0110           0
      2047 MEMB     12       DOPC     HS       HAL1     0.900000E-01   1.00800           0
      2048 MEMB     12       DOPC     O21      OSL     -0.490000       15.9994           0
      2049 MEMB     12       DOPC     C21      CL       0.900000       12.0110           0
      2050 MEMB     12       DOPC     O22      OBL     -0.630000       15.9994           0
      2051 MEMB     12       DOPC     C22      CTL2    -0.220000       12.0110           0
      2052 MEMB     12       DOPC     H2R      HAL2     0.900000E-01   1.00800           0
      2053 MEMB     12       DOPC     H2S      HAL2     0.900000E-01   1.00800           0
      2054 MEMB     12       DOPC     C3       CTL2     0.800000E-01   12.0110           0
      2055 MEMB     12       DOPC     HX       HAL2     0.900000E-01   1.00800           0
      2056 MEMB     12       DOPC     HY       HAL2     0.900000E-01   1.00800           0
      2057 MEMB     12       DOPC     O31      OSL     -0.490000       15.9994           0
      2058 MEMB     12       DOPC     C31      CL       0.900000       12.0110           0
      2059 MEMB     12       DOPC     O32      OBL     -0.630000       15.9994           0
      2060 MEMB     12       DOPC     C32      CTL2    -0.220000       12.0110           0
      2061 MEMB     12       DOPC     H2X      HAL2     0.900000E-01   1.00800           0
      2062 MEMB     12       DOPC     H2Y      HAL2     0.900000E-01   1.00800           0
      2063 MEMB     12       DOPC     C23      CTL2    -0.180000       12.0110           0
      2064 MEMB     12       DOPC     H3R      HAL2     0.900000E-01   1.00800           0
      2065 MEMB     12       DOPC     H3S      HAL2     0.900000E-01   1.00800           0
      2066 MEMB     12       DOPC     C24      CTL2    -0.180000       12.0110           0
      2067 MEMB     12       DOPC     H4R      HAL2     0.900000E-01   1.00800           0
      2068 MEMB     12       DOPC     H4S      HAL2     0.900000E-01   1.00800           0
      2069 MEMB     12       DOPC     C25      CTL2    -0.180000       12.0110           0
      2070 MEMB     12       DOPC     H5R      HAL2     0.900000E-01   1.00800           0
      2071 MEMB     12       DOPC     H5S      HAL2     0.900000E-01   1.00800           0
      2072 MEMB     12       DOPC     C26      CTL2    -0.180000       12.0110           0
      2073 MEMB     12       DOPC     H6R      HAL2     0.900000E-01   1.00800           0
      2074 MEMB     12       DOPC     H6S      HAL2     0.900000E-01   1.00800           0
      2075 MEMB     12       DOPC     C27      CTL2    -0.180000       12.0110           0
      2076 MEMB     12       DOPC     H7R      HAL2     0.900000E-01   1.00800           0
      2077 MEMB     12       DOPC     H7S      HAL2     0.900000E-01   1.00800           0
      2078 MEMB     12       DOPC     C28      CTL2    -0.180000       12.0110           0
      2079 MEMB     12       DOPC     H8R      HAL2     0.900000E-01   1.00800           0
      2080 MEMB     12       DOPC     H8S      HAL2     0.900000E-01   1.00800           0
      2081 MEMB     12       DOPC     C29      CEL1    -0.150000       12.0110           0
      2082 MEMB     12       DOPC     H9R      HEL1     0.150000       1.00800           0
      2083 MEMB     12       DOPC     C210     CEL1    -0.150000       12.0110           0
      2084 MEMB     12       DOPC     H10R     HEL1     0.150000       1.00800           0
      2085 MEMB     12       DOPC     C211     CTL2    -0.180000       12.0110           0
      2086 MEMB     12       DOPC     H11R     HAL2     0.900000E-01   1.00800           0
      2087 MEMB     12       DOPC     H11S     HAL2     0.900000E-01   1.00800           0
      2088 MEMB     12       DOPC     C212     CTL2    -0.180000       12.0110           0
      2089 MEMB     12       DOPC     H12R     HAL2     0.900000E-01   1.00800           0
      2090 MEMB     12       DOPC     H12S     HAL2     0.900000E-01   1.00800           0
      2091 MEMB     12       DOPC     C213     CTL2    -0.180000       12.0110           0
      2092 MEMB     12       DOPC     H13R     HAL2     0.900000E-01   1.00800           0
      2093 MEMB     12       DOPC     H13S     HAL2     0.900000E-01   1.00800           0
      2094 MEMB     12       DOPC     C214     CTL2    -0.180000       12.0110           0
      2095 MEMB     12       DOPC     H14R     HAL2     0.900000E-01   1.00800           0
      2096 MEMB     12       DOPC     H14S     HAL2     0.900000E-01   1.00800           0
      2097 MEMB     12       DOPC     C215     CTL2    -0.180000       12.0110           0
      2098 MEMB     12       DOPC     H15R     HAL2     0.900000E-01   1.00800           0
      2099 MEMB     12       DOPC     H15S     HAL2     0.900000E-01   1.00800           0
      2100 MEMB     12       DOPC     C216     CTL2    -0.180000       12.0110           0
      2101 MEMB     12       DOPC     H16R     HAL2     0.900000E-01   1.00800           0
      2102 MEMB     12       DOPC     H16S     HAL2     0.900000E-01   1.00800           0
      2103 MEMB     12       DOPC     C217     CTL2    -0.180000       12.0110           0
      2104 MEMB     12       DOPC     H17R     HAL2     0.900000E-01   1.00800           0
      2105 MEMB     12       DOPC     H17S     HAL2     0.900000E-01   1.00800           0
      2106 MEMB     12       DOPC     C218     CTL3    -0.270000       12.0110           0
      2107 MEMB     12       DOPC     H18R     HAL3     0.900000E-01   1.00800           0
      2108 MEMB     12       DOPC     H18S     HAL3     0.900000E-01   1.00800           0
      2109 MEMB     12       DOPC     H18T     HAL3     0.900000E-01   1.00800           0
      2110 MEMB     12       DOPC     C33      CTL2    -0.180000       12.0110           0
      2111 MEMB     12       DOPC     H3X      HAL2     0.900000E-01   1.00800           0
      2112 MEMB     12       DOPC     H3Y      HAL2     0.900000E-01   1.00800           0
      2113 MEMB     12       DOPC     C34      CTL2    -0.180000       12.0110           0
      2114 MEMB     12       DOPC     H4X      HAL2     0.900000E-01   1.00800           0
      2115 MEMB     12       DOPC     H4Y      HAL2     0.900000E-01   1.00800           0
      2116 MEMB     12       DOPC     C35      CTL2    -0.180000       12.0110           0
      2117 MEMB     12       DOPC     H5X      HAL2     0.900000E-01   1.00800           0
      2118 MEMB     12       DOPC     H5Y      HAL2     0.900000E-01   1.00800           0
      2119 MEMB     12       DOPC     C36      CTL2    -0.180000       12.0110           0
      2120 MEMB     12       DOPC     H6X      HAL2     0.900000E-01   1.00800           0
      2121 MEMB     12       DOPC     H6Y      HAL2     0.900000E-01   1.00800           0
      2122 MEMB     12       DOPC     C37      CTL2    -0.180000       12.0110           0
      2123 MEMB     12       DOPC     H7X      HAL2     0.900000E-01   1.00800           0
      2124 MEMB     12       DOPC     H7Y      HAL2     0.900000E-01   1.00800           0
      2125 MEMB     12       DOPC     C38      CTL2    -0.180000       12.0110           0
      2126 MEMB     12       DOPC     H8X      HAL2     0.900000E-01   1.00800           0
      2127 MEMB     12       DOPC     H8Y      HAL2     0.900000E-01   1.00800           0
      2128 MEMB     12       DOPC     C39      CEL1    -0.150000       12.0110           0
      2129 MEMB     12       DOPC     H9X      HEL1     0.150000       1.00800           0
      2130 MEMB     12       DOPC     C310     CEL1    -0.150000       12.0110           0
      2131 MEMB     12       DOPC     H10X     HEL1     0.150000       1.00800           0
      2132 MEMB     12       DOPC     C311     CTL2    -0.180000       12.0110           0
      2133 MEMB     12       DOPC     H11X     HAL2     0.900000E-01   1.00800           0
      2134 MEMB     12       DOPC     H11Y     HAL2     0.900000E-01   1.00800           0
      2135 MEMB     12       DOPC     C312     CTL2    -0.180000       12.0110           0
      2136 MEMB     12       DOPC     H12X     HAL2     0.900000E-01   1.00800           0
      2137 MEMB     12       DOPC     H12Y     HAL2     0.900000E-01   1.00800           0
      2138 MEMB     12       DOPC     C313     CTL2    -0.180000       12.0110           0
      2139 MEMB     12       DOPC     H13X     HAL2     0.900000E-01   1.00800           0
      2140 MEMB     12       DOPC     H13Y     HAL2     0.900000E-01   1.00800           0
      2141 MEMB     12       DOPC     C314     CTL2    -0.180000       12.0110           0
      2142 MEMB     12       DOPC     H14X     HAL2     0.900000E-01   1.00800           0
      2143 MEMB     12       DOPC     H14Y     HAL2     0.900000E-01   1.00800           0
      2144 MEMB     12       DOPC     C315     CTL2    -0.180000       12.0110           0
      2145 MEMB     12       DOPC     H15X     HAL2     0.900000E-01   1.00800           0
      2146 MEMB     12       DOPC     H15Y     HAL2     0.900000E-01   1.00800           0
      2147 MEMB     12       DOPC     C316     CTL2    -0.180000       12.0110           0
      2148 MEMB     12       DOPC     H16X     HAL2     0.900000E-01   1.00800           0
      2149 MEMB     12       DOPC     H16Y     HAL2     0.900000E-01   1.00800           0
      2150 MEMB     12       DOPC     C317     CTL2    -0.180000       12.0110           0
      2151 MEMB     12       DOPC     H17X     HAL2     0.900000E-01   1.00800           0
      2152 MEMB     12       DOPC     H17Y     HAL2     0.900000E-01   1.00800           0
      2153 MEMB     12       DOPC     C318     CTL3    -0.270000       12.0110           0
      2154 MEMB     12       DOPC     H18X     HAL3     0.900000E-01   1.00800           0
      2155 MEMB     12       DOPC     H18Y     HAL3     0.900000E-01   1.00800           0
      2156 MEMB     12       DOPC     H18Z     HAL3     0.900000E-01   1.00800           0
      2157 MEMB     13       DOPC     N        NTL     -0.600000       14.0070           0
      2158 MEMB     13       DOPC     C12      CTL2    -0.100000       12.0110           0
      2159 MEMB     13       DOPC     H12A     HL       0.250000       1.00800           0
      2160 MEMB     13       DOPC     H12B     HL       0.250000       1.00800           0
      2161 MEMB     13       DOPC     C13      CTL5    -0.350000       12.0110           0
      2162 MEMB     13       DOPC     H13A     HL       0.250000       1.00800           0
      2163 MEMB     13       DOPC     H13B     HL       0.250000       1.00800           0
      2164 MEMB     13       DOPC     H13C     HL       0.250000       1.00800           0
      2165 MEMB     13       DOPC     C14      CTL5    -0.350000       12.0110           0
      2166 MEMB     13       DOPC     H14A     HL       0.250000       1.00800           0
      2167 MEMB     13       DOPC     H14B     HL       0.250000       1.00800           0
      2168 MEMB     13       DOPC     H14C     HL       0.250000       1.00800           0
      2169 MEMB     13       DOPC     C15      CTL5    -0.350000       12.0110           0
      2170 MEMB     13       DOPC     H15A     HL       0.250000       1.00800           0
      2171 MEMB     13       DOPC     H15B     HL       0.250000       1.00800           0
      2172 MEMB     13       DOPC     H15C     HL       0.250000       1.00800           0
      2173 MEMB     13       DOPC     C11      CTL2    -0.800000E-01   12.0110           0
      2174 MEMB     13       DOPC     H11A     HAL2     0.900000E-01   1.00800           0
      2175 MEMB     13       DOPC     H11B     HAL2     0.900000E-01   1.00800           0
      2176 MEMB     13       DOPC     P        PL        1.50000       30.9740           0
      2177 MEMB     13       DOPC     O13      O2L     -0.780000       15.9994           0
      2178 MEMB     13       DOPC     O14      O2L     -0.780000       15.9994           0
      2179 MEMB     13       DOPC     O12      OSLP    -0.570000       15.9994           0
      2180 MEMB     13       DOPC     O11      OSLP    -0.570000       15.9994           0
      2181 MEMB     13       DOPC     C1       CTL2    -0.800000E-01   12.0110           0
      2182 MEMB     13       DOPC     HA       HAL2     0.900000E-01   1.00800           0
      2183 MEMB     13       DOPC     HB       HAL2     0.900000E-01   1.00800           0
      2184 MEMB     13       DOPC     C2       CTL1     0.170000       12.0110           0
      2185 MEMB     13       DOPC     HS       HAL1     0.900000E-01   1.00800           0
      2186 MEMB     13       DOPC     O21      OSL     -0.490000       15.9994           0
      2187 MEMB     13       DOPC     C21      CL       0.900000       12.0110           0
      2188 MEMB     13       DOPC     O22      OBL     -0.630000       15.9994           0
      2189 MEMB     13       DOPC     C22      CTL2    -0.220000       12.0110           0
      2190 MEMB     13       DOPC     H2R      HAL2     0.900000E-01   1.00800           0
      2191 MEMB     13       DOPC     H2S      HAL2     0.900000E-01   1.00800           0
      2192 MEMB     13       DOPC     C3       CTL2     0.800000E-01   12.0110           0
      2193 MEMB     13       DOPC     HX       HAL2     0.900000E-01   1.00800           0
      2194 MEMB     13       DOPC     HY       HAL2     0.900000E-01   1.00800           0
      2195 MEMB     13       DOPC     O31      OSL     -0.490000       15.9994           0
      2196 MEMB     13       DOPC     C31      CL       0.900000       12.0110           0
      2197 MEMB     13       DOPC     O32      OBL     -0.630000       15.9994           0
      2198 MEMB     13       DOPC     C32      CTL2    -0.220000       12.0110           0
      2199 MEMB     13       DOPC     H2X      HAL2     0.900000E-01   1.00800           0
      2200 MEMB     13       DOPC     H2Y      HAL2     0.900000E-01   1.00800           0
      2201 MEMB     13       DOPC     C23      CTL2    -0.180000       12.0110           0
      2202 MEMB     13       DOPC     H3R      HAL2     0.900000E-01   1.00800           0
      2203 MEMB     13       DOPC     H3S      HAL2     0.900000E-01   1.00800           0
      2204 MEMB     13       DOPC     C24      CTL2    -0.180000       12.0110           0
      2205 MEMB     13       DOPC     H4R      HAL2     0.900000E-01   1.00800           0
      2206 MEMB     13       DOPC     H4S      HAL2     0.900000E-01   1.00800           0
      2207 MEMB     13       DOPC     C25      CTL2    -0.180000       12.0110           0
      2208 MEMB     13       DOPC     H5R      HAL2     0.900000E-01   1.00800           0
      2209 MEMB     13       DOPC     H5S      HAL2     0.900000E-01   1.00800           0
      2210 MEMB     13       DOPC     C26      CTL2    -0.180000       12.0110           0
      2211 MEMB     13       DOPC     H6R      HAL2     0.900000E-01   1.00800           0
      2212 MEMB     13       DOPC     H6S      HAL2     0.900000E-01   1.00800           0
      2213 MEMB     13       DOPC     C27      CTL2    -0.180000       12.0110           0
      2214 MEMB     13       DOPC     H7R      HAL2     0.900000E-01   1.00800           0
      2215 MEMB     13       DOPC     H7S      HAL2     0.900000E-01   1.00800           0
      2216 MEMB     13       DOPC     C28      CTL2    -0.180000       12.0110           0
      2217 MEMB     13       DOPC     H8R      HAL2     0.900000E-01   1.00800           0
      2218 MEMB     13       DOPC     H8S      HAL2     0.900000E-01   1.00800           0
      2219 MEMB     13       DOPC     C29      CEL1    -0.150000       12.0110           0
      2220 MEMB     13       DOPC     H9R      HEL1     0.150000       1.00800           0
      2221 MEMB     13       DOPC     C210     CEL1    -0.150000       12.0110           0
      2222 MEMB     13       DOPC     H10R     HEL1     0.150000       1.00800           0
      2223 MEMB     13       DOPC     C211     CTL2    -0.180000       12.0110           0
      2224 MEMB     13       DOPC     H11R     HAL2     0.900000E-01   1.00800           0
      2225 MEMB     13       DOPC     H11S     HAL2     0.900000E-01   1.00800           0
      2226 MEMB     13       DOPC     C212     CTL2    -0.180000       12.0110           0
      2227 MEMB     13       DOPC     H12R     HAL2     0.900000E-01   1.00800           0
      2228 MEMB     13       DOPC     H12S     HAL2     0.900000E-01   1.00800           0
      2229 MEMB     13       DOPC     C213     CTL2    -0.180000       12.0110           0
      2230 MEMB     13       DOPC     H13R     HAL2     0.900000E-01   1.00800           0
      2231 MEMB     13       DOPC     H13S     HAL2     0.900000E-01   1.00800           0
      2232 MEMB     13       DOPC     C214     CTL2    -0.180000       12.0110           0
      2233 MEMB     13       DOPC     H14R     HAL2     0.900000E-01   1.00800           0
      2234 MEMB     13       DOPC     H14S     HAL2     0.900000E-01   1.00800           0
      2235 MEMB     13       DOPC     C215     CTL2    -0.180000       12.0110           0
      2236 MEMB     13       DOPC     H15R     HAL2     0.900000E-01   1.00800           0
      2237 MEMB     13       DOPC     H15S     HAL2     0.900000E-01   1.00800           0
      2238 MEMB     13       DOPC     C216     CTL2    -0.180000       12.0110           0
      2239 MEMB     13       DOPC     H16R     HAL2     0.900000E-01   1.00800           0
      2240 MEMB     13       DOPC     H16S     HAL2     0.900000E-01   1.00800           0
      2241 MEMB     13       DOPC     C217     CTL2    -0.180000       12.0110           0
      2242 MEMB     13       DOPC     H17R     HAL2     0.900000E-01   1.00800           0
      2243 MEMB     13       DOPC     H17S     HAL2     0.900000E-01   1.00800           0
      2244 MEMB     13       DOPC     C218     CTL3    -0.270000       12.0110           0
      2245 MEMB     13       DOPC     H18R     HAL3     0.900000E-01   1.00800           0
      2246 MEMB     13       DOPC     H18S     HAL3     0.900000E-01   1.00800           0
      2247 MEMB     13       DOPC     H18T     HAL3     0.900000E-01   1.00800           0
      2248 MEMB     13       DOPC     C33      CTL2    -0.180000       12.0110           0
      2249 MEMB     13       DOPC     H3X      HAL2     0.900000E-01   1.00800           0
      2250 MEMB     13       DOPC     H3Y      HAL2     0.900000E-01   1.00800           0
      2251 MEMB     13       DOPC     C34      CTL2    -0.180000       12.0110           0
      2252 MEMB     13       DOPC     H4X      HAL2     0.900000E-01   1.00800           0
      2253 MEMB     13       DOPC     H4Y      HAL2     0.900000E-01   1.00800           0
      2254 MEMB     13       DOPC     C35      CTL2    -0.180000       12.0110           0
      2255 MEMB     13       DOPC     H5X      HAL2     0.900000E-01   1.00800           0
      2256 MEMB     13       DOPC     H5Y      HAL2     0.900000E-01   1.00800           0
      2257 MEMB     13       DOPC     C36      CTL2    -0.180000       12.0110           0
      2258 MEMB     13       DOPC     H6X      HAL2     0.900000E-01   1.00800           0
      2259 MEMB     13       DOPC     H6Y      HAL2     0.900000E-01   1.00800           0
      2260 MEMB     13       DOPC     C37      CTL2    -0.180000       12.0110           0
      2261 MEMB     13       DOPC     H7X      HAL2     0.900000E-01   1.00800           0
      2262 MEMB     13       DOPC     H7Y      HAL2     0.900000E-01   1.00800           0
      2263 MEMB     13       DOPC     C38      CTL2    -0.180000       12.0110           0
      2264 MEMB     13       DOPC     H8X      HAL2     0.900000E-01   1.00800           0
      2265 MEMB     13       DOPC     H8Y      HAL2     0.900000E-01   1.00800           0
      2266 MEMB     13       DOPC     C39      CEL1    -0.150000       12.0110           0
      2267 MEMB     13       DOPC     H9X      HEL1     0.150000       1.00800           0
      2268 MEMB     13       DOPC     C310     CEL1    -0.150000       12.0110           0
      2269 MEMB     13       DOPC     H10X     HEL1     0.150000       1.00800           0
      2270 MEMB     13       DOPC     C311     CTL2    -0.180000       12.0110           0
      2271 MEMB     13       DOPC     H11X     HAL2     0.900000E-01   1.00800           0
      2272 MEMB     13       DOPC     H11Y     HAL2     0.900000E-01   1.00800           0
      2273 MEMB     13       DOPC     C312     CTL2    -0.180000       12.0110           0
      2274 MEMB     13       DOPC     H12X     HAL2     0.900000E-01   1.00800           0
      2275 MEMB     13       DOPC     H12Y     HAL2     0.900000E-01   1.00800           0
      2276 MEMB     13       DOPC     C313     CTL2    -0.180000       12.0110           0
      2277 MEMB     13       DOPC     H13X     HAL2     0.900000E-01   1.00800           0
      2278 MEMB     13       DOPC     H13Y     HAL2     0.900000E-01   1.00800           0
      2279 MEMB     13       DOPC     C314     CTL2    -0.180000       12.0110           0
      2280 MEMB     13       DOPC     H14X     HAL2     0.900000E-01   1.00800           0
      2281 MEMB     13       DOPC     H14Y     HAL2     0.900000E-01   1.00800           0
      2282 MEMB     13       DOPC     C315     CTL2    -0.180000       12.0110           0
      2283 MEMB     13       DOPC     H15X     HAL2     0.900000E-01   1.00800           0
      2284 MEMB     13       DOPC     H15Y     HAL2     0.900000E-01   1.00800           0
      2285 MEMB     13       DOPC     C316     CTL2    -0.180000       12.0110           0
      2286 MEMB     13       DOPC     H16X     HAL2     0.900000E-01   1.00800           0
      2287 MEMB     13       DOPC     H16Y     HAL2     0.900000E-01   1.00800           0
      2288 MEMB     13       DOPC     C317     CTL2    -0.180000       12.0110           0
      2289 MEMB     13       DOPC     H17X     HAL2     0.900000E-01   1.00800           0
      2290 MEMB     13       DOPC     H17Y     HAL2     0.900000E-01   1.00800           0
      2291 MEMB     13       DOPC     C318     CTL3    -0.270000       12.0110           0
      2292 MEMB     13       DOPC     H18X     HAL3     0.900000E-01   1.00800           0
      2293 MEMB     13       DOPC     H18Y     HAL3     0.900000E-01   1.00800           0
      2294 MEMB     13       DOPC     H18Z     HAL3     0.900000E-01   1.00800           0
      2295 MEMB     14       DOPC     N        NTL     -0.600000       14.0070           0
      2296 MEMB     14       DOPC     C12      CTL2    -0.100000       12.0110           0
      2297 MEMB     14       DOPC     H12A     HL       0.250000       1.00800           0
      2298 MEMB     14       DOPC     H12B     HL       0.250000       1.00800           0
      2299 MEMB     14       DOPC     C13      CTL5    -0.350000       12.0110           0
      2300 MEMB     14       DOPC     H13A     HL       0.250000       1.00800           0
      2301 MEMB     14       DOPC     H13B     HL       0.250000       1.00800           0
      2302 MEMB     14       DOPC     H13C     HL       0.250000       1.00800           0
      2303 MEMB     14       DOPC     C14      CTL5    -0.350000       12.0110           0
      2304 MEMB     14       DOPC     H14A     HL       0.250000       1.00800           0
      2305 MEMB     14       DOPC     H14B     HL       0.250000       1.00800           0
      2306 MEMB     14       DOPC     H14C     HL       0.250000       1.00800           0
      2307 MEMB     14       DOPC     C15      CTL5    -0.350000       12.0110           0
      2308 MEMB     14       DOPC     H15A     HL       0.250000       1.00800           0
      2309 MEMB     14       DOPC     H15B     HL       0.250000       1.00800           0
      2310 MEMB     14       DOPC     H15C     HL       0.250000       1.00800           0
      2311 MEMB     14       DOPC     C11      CTL2    -0.800000E-01   12.0110           0
      2312 MEMB     14       DOPC     H11A     HAL2     0.900000E-01   1.00800           0
      2313 MEMB     14       DOPC     H11B     HAL2     0.900000E-01   1.00800           0
      2314 MEMB     14       DOPC     P        PL        1.50000       30.9740           0
      2315 MEMB     14       DOPC     O13      O2L     -0.780000       15.9994           0
      2316 MEMB     14       DOPC     O14      O2L     -0.780000       15.9994           0
      2317 MEMB     14       DOPC     O12      OSLP    -0.570000       15.9994           0
      2318 MEMB     14       DOPC     O11      OSLP    -0.570000       15.9994           0
      2319 MEMB     14       DOPC     C1       CTL2    -0.800000E-01   12.0110           0
      2320 MEMB     14       DOPC     HA       HAL2     0.900000E-01   1.00800           0
      2321 MEMB     14       DOPC     HB       HAL2     0.900000E-01   1.00800           0
      2322 MEMB     14       DOPC     C2       CTL1     0.170000       12.0110           0
      2323 MEMB     14       DOPC     HS       HAL1     0.900000E-01   1.00800           0
      2324 MEMB     14       DOPC     O21      OSL     -0.490000       15.9994           0
      2325 MEMB     14       DOPC     C21      CL       0.900000       12.0110           0
      2326 MEMB     14       DOPC     O22      OBL     -0.630000       15.9994           0
      2327 MEMB     14       DOPC     C22      CTL2    -0.220000       12.0110           0
      2328 MEMB     14       DOPC     H2R      HAL2     0.900000E-01   1.00800           0
      2329 MEMB     14       DOPC     H2S      HAL2     0.900000E-01   1.00800           0
      2330 MEMB     14       DOPC     C3       CTL2     0.800000E-01   12.0110           0
      2331 MEMB     14       DOPC     HX       HAL2     0.900000E-01   1.00800           0
      2332 MEMB     14       DOPC     HY       HAL2     0.900000E-01   1.00800           0
      2333 MEMB     14       DOPC     O31      OSL     -0.490000       15.9994           0
      2334 MEMB     14       DOPC     C31      CL       0.900000       12.0110           0
      2335 MEMB     14       DOPC     O32      OBL     -0.630000       15.9994           0
      2336 MEMB     14       DOPC     C32      CTL2    -0.220000       12.0110           0
      2337 MEMB     14       DOPC     H2X      HAL2     0.900000E-01   1.00800           0
      2338 MEMB     14       DOPC     H2Y      HAL2     0.900000E-01   1.00800           0
      2339 MEMB     14       DOPC     C23      CTL2    -0.180000       12.0110           0
      2340 MEMB     14       DOPC     H3R      HAL2     0.900000E-01   1.00800           0
      2341 MEMB     14       DOPC     H3S      HAL2     0.900000E-01   1.00800           0
      2342 MEMB     14       DOPC     C24      CTL2    -0.180000       12.0110           0
      2343 MEMB     14       DOPC     H4R      HAL2     0.900000E-01   1.00800           0
      2344 MEMB     14       DOPC     H4S      HAL2     0.900000E-01   1.00800           0
      2345 MEMB     14       DOPC     C25      CTL2    -0.180000       12.0110           0
      2346 MEMB     14       DOPC     H5R      HAL2     0.900000E-01   1.00800           0
      2347 MEMB     14       DOPC     H5S      HAL2     0.900000E-01   1.00800           0
      2348 MEMB     14       DOPC     C26      CTL2    -0.180000       12.0110           0
      2349 MEMB     14       DOPC     H6R      HAL2     0.900000E-01   1.00800           0
      2350 MEMB     14       DOPC     H6S      HAL2     0.900000E-01   1.00800           0
      2351 MEMB     14       DOPC     C27      CTL2    -0.180000       12.0110           0
      2352 MEMB     14       DOPC     H7R      HAL2     0.900000E-01   1.00800           0
      2353 MEMB     14       DOPC     H7S      HAL2     0.900000E-01   1.00800           0
      2354 MEMB     14       DOPC     C28      CTL2    -0.180000       12.0110           0
      2355 MEMB     14       DOPC     H8R      HAL2     0.900000E-01   1.00800           0
      2356 MEMB     14       DOPC     H8S      HAL2     0.900000E-01   1.00800           0
      2357 MEMB     14       DOPC     C29      CEL1    -0.150000       12.0110           0
      2358 MEMB     14       DOPC     H9R      HEL1     0.150000       1.00800           0
      2359 MEMB     14       DOPC     C210     CEL1    -0.150000       12.0110           0
      2360 MEMB     14       DOPC     H10R     HEL1     0.150000       1.00800           0
      2361 MEMB     14       DOPC     C211     CTL2    -0.180000       12.0110           0
      2362 MEMB     14       DOPC     H11R     HAL2     0.900000E-01   1.00800           0
      2363 MEMB     14       DOPC     H11S     HAL2     0.900000E-01   1.00800           0
      2364 MEMB     14       DOPC     C212     CTL2    -0.180000       12.0110           0
      2365 MEMB     14       DOPC     H12R     HAL2     0.900000E-01   1.00800           0
      2366 MEMB     14       DOPC     H12S     HAL2     0.900000E-01   1.00800           0
      2367 MEMB     14       DOPC     C213     CTL2    -0.180000       12.0110           0
      2368 MEMB     14       DOPC     H13R     HAL2     0.900000E-01   1.00800           0
      2369 MEMB     14       DOPC     H13S     HAL2     0.900000E-01   1.00800           0
      2370 MEMB     14       DOPC     C214     CTL2    -0.180000       12.0110           0
      2371 MEMB     14       DOPC     H14R     HAL2     0.900000E-01   1.00800           0
      2372 MEMB     14       DOPC     H14S     HAL2     0.900000E-01   1.00800           0
      2373 MEMB     14       DOPC     C215     CTL2    -0.180000       12.0110           0
      2374 MEMB     14       DOPC     H15R     HAL2     0.900000E-01   1.00800           0
      2375 MEMB     14       DOPC     H15S     HAL2     0.900000E-01   1.00800           0
      2376 MEMB     14       DOPC     C216     CTL2    -0.180000       12.0110           0
      2377 MEMB     14       DOPC     H16R     HAL2     0.900000E-01   1.00800           0
      2378 MEMB     14       DOPC     H16S     HAL2     0.900000E-01   1.00800           0
      2379 MEMB     14       DOPC     C217     CTL2    -0.180000       12.0110           0
      2380 MEMB     14       DOPC     H17R     HAL2     0.900000E-01   1.00800           0
      2381 MEMB     14       DOPC     H17S     HAL2     0.900000E-01   1.00800           0
      2382 MEMB     14       DOPC     C218     CTL3    -0.270000       12.0110           0
      2383 MEMB     14       DOPC     H18R     HAL3     0.900000E-01   1.00800           0
      2384 MEMB     14       DOPC     H18S     HAL3     0.900000E-01   1.00800           0
      2385 MEMB     14       DOPC     H18T     HAL3     0.900000E-01   1.00800           0
      2386 MEMB     14       DOPC     C33      CTL2    -0.180000       12.0110           0
      2387 MEMB     14       DOPC     H3X      HAL2     0.900000E-01   1.00800           0
      2388 MEMB     14       DOPC     H3Y      HAL2     0.900000E-01   1.00800           0
      2389 MEMB     14       DOPC     C34      CTL2    -0.180000       12.0110           0
      2390 MEMB     14       DOPC     H4X      HAL2     0.900000E-01   1.00800           0
      2391 MEMB     14       DOPC     H4Y      HAL2     0.900000E-01   1.00800           0
      2392 MEMB     14       DOPC     C35      CTL2    -0.180000       12.0110           0
      2393 MEMB     14       DOPC     H5X      HAL2     0.900000E-01   1.00800           0
      2394 MEMB     14       DOPC     H5Y      HAL2     0.900000E-01   1.00800           0
      2395 MEMB     14       DOPC     C36      CTL2    -0.180000       12.0110           0
      2396 MEMB     14       DOPC     H6X      HAL2     0.900000E-01   1.00800           0
      2397 MEMB     14       DOPC     H6Y      HAL2     0.900000E-01   1.00800           0
      2398 MEMB     14       DOPC     C37      CTL2    -0.180000       12.0110           0
      2399 MEMB     14       DOPC     H7X      HAL2     0.900000E-01   1.00800           0
      2400 MEMB     14       DOPC     H7Y      HAL2     0.900000E-01   1.00800           0
      2401 MEMB     14       DOPC     C38      CTL2    -0.180000       12.0110           0
      2402 MEMB     14       DOPC     H8X      HAL2     0.900000E-01   1.00800           0
      2403 MEMB     14       DOPC     H8Y      HAL2     0.900000E-01   1.00800           0
      2404 MEMB     14       DOPC     C39      CEL1    -0.150000       12.0110           0
      2405 MEMB     14       DOPC     H9X      HEL1     0.150000       1.00800           0
      2406 MEMB     14       DOPC     C310     CEL1    -0.150000       12.0110           0
      2407 MEMB     14       DOPC     H10X     HEL1     0.150000       1.00800           0
      2408 MEMB     14       DOPC     C311     CTL2    -0.180000       12.0110           0
      2409 MEMB     14       DOPC     H11X     HAL2     0.900000E-01   1.00800           0
      2410 MEMB     14       DOPC     H11Y     HAL2     0.900000E-01   1.00800           0
      2411 MEMB     14       DOPC     C312     CTL2    -0.180000       12.0110           0
      2412 MEMB     14       DOPC     H12X     HAL2     0.900000E-01   1.00800           0
      2413 MEMB     14       DOPC     H12Y     HAL2     0.900000E-01   1.00800           0
      2414 MEMB     14       DOPC     C313     CTL2    -0.180000       12.0110           0
      2415 MEMB     14       DOPC     H13X     HAL2     0.900000E-01   1.00800           0
      2416 MEMB     14       DOPC     H13Y     HAL2     0.900000E-01   1.00800           0
      2417 MEMB     14       DOPC     C314     CTL2    -0.180000       12.0110           0
      2418 MEMB     14       DOPC     H14X     HAL2     0.900000E-01   1.00800           0
      2419 MEMB     14       DOPC     H14Y     HAL2     0.900000E-01   1.00800           0
      2420 MEMB     14       DOPC     C315     CTL2    -0.180000       12.0110           0
      2421 MEMB     14       DOPC     H15X     HAL2     0.900000E-01   1.00800           0
      2422 MEMB     14       DOPC     H15Y     HAL2     0.900000E-01   1.00800           0
      2423 MEMB     14       DOPC     C316     CTL2    -0.180000       12.0110           0
      2424 MEMB     14       DOPC     H16X     HAL2     0.900000E-01   1.00800           0
      2425 MEMB     14       DOPC     H16Y     HAL2     0.900000E-01   1.00800           0
      2426 MEMB     14       DOPC     C317     CTL2    -0.180000       12.0110           0
      2427 MEMB     14       DOPC     H17X     HAL2     0.900000E-01   1.00800           0
      2428 MEMB     14       DOPC     H17Y     HAL2     0.900000E-01   1.00800           0
      2429 MEMB     14       DOPC     C318     CTL3    -0.270000       12.0110           0
      2430 MEMB     14       DOPC     H18X     HAL3     0.900000E-01   1.00800           0
      2431 MEMB     14       DOPC     H18Y     HAL3     0.900000E-01   1.00800           0
      2432 MEMB     14       DOPC     H18Z     HAL3     0.900000E-01   1.00800           0
      2433 MEMB     15       DOPC     N        NTL     -0.600000       14.0070           0
      2434 MEMB     15       DOPC     C12      CTL2    -0.100000       12.0110           0
      2435 MEMB     15       DOPC     H12A     HL       0.250000       1.00800           0
      2436 MEMB     15       DOPC     H12B     HL       0.250000       1.00800           0
      2437 MEMB     15       DOPC     C13      CTL5    -0.350000       12.0110           0
      2438 MEMB     15       DOPC     H13A     HL       0.250000       1.00800           0
      2439 MEMB     15       DOPC     H13B     HL       0.250000       1.00800           0
      2440 MEMB     15       DOPC     H13C     HL       0.250000       1.00800           0
      2441 MEMB     15       DOPC     C14      CTL5    -0.350000       12.0110           0
      2442 MEMB     15       DOPC     H14A     HL       0.250000       1.00800           0
      2443 MEMB     15       DOPC     H14B     HL       0.250000       1.00800           0
      2444 MEMB     15       DOPC     H14C     HL       0.250000       1.00800           0
      2445 MEMB     15       DOPC     C15      CTL5    -0.350000       12.0110           0
      2446 MEMB     15       DOPC     H15A     HL       0.250000       1.00800           0
      2447 MEMB     15       DOPC     H15B     HL       0.250000       1.00800           0
      2448 MEMB     15       DOPC     H15C     HL       0.250000       1.00800           0
      2449 MEMB     15       DOPC     C11      CTL2    -0.800000E-01   12.0110           0
      2450 MEMB     15       DOPC     H11A     HAL2     0.900000E-01   1.00800           0
      2451 MEMB     15       DOPC     H11B     HAL2     0.900000E-01   1.00800           0
      2452 MEMB     15       DOPC     P        PL        1.50000       30.9740           0
      2453 MEMB     15       DOPC     O13      O2L     -0.780000       15.9994           0
      2454 MEMB     15       DOPC     O14      O2L     -0.780000       15.9994           0
      2455 MEMB     15       DOPC     O12      OSLP    -0.570000       15.9994           0
      2456 MEMB     15       DOPC     O11      OSLP    -0.570000       15.9994           0
      2457 MEMB     15       DOPC     C1       CTL2    -0.800000E-01   12.0110           0
      2458 MEMB     15       DOPC     HA       HAL2     0.900000E-01   1.00800           0
      2459 MEMB     15       DOPC     HB       HAL2     0.900000E-01   1.00800           0
      2460 MEMB     15       DOPC     C2       CTL1     0.170000       12.0110           0
      2461 MEMB     15       DOPC     HS       HAL1     0.900000E-01   1.00800           0
      2462 MEMB     15       DOPC     O21      OSL     -0.490000       15.9994           0
      2463 MEMB     15       DOPC     C21      CL       0.900000       12.0110           0
      2464 MEMB     15       DOPC     O22      OBL     -0.630000       15.9994           0
      2465 MEMB     15       DOPC     C22      CTL2    -0.220000       12.0110           0
      2466 MEMB     15       DOPC     H2R      HAL2     0.900000E-01   1.00800           0
      2467 MEMB     15       DOPC     H2S      HAL2     0.900000E-01   1.00800           0
      2468 MEMB     15       DOPC     C3       CTL2     0.800000E-01   12.0110           0
      2469 MEMB     15       DOPC     HX       HAL2     0.900000E-01   1.00800           0
      2470 MEMB     15       DOPC     HY       HAL2     0.900000E-01   1.00800           0
      2471 MEMB     15       DOPC     O31      OSL     -0.490000       15.9994           0
      2472 MEMB     15       DOPC     C31      CL       0.900000       12.0110           0
      2473 MEMB     15       DOPC     O32      OBL     -0.630000       15.9994           0
      2474 MEMB     15       DOPC     C32      CTL2    -0.220000       12.0110           0
      2475 MEMB     15       DOPC     H2X      HAL2     0.900000E-01   1.00800           0
      2476 MEMB     15       DOPC     H2Y      HAL2     0.900000E-01   1.00800           0
      2477 MEMB     15       DOPC     C23      CTL2    -0.180000       12.0110           0
      2478 MEMB     15       DOPC     H3R      HAL2     0.900000E-01   1.00800           0
      2479 MEMB     15       DOPC     H3S      HAL2     0.900000E-01   1.00800           0
      2480 MEMB     15       DOPC     C24      CTL2    -0.180000       12.0110           0
      2481 MEMB     15       DOPC     H4R      HAL2     0.900000E-01   1.00800           0
      2482 MEMB     15       DOPC     H4S      HAL2     0.900000E-01   1.00800           0
      2483 MEMB     15       DOPC     C25      CTL2    -0.180000       12.0110           0
      2484 MEMB     15       DOPC     H5R      HAL2     0.900000E-01   1.00800           0
      2485 MEMB     15       DOPC     H5S      HAL2     0.900000E-01   1.00800           0
      2486 MEMB     15       DOPC     C26      CTL2    -0.180000       12.0110           0
      2487 MEMB     15       DOPC     H6R      HAL2     0.900000E-01   1.00800           0
      2488 MEMB     15       DOPC     H6S      HAL2     0.900000E-01   1.00800           0
      2489 MEMB     15       DOPC     C27      CTL2    -0.180000       12.0110           0
      2490 MEMB     15       DOPC     H7R      HAL2     0.900000E-01   1.00800           0
      2491 MEMB     15       DOPC     H7S      HAL2     0.900000E-01   1.00800           0
      2492 MEMB     15       DOPC     C28      CTL2    -0.180000       12.0110           0
      2493 MEMB     15       DOPC     H8R      HAL2     0.900000E-01   1.00800           0
      2494 MEMB     15       DOPC     H8S      HAL2     0.900000E-01   1.00800           0
      2495 MEMB     15       DOPC     C29      CEL1    -0.150000       12.0110           0
      2496 MEMB     15       DOPC     H9R      HEL1     0.150000       1.00800           0
      2497 MEMB     15       DOPC     C210     CEL1    -0.150000       12.0110           0
      2498 MEMB     15       DOPC     H10R     HEL1     0.150000       1.00800           0
      2499 MEMB     15       DOPC     C211     CTL2    -0.180000       12.0110           0
      2500 MEMB     15       DOPC     H11R     HAL2     0.900000E-01   1.00800           0
      2501 MEMB     15       DOPC     H11S     HAL2     0.900000E-01   1.00800           0
      2502 MEMB     15       DOPC     C212     CTL2    -0.180000       12.0110           0
      2503 MEMB     15       DOPC     H12R     HAL2     0.900000E-01   1.00800           0
      2504 MEMB     15       DOPC     H12S     HAL2     0.900000E-01   1.00800           0
      2505 MEMB     15       DOPC     C213     CTL2    -0.180000       12.0110           0
      2506 MEMB     15       DOPC     H13R     HAL2     0.900000E-01   1.00800           0
      2507 MEMB     15       DOPC     H13S     HAL2     0.900000E-01   1.00800           0
      2508 MEMB     15       DOPC     C214     CTL2    -0.180000       12.0110           0
      2509 MEMB     15       DOPC     H14R     HAL2     0.900000E-01   1.00800           0
      2510 MEMB     15       DOPC     H14S     HAL2     0.900000E-01   1.00800           0
      2511 MEMB     15       DOPC     C215     CTL2    -0.180000       12.0110           0
      2512 MEMB     15       DOPC     H15R     HAL2     0.900000E-01   1.00800           0
      2513 MEMB     15       DOPC     H15S     HAL2     0.900000E-01   1.00800           0
      2514 MEMB     15       DOPC     C216     CTL2    -0.180000       12.0110           0
      2515 MEMB     15       DOPC     H16R     HAL2     0.900000E-01   1.00800           0
      2516 MEMB     15       DOPC     H16S     HAL2     0.900000E-01   1.00800           0
      2517 MEMB     15       DOPC     C217     CTL2    -0.180000       12.0110           0
      2518 MEMB     15       DOPC     H17R     HAL2     0.900000E-01   1.00800           0
      2519 MEMB     15       DOPC     H17S     HAL2     0.900000E-01   1.00800           0
      2520 MEMB     15       DOPC     C218     CTL3    -0.270000       12.0110           0
      2521 MEMB     15       DOPC     H18R     HAL3     0.900000E-01   1.00800           0
      2522 MEMB     15       DOPC     H18S     HAL3     0.900000E-01   1.00800           0
      2523 MEMB     15       DOPC     H18T     HAL3     0.900000E-01   1.00800           0
      2524 MEMB     15       DOPC     C33      CTL2    -0.180000       12.0110           0
      2525 MEMB     15       DOPC     H3X      HAL2     0.900000E-01   1.00800           0
      2526 MEMB     15       DOPC     H3Y      HAL2     0.900000E-01   1.00800           0
      2527 MEMB     15       DOPC     C34      CTL2    -0.180000       12.0110           0
      2528 MEMB     15       DOPC     H4X      HAL2     0.900000E-01   1.00800           0
      2529 MEMB     15       DOPC     H4Y      HAL2     0.900000E-01   1.00800           0
      2530 MEMB     15       DOPC     C35      CTL2    -0.180000       12.0110           0
      2531 MEMB     15       DOPC     H5X      HAL2     0.900000E-01   1.00800           0
      2532 MEMB     15       DOPC     H5Y      HAL2     0.900000E-01   1.00800           0
      2533 MEMB     15       DOPC     C36      CTL2    -0.180000       12.0110           0
      2534 MEMB     15       DOPC     H6X      HAL2     0.900000E-01   1.00800           0
      2535 MEMB     15       DOPC     H6Y      HAL2     0.900000E-01   1.00800           0
      2536 MEMB     15       DOPC     C37      CTL2    -0.180000       12.0110           0
      2537 MEMB     15       DOPC     H7X      HAL2     0.900000E-01   1.00800           0
      2538 MEMB     15       DOPC     H7Y      HAL2     0.900000E-01   1.00800           0
      2539 MEMB     15       DOPC     C38      CTL2    -0.180000       12.0110           0
      2540 MEMB     15       DOPC     H8X      HAL2     0.900000E-01   1.00800           0
      2541 MEMB     15       DOPC     H8Y      HAL2     0.900000E-01   1.00800           0
      2542 MEMB     15       DOPC     C39      CEL1    -0.150000       12.0110           0
      2543 MEMB     15       DOPC     H9X      HEL1     0.150000       1.00800           0
      2544 MEMB     15       DOPC     C310     CEL1    -0.150000       12.0110           0
      2545 MEMB     15       DOPC     H10X     HEL1     0.150000       1.00800           0
      2546 MEMB     15       DOPC     C311     CTL2    -0.180000       12.0110           0
      2547 MEMB     15       DOPC     H11X     HAL2     0.900000E-01   1.00800           0
      2548 MEMB     15       DOPC     H11Y     HAL2     0.900000E-01   1.00800           0
      2549 MEMB     15       DOPC     C312     CTL2    -0.180000       12.0110           0
      2550 MEMB     15       DOPC     H12X     HAL2     0.900000E-01   1.00800           0
      2551 MEMB     15       DOPC     H12Y     HAL2     0.900000E-01   1.00800           0
      2552 MEMB     15       DOPC     C313     CTL2    -0.180000       12.0110           0
      2553 MEMB     15       DOPC     H13X     HAL2     0.900000E-01   1.00800           0
      2554 MEMB     15       DOPC     H13Y     HAL2     0.900000E-01   1.00800           0
      2555 MEMB     15       DOPC     C314     CTL2    -0.180000       12.0110           0
      2556 MEMB     15       DOPC     H14X     HAL2     0.900000E-01   1.00800           0
      2557 MEMB     15       DOPC     H14Y     HAL2     0.900000E-01   1.00800           0
      2558 MEMB     15       DOPC     C315     CTL2    -0.180000       12.0110           0
      2559 MEMB     15       DOPC     H15X     HAL2     0.900000E-01   1.00800           0
      2560 MEMB     15       DOPC     H15Y     HAL2     0.900000E-01   1.00800           0
      2561 MEMB     15       DOPC     C316     CTL2    -0.180000       12.0110           0
      2562 MEMB     15       DOPC     H16X     HAL2     0.900000E-01   1.00800           0
      2563 MEMB     15       DOPC     H16Y     HAL2     0.900000E-01   1.00800           0
      2564 MEMB     15       DOPC     C317     CTL2    -0.180000       12.0110           0
      2565 MEMB     15       DOPC     H17X     HAL2     0.900000E-01   1.00800           0
      2566 MEMB     15       DOPC     H17Y     HAL2     0.900000E-01   1.00800           0
      2567 MEMB     15       DOPC     C318     CTL3    -0.270000       12.0110           0
      2568 MEMB     15       DOPC     H18X     HAL3     0.900000E-01   1.00800           0
      2569 MEMB     15       DOPC     H18Y     HAL3     0.900000E-01   1.00800           0
      2570 MEMB     15       DOPC     H18Z     HAL3     0.900000E-01   1.00800           0
      2571 MEMB     16       DOPC     N        NTL     -0.600000       14.0070           0
      2572 MEMB     16       DOPC     C12      CTL2    -0.100000       12.0110           0
      2573 MEMB     16       DOPC     H12A     HL       0.250000       1.00800           0
      2574 MEMB     16       DOPC     H12B     HL       0.250000       1.00800           0
      2575 MEMB     16       DOPC     C13      CTL5    -0.350000       12.0110           0
      2576 MEMB     16       DOPC     H13A     HL       0.250000       1.00800           0
      2577 MEMB     16       DOPC     H13B     HL       0.250000       1.00800           0
      2578 MEMB     16       DOPC     H13C     HL       0.250000       1.00800           0
      2579 MEMB     16       DOPC     C14      CTL5    -0.350000       12.0110           0
      2580 MEMB     16       DOPC     H14A     HL       0.250000       1.00800           0
      2581 MEMB     16       DOPC     H14B     HL       0.250000       1.00800           0
      2582 MEMB     16       DOPC     H14C     HL       0.250000       1.00800           0
      2583 MEMB     16       DOPC     C15      CTL5    -0.350000       12.0110           0
      2584 MEMB     16       DOPC     H15A     HL       0.250000       1.00800           0
      2585 MEMB     16       DOPC     H15B     HL       0.250000       1.00800           0
      2586 MEMB     16       DOPC     H15C     HL       0.250000       1.00800           0
      2587 MEMB     16       DOPC     C11      CTL2    -0.800000E-01   12.0110           0
      2588 MEMB     16       DOPC     H11A     HAL2     0.900000E-01   1.00800           0
      2589 MEMB     16       DOPC     H11B     HAL2     0.900000E-01   1.00800           0
      2590 MEMB     16       DOPC     P        PL        1.50000       30.9740           0
      2591 MEMB     16       DOPC     O13      O2L     -0.780000       15.9994           0
      2592 MEMB     16       DOPC     O14      O2L     -0.780000       15.9994           0
      2593 MEMB     16       DOPC     O12      OSLP    -0.570000       15.9994           0
      2594 MEMB     16       DOPC     O11      OSLP    -0.570000       15.9994           0
      2595 MEMB     16       DOPC     C1       CTL2    -0.800000E-01   12.0110           0
      2596 MEMB     16       DOPC     HA       HAL2     0.900000E-01   1.00800           0
      2597 MEMB     16       DOPC     HB       HAL2     0.900000E-01   1.00800           0
      2598 MEMB     16       DOPC     C2       CTL1     0.170000       12.0110           0
      2599 MEMB     16       DOPC     HS       HAL1     0.900000E-01   1.00800           0
      2600 MEMB     16       DOPC     O21      OSL     -0.490000       15.9994           0
      2601 MEMB     16       DOPC     C21      CL       0.900000       12.0110           0
      2602 MEMB     16       DOPC     O22      OBL     -0.630000       15.9994           0
      2603 MEMB     16       DOPC     C22      CTL2    -0.220000       12.0110           0
      2604 MEMB     16       DOPC     H2R      HAL2     0.900000E-01   1.00800           0
      2605 MEMB     16       DOPC     H2S      HAL2     0.900000E-01   1.00800           0
      2606 MEMB     16       DOPC     C3       CTL2     0.800000E-01   12.0110           0
      2607 MEMB     16       DOPC     HX       HAL2     0.900000E-01   1.00800           0
      2608 MEMB     16       DOPC     HY       HAL2     0.900000E-01   1.00800           0
      2609 MEMB     16       DOPC     O31      OSL     -0.490000       15.9994           0
      2610 MEMB     16       DOPC     C31      CL       0.900000       12.0110           0
      2611 MEMB     16       DOPC     O32      OBL     -0.630000       15.9994           0
      2612 MEMB     16       DOPC     C32      CTL2    -0.220000       12.0110           0
      2613 MEMB     16       DOPC     H2X      HAL2     0.900000E-01   1.00800           0
      2614 MEMB     16       DOPC     H2Y      HAL2     0.900000E-01   1.00800           0
      2615 MEMB     16       DOPC     C23      CTL2    -0.180000       12.0110           0
      2616 MEMB     16       DOPC     H3R      HAL2     0.900000E-01   1.00800           0
      2617 MEMB     16       DOPC     H3S      HAL2     0.900000E-01   1.00800           0
      2618 MEMB     16       DOPC     C24      CTL2    -0.180000       12.0110           0
      2619 MEMB     16       DOPC     H4R      HAL2     0.900000E-01   1.00800           0
      2620 MEMB     16       DOPC     H4S      HAL2     0.900000E-01   1.00800           0
      2621 MEMB     16       DOPC     C25      CTL2    -0.180000       12.0110           0
      2622 MEMB     16       DOPC     H5R      HAL2     0.900000E-01   1.00800           0
      2623 MEMB     16       DOPC     H5S      HAL2     0.900000E-01   1.00800           0
      2624 MEMB     16       DOPC     C26      CTL2    -0.180000       12.0110           0
      2625 MEMB     16       DOPC     H6R      HAL2     0.900000E-01   1.00800           0
      2626 MEMB     16       DOPC     H6S      HAL2     0.900000E-01   1.00800           0
      2627 MEMB     16       DOPC     C27      CTL2    -0.180000       12.0110           0
      2628 MEMB     16       DOPC     H7R      HAL2     0.900000E-01   1.00800           0
      2629 MEMB     16       DOPC     H7S      HAL2     0.900000E-01   1.00800           0
      2630 MEMB     16       DOPC     C28      CTL2    -0.180000       12.0110           0
      2631 MEMB     16       DOPC     H8R      HAL2     0.900000E-01   1.00800           0
      2632 MEMB     16       DOPC     H8S      HAL2     0.900000E-01   1.00800           0
      2633 MEMB     16       DOPC     C29      CEL1    -0.150000       12.0110           0
      2634 MEMB     16       DOPC     H9R      HEL1     0.150000       1.00800           0
      2635 MEMB     16       DOPC     C210     CEL1    -0.150000       12.0110           0
      2636 MEMB     16       DOPC     H10R     HEL1     0.150000       1.00800           0
      2637 MEMB     16       DOPC     C211     CTL2    -0.180000       12.0110           0
      2638 MEMB     16       DOPC     H11R     HAL2     0.900000E-01   1.00800           0
      2639 MEMB     16       DOPC     H11S     HAL2     0.900000E-01   1.00800           0
      2640 MEMB     16       DOPC     C212     CTL2    -0.180000       12.0110           0
      2641 MEMB     16       DOPC     H12R     HAL2     0.900000E-01   1.00800           0
      2642 MEMB     16       DOPC     H12S     HAL2     0.900000E-01   1.00800           0
      2643 MEMB     16       DOPC     C213     CTL2    -0.180000       12.0110           0
      2644 MEMB     16       DOPC     H13R     HAL2     0.900000E-01   1.00800           0
      2645 MEMB     16       DOPC     H13S     HAL2     0.900000E-01   1.00800           0
      2646 MEMB     16       DOPC     C214     CTL2    -0.180000       12.0110           0
      2647 MEMB     16       DOPC     H14R     HAL2     0.900000E-01   1.00800           0
      2648 MEMB     16       DOPC     H14S     HAL2     0.900000E-01   1.00800           0
      2649 MEMB     16       DOPC     C215     CTL2    -0.180000       12.0110           0
      2650 MEMB     16       DOPC     H15R     HAL2     0.900000E-01   1.00800           0
      2651 MEMB     16       DOPC     H15S     HAL2     0.900000E-01   1.00800           0
      2652 MEMB     16       DOPC     C216     CTL2    -0.180000       12.0110           0
      2653 MEMB     16       DOPC     H16R     HAL2     0.900000E-01   1.00800           0
      2654 MEMB     16       DOPC     H16S     HAL2     0.900000E-01   1.00800           0
      2655 MEMB     16       DOPC     C217     CTL2    -0.180000       12.0110           0
      2656 MEMB     16       DOPC     H17R     HAL2     0.900000E-01   1.00800           0
      2657 MEMB     16       DOPC     H17S     HAL2     0.900000E-01   1.00800           0
      2658 MEMB     16       DOPC     C218     CTL3    -0.270000       12.0110           0
      2659 MEMB     16       DOPC     H18R     HAL3     0.900000E-01   1.00800           0
      2660 MEMB     16       DOPC     H18S     HAL3     0.900000E-01   1.00800           0
      2661 MEMB     16       DOPC     H18T     HAL3     0.900000E-01   1.00800           0
      2662 MEMB     16       DOPC     C33      CTL2    -0.180000       12.0110           0
      2663 MEMB     16       DOPC     H3X      HAL2     0.900000E-01   1.00800           0
      2664 MEMB     16       DOPC     H3Y      HAL2     0.900000E-01   1.00800           0
      2665 MEMB     16       DOPC     C34      CTL2    -0.180000       12.0110           0
      2666 MEMB     16       DOPC     H4X      HAL2     0.900000E-01   1.00800           0
      2667 MEMB     16       DOPC     H4Y      HAL2     0.900000E-01   1.00800           0
      2668 MEMB     16       DOPC     C35      CTL2    -0.180000       12.0110           0
      2669 MEMB     16       DOPC     H5X      HAL2     0.900000E-01   1.00800           0
      2670 MEMB     16       DOPC     H5Y      HAL2     0.900000E-01   1.00800           0
      2671 MEMB     16       DOPC     C36      CTL2    -0.180000       12.0110           0
      2672 MEMB     16       DOPC     H6X      HAL2     0.900000E-01   1.00800           0
      2673 MEMB     16       DOPC     H6Y      HAL2     0.900000E-01   1.00800           0
      2674 MEMB     16       DOPC     C37      CTL2    -0.180000       12.0110           0
      2675 MEMB     16       DOPC     H7X      HAL2     0.900000E-01   1.00800           0
      2676 MEMB     16       DOPC     H7Y      HAL2     0.900000E-01   1.00800           0
      2677 MEMB     16       DOPC     C38      CTL2    -0.180000       12.0110           0
      2678 MEMB     16       DOPC     H8X      HAL2     0.900000E-01   1.00800           0
      2679 MEMB     16       DOPC     H8Y      HAL2     0.900000E-01   1.00800           0
      2680 MEMB     16       DOPC     C39      CEL1    -0.150000       12.0110           0
      2681 MEMB     16       DOPC     H9X      HEL1     0.150000       1.00800           0
      2682 MEMB     16       DOPC     C310     CEL1    -0.150000       12.0110           0
      2683 MEMB     16       DOPC     H10X     HEL1     0.150000       1.00800           0
      2684 MEMB     16       DOPC     C311     CTL2    -0.180000       12.0110           0
      2685 MEMB     16       DOPC     H11X     HAL2     0.900000E-01   1.00800           0
      2686 MEMB     16       DOPC     H11Y     HAL2     0.900000E-01   1.00800           0
      2687 MEMB     16       DOPC     C312     CTL2    -0.180000       12.0110           0
      2688 MEMB     16       DOPC     H12X     HAL2     0.900000E-01   1.00800           0
      2689 MEMB     16       DOPC     H12Y     HAL2     0.900000E-01   1.00800           0
      2690 MEMB     16       DOPC     C313     CTL2    -0.180000       12.0110           0
      2691 MEMB     16       DOPC     H13X     HAL2     0.900000E-01   1.00800           0
      2692 MEMB     16       DOPC     H13Y     HAL2     0.900000E-01   1.00800           0
      2693 MEMB     16       DOPC     C314     CTL2    -0.180000       12.0110           0
      2694 MEMB     16       DOPC     H14X     HAL2     0.900000E-01   1.00800           0
      2695 MEMB     16       DOPC     H14Y     HAL2     0.900000E-01   1.00800           0
      2696 MEMB     16       DOPC     C315     CTL2    -0.180000       12.0110           0
      2697 MEMB     16       DOPC     H15X     HAL2     0.900000E-01   1.00800           0
      2698 MEMB     16       DOPC     H15Y     HAL2     0.900000E-01   1.00800           0
      2699 MEMB     16       DOPC     C316     CTL2    -0.180000       12.0110           0
      2700 MEMB     16       DOPC     H16X     HAL2     0.900000E-01   1.00800           0
      2701 MEMB     16       DOPC     H16Y     HAL2     0.900000E-01   1.00800           0
      2702 MEMB     16       DOPC     C317     CTL2    -0.180000       12.0110           0
      2703 MEMB     16       DOPC     H17X     HAL2     0.900000E-01   1.00800           0
      2704 MEMB     16       DOPC     H17Y     HAL2     0.900000E-01   1.00800           0
      2705 MEMB     16       DOPC     C318     CTL3    -0.270000       12.0110           0
      2706 MEMB     16       DOPC     H18X     HAL3     0.900000E-01   1.00800           0
      2707 MEMB     16       DOPC     H18Y     HAL3     0.900000E-01   1.00800           0
      2708 MEMB     16       DOPC     H18Z     HAL3     0.900000E-01   1.00800           0
      2709 MEMB     17       DOPC     N        NTL     -0.600000       14.0070           0
      2710 MEMB     17       DOPC     C12      CTL2    -0.100000       12.0110           0
      2711 MEMB     17       DOPC     H12A     HL       0.250000       1.00800           0
      2712 MEMB     17       DOPC     H12B     HL       0.250000       1.00800           0
      2713 MEMB     17       DOPC     C13      CTL5    -0.350000       12.0110           0
      2714 MEMB     17       DOPC     H13A     HL       0.250000       1.00800           0
      2715 MEMB     17       DOPC     H13B     HL       0.250000       1.00800           0
      2716 MEMB     17       DOPC     H13C     HL       0.250000       1.00800           0
      2717 MEMB     17       DOPC     C14      CTL5    -0.350000       12.0110           0
      2718 MEMB     17       DOPC     H14A     HL       0.250000       1.00800           0
      2719 MEMB     17       DOPC     H14B     HL       0.250000       1.00800           0
      2720 MEMB     17       DOPC     H14C     HL       0.250000       1.00800           0
      2721 MEMB     17       DOPC     C15      CTL5    -0.350000       12.0110           0
      2722 MEMB     17       DOPC     H15A     HL       0.250000       1.00800           0
      2723 MEMB     17       DOPC     H15B     HL       0.250000       1.00800           0
      2724 MEMB     17       DOPC     H15C     HL       0.250000       1.00800           0
      2725 MEMB     17       DOPC     C11      CTL2    -0.800000E-01   12.0110           0
      2726 MEMB     17       DOPC     H11A     HAL2     0.900000E-01   1.00800           0
      2727 MEMB     17       DOPC     H11B     HAL2     0.900000E-01   1.00800           0
      2728 MEMB     17       DOPC     P        PL        1.50000       30.9740           0
      2729 MEMB     17       DOPC     O13      O2L     -0.780000       15.9994           0
      2730 MEMB     17       DOPC     O14      O2L     -0.780000       15.9994           0
      2731 MEMB     17       DOPC     O12      OSLP    -0.570000       15.9994           0
      2732 MEMB     17       DOPC     O11      OSLP    -0.570000       15.9994           0
      2733 MEMB     17       DOPC     C1       CTL2    -0.800000E-01   12.0110           0
      2734 MEMB     17       DOPC     HA       HAL2     0.900000E-01   1.00800           0
      2735 MEMB     17       DOPC     HB       HAL2     0.900000E-01   1.00800           0
      2736 MEMB     17       DOPC     C2       CTL1     0.170000       12.0110           0
      2737 MEMB     17       DOPC     HS       HAL1     0.900000E-01   1.00800           0
      2738 MEMB     17       DOPC     O21      OSL     -0.490000       15.9994           0
      2739 MEMB     17       DOPC     C21      CL       0.900000       12.0110           0
      2740 MEMB     17       DOPC     O22      OBL     -0.630000       15.9994           0
      2741 MEMB     17       DOPC     C22      CTL2    -0.220000       12.0110           0
      2742 MEMB     17       DOPC     H2R      HAL2     0.900000E-01   1.00800           0
      2743 MEMB     17       DOPC     H2S      HAL2     0.900000E-01   1.00800           0
      2744 MEMB     17       DOPC     C3       CTL2     0.800000E-01   12.0110           0
      2745 MEMB     17       DOPC     HX       HAL2     0.900000E-01   1.00800           0
      2746 MEMB     17       DOPC     HY       HAL2     0.900000E-01   1.00800           0
      2747 MEMB     17       DOPC     O31      OSL     -0.490000       15.9994           0
      2748 MEMB     17       DOPC     C31      CL       0.900000       12.0110           0
      2749 MEMB     17       DOPC     O32      OBL     -0.630000       15.9994           0
      2750 MEMB     17       DOPC     C32      CTL2    -0.220000       12.0110           0
      2751 MEMB     17       DOPC     H2X      HAL2     0.900000E-01   1.00800           0
      2752 MEMB     17       DOPC     H2Y      HAL2     0.900000E-01   1.00800           0
      2753 MEMB     17       DOPC     C23      CTL2    -0.180000       12.0110           0
      2754 MEMB     17       DOPC     H3R      HAL2     0.900000E-01   1.00800           0
      2755 MEMB     17       DOPC     H3S      HAL2     0.900000E-01   1.00800           0
      2756 MEMB     17       DOPC     C24      CTL2    -0.180000       12.0110           0
      2757 MEMB     17       DOPC     H4R      HAL2     0.900000E-01   1.00800           0
      2758 MEMB     17       DOPC     H4S      HAL2     0.900000E-01   1.00800           0
      2759 MEMB     17       DOPC     C25      CTL2    -0.180000       12.0110           0
      2760 MEMB     17       DOPC     H5R      HAL2     0.900000E-01   1.00800           0
      2761 MEMB     17       DOPC     H5S      HAL2     0.900000E-01   1.00800           0
      2762 MEMB     17       DOPC     C26      CTL2    -0.180000       12.0110           0
      2763 MEMB     17       DOPC     H6R      HAL2     0.900000E-01   1.00800           0
      2764 MEMB     17       DOPC     H6S      HAL2     0.900000E-01   1.00800           0
      2765 MEMB     17       DOPC     C27      CTL2    -0.180000       12.0110           0
      2766 MEMB     17       DOPC     H7R      HAL2     0.900000E-01   1.00800           0
      2767 MEMB     17       DOPC     H7S      HAL2     0.900000E-01   1.00800           0
      2768 MEMB     17       DOPC     C28      CTL2    -0.180000       12.0110           0
      2769 MEMB     17       DOPC     H8R      HAL2     0.900000E-01   1.00800           0
      2770 MEMB     17       DOPC     H8S      HAL2     0.900000E-01   1.00800           0
      2771 MEMB     17       DOPC     C29      CEL1    -0.150000       12.0110           0
      2772 MEMB     17       DOPC     H9R      HEL1     0.150000       1.00800           0
      2773 MEMB     17       DOPC     C210     CEL1    -0.150000       12.0110           0
      2774 MEMB     17       DOPC     H10R     HEL1     0.150000       1.00800           0
      2775 MEMB     17       DOPC     C211     CTL2    -0.180000       12.0110           0
      2776 MEMB     17       DOPC     H11R     HAL2     0.900000E-01   1.00800           0
      2777 MEMB     17       DOPC     H11S     HAL2     0.900000E-01   1.00800           0
      2778 MEMB     17       DOPC     C212     CTL2    -0.180000       12.0110           0
      2779 MEMB     17       DOPC     H12R     HAL2     0.900000E-01   1.00800           0
      2780 MEMB     17       DOPC     H12S     HAL2     0.900000E-01   1.00800           0
      2781 MEMB     17       DOPC     C213     CTL2    -0.180000       12.0110           0
      2782 MEMB     17       DOPC     H13R     HAL2     0.900000E-01   1.00800           0
      2783 MEMB     17       DOPC     H13S     HAL2     0.900000E-01   1.00800           0
      2784 MEMB     17       DOPC     C214     CTL2    -0.180000       12.0110           0
      2785 MEMB     17       DOPC     H14R     HAL2     0.900000E-01   1.00800           0
      2786 MEMB     17       DOPC     H14S     HAL2     0.900000E-01   1.00800           0
      2787 MEMB     17       DOPC     C215     CTL2    -0.180000       12.0110           0
      2788 MEMB     17       DOPC     H15R     HAL2     0.900000E-01   1.00800           0
      2789 MEMB     17       DOPC     H15S     HAL2     0.900000E-01   1.00800           0
      2790 MEMB     17       DOPC     C216     CTL2    -0.180000       12.0110           0
      2791 MEMB     17       DOPC     H16R     HAL2     0.900000E-01   1.00800           0
      2792 MEMB     17       DOPC     H16S     HAL2     0.900000E-01   1.00800           0
      2793 MEMB     17       DOPC     C217     CTL2    -0.180000       12.0110           0
      2794 MEMB     17       DOPC     H17R     HAL2     0.900000E-01   1.00800           0
      2795 MEMB     17       DOPC     H17S     HAL2     0.900000E-01   1.00800           0
      2796 MEMB     17       DOPC     C218     CTL3    -0.270000       12.0110           0
      2797 MEMB     17       DOPC     H18R     HAL3     0.900000E-01   1.00800           0
      2798 MEMB     17       DOPC     H18S     HAL3     0.900000E-01   1.00800           0
      2799 MEMB     17       DOPC     H18T     HAL3     0.900000E-01   1.00800           0
      2800 MEMB     17       DOPC     C33      CTL2    -0.180000       12.0110           0
      2801 MEMB     17       DOPC     H3X      HAL2     0.900000E-01   1.00800           0
      2802 MEMB     17       DOPC     H3Y      HAL2     0.900000E-01   1.00800           0
      2803 MEMB     17       DOPC     C34      CTL2    -0.180000       12.0110           0
      2804 MEMB     17       DOPC     H4X      HAL2     0.900000E-01   1.00800           0
      2805 MEMB     17       DOPC     H4Y      HAL2     0.900000E-01   1.00800           0
      2806 MEMB     17       DOPC     C35      CTL2    -0.180000       12.0110           0
      2807 MEMB     17       DOPC     H5X      HAL2     0.900000E-01   1.00800           0
      2808 MEMB     17       DOPC     H5Y      HAL2     0.900000E-01   1.00800           0
      2809 MEMB     17       DOPC     C36      CTL2    -0.180000       12.0110           0
      2810 MEMB     17       DOPC     H6X      HAL2     0.900000E-01   1.00800           0
      2811 MEMB     17       DOPC     H6Y      HAL2     0.900000E-01   1.00800           0
      2812 MEMB     17       DOPC     C37      CTL2    -0.180000       12.0110           0
      2813 MEMB     17       DOPC     H7X      HAL2     0.900000E-01   1.00800           0
      2814 MEMB     17       DOPC     H7Y      HAL2     0.900000E-01   1.00800           0
      2815 MEMB     17       DOPC     C38      CTL2    -0.180000       12.0110           0
      2816 MEMB     17       DOPC     H8X      HAL2     0.900000E-01   1.00800           0
      2817 MEMB     17       DOPC     H8Y      HAL2     0.900000E-01   1.00800           0
      2818 MEMB     17       DOPC     C39      CEL1    -0.150000       12.0110           0
      2819 MEMB     17       DOPC     H9X      HEL1     0.150000       1.00800           0
      2820 MEMB     17       DOPC     C310     CEL1    -0.150000       12.0110           0
      2821 MEMB     17       DOPC     H10X     HEL1     0.150000       1.00800           0
      2822 MEMB     17       DOPC     C311     CTL2    -0.180000       12.0110           0
      2823 MEMB     17       DOPC     H11X     HAL2     0.900000E-01   1.00800           0
      2824 MEMB     17       DOPC     H11Y     HAL2     0.900000E-01   1.00800           0
      2825 MEMB     17       DOPC     C312     CTL2    -0.180000       12.0110           0
      2826 MEMB     17       DOPC     H12X     HAL2     0.900000E-01   1.00800           0
      2827 MEMB     17       DOPC     H12Y     HAL2     0.900000E-01   1.00800           0
      2828 MEMB     17       DOPC     C313     CTL2    -0.180000       12.0110           0
      2829 MEMB     17       DOPC     H13X     HAL2     0.900000E-01   1.00800           0
      2830 MEMB     17       DOPC     H13Y     HAL2     0.900000E-01   1.00800           0
      2831 MEMB     17       DOPC     C314     CTL2    -0.180000       12.0110           0
      2832 MEMB     17       DOPC     H14X     HAL2     0.900000E-01   1.00800           0
      2833 MEMB     17       DOPC     H14Y     HAL2     0.900000E-01   1.00800           0
      2834 MEMB     17       DOPC     C315     CTL2    -0.180000       12.0110           0
      2835 MEMB     17       DOPC     H15X     HAL2     0.900000E-01   1.00800           0
      2836 MEMB     17       DOPC     H15Y     HAL2     0.900000E-01   1.00800           0
      2837 MEMB     17       DOPC     C316     CTL2    -0.180000       12.0110           0
      2838 MEMB     17       DOPC     H16X     HAL2     0.900000E-01   1.00800           0
      2839 MEMB     17       DOPC     H16Y     HAL2     0.900000E-01   1.00800           0
      2840 MEMB     17       DOPC     C317     CTL2    -0.180000       12.0110           0
      2841 MEMB     17       DOPC     H17X     HAL2     0.900000E-01   1.00800           0
      2842 MEMB     17       DOPC     H17Y     HAL2     0.900000E-01   1.00800           0
      2843 MEMB     17       DOPC     C318     CTL3    -0.270000       12.0110           0
      2844 MEMB     17       DOPC     H18X     HAL3     0.900000E-01   1.00800           0
      2845 MEMB     17       DOPC     H18Y     HAL3     0.900000E-01   1.00800           0
      2846 MEMB     17       DOPC     H18Z     HAL3     0.900000E-01   1.00800           0
      2847 MEMB     18       DOPC     N        NTL     -0.600000       14.0070           0
      2848 MEMB     18       DOPC     C12      CTL2    -0.100000       12.0110           0
      2849 MEMB     18       DOPC     H12A     HL       0.250000       1.00800           0
      2850 MEMB     18       DOPC     H12B     HL       0.250000       1.00800           0
      2851 MEMB     18       DOPC     C13      CTL5    -0.350000       12.0110           0
      2852 MEMB     18       DOPC     H13A     HL       0.250000       1.00800           0
      2853 MEMB     18       DOPC     H13B     HL       0.250000       1.00800           0
      2854 MEMB     18       DOPC     H13C     HL       0.250000       1.00800           0
      2855 MEMB     18       DOPC     C14      CTL5    -0.350000       12.0110           0
      2856 MEMB     18       DOPC     H14A     HL       0.250000       1.00800           0
      2857 MEMB     18       DOPC     H14B     HL       0.250000       1.00800           0
      2858 MEMB     18       DOPC     H14C     HL       0.250000       1.00800           0
      2859 MEMB     18       DOPC     C15      CTL5    -0.350000       12.0110           0
      2860 MEMB     18       DOPC     H15A     HL       0.250000       1.00800           0
      2861 MEMB     18       DOPC     H15B     HL       0.250000       1.00800           0
      2862 MEMB     18       DOPC     H15C     HL       0.250000       1.00800           0
      2863 MEMB     18       DOPC     C11      CTL2    -0.800000E-01   12.0110           0
      2864 MEMB     18       DOPC     H11A     HAL2     0.900000E-01   1.00800           0
      2865 MEMB     18       DOPC     H11B     HAL2     0.900000E-01   1.00800           0
      2866 MEMB     18       DOPC     P        PL        1.50000       30.9740           0
      2867 MEMB     18       DOPC     O13      O2L     -0.780000       15.9994           0
      2868 MEMB     18       DOPC     O14      O2L     -0.780000       15.9994           0
      2869 MEMB     18       DOPC     O12      OSLP    -0.570000       15.9994           0
      2870 MEMB     18       DOPC     O11      OSLP    -0.570000       15.9994           0
      2871 MEMB     18       DOPC     C1       CTL2    -0.800000E-01   12.0110           0
      2872 MEMB     18       DOPC     HA       HAL2     0.900000E-01   1.00800           0
      2873 MEMB     18       DOPC     HB       HAL2     0.900000E-01   1.00800           0
      2874 MEMB     18       DOPC     C2       CTL1     0.170000       12.0110           0
      2875 MEMB     18       DOPC     HS       HAL1     0.900000E-01   1.00800           0
      2876 MEMB     18       DOPC     O21      OSL     -0.490000       15.9994           0
      2877 MEMB     18       DOPC     C21      CL       0.900000       12.0110           0
      2878 MEMB     18       DOPC     O22      OBL     -0.630000       15.9994           0
      2879 MEMB     18       DOPC     C22      CTL2    -0.220000       12.0110           0
      2880 MEMB     18       DOPC     H2R      HAL2     0.900000E-01   1.00800           0
      2881 MEMB     18       DOPC     H2S      HAL2     0.900000E-01   1.00800           0
      2882 MEMB     18       DOPC     C3       CTL2     0.800000E-01   12.0110           0
      2883 MEMB     18       DOPC     HX       HAL2     0.900000E-01   1.00800           0
      2884 MEMB     18       DOPC     HY       HAL2     0.900000E-01   1.00800           0
      2885 MEMB     18       DOPC     O31      OSL     -0.490000       15.9994           0
      2886 MEMB     18       DOPC     C31      CL       0.900000       12.0110           0
      2887 MEMB     18       DOPC     O32      OBL     -0.630000       15.9994           0
      2888 MEMB     18       DOPC     C32      CTL2    -0.220000       12.0110           0
      2889 MEMB     18       DOPC     H2X      HAL2     0.900000E-01   1.00800           0
      2890 MEMB     18       DOPC     H2Y      HAL2     0.900000E-01   1.00800           0
      2891 MEMB     18       DOPC     C23      CTL2    -0.180000       12.0110           0
      2892 MEMB     18       DOPC     H3R      HAL2     0.900000E-01   1.00800           0
      2893 MEMB     18       DOPC     H3S      HAL2     0.900000E-01   1.00800           0
      2894 MEMB     18       DOPC     C24      CTL2    -0.180000       12.0110           0
      2895 MEMB     18       DOPC     H4R      HAL2     0.900000E-01   1.00800           0
      2896 MEMB     18       DOPC     H4S      HAL2     0.900000E-01   1.00800           0
      2897 MEMB     18       DOPC     C25      CTL2    -0.180000       12.0110           0
      2898 MEMB     18       DOPC     H5R      HAL2     0.900000E-01   1.00800           0
      2899 MEMB     18       DOPC     H5S      HAL2     0.900000E-01   1.00800           0
      2900 MEMB     18       DOPC     C26      CTL2    -0.180000       12.0110           0
      2901 MEMB     18       DOPC     H6R      HAL2     0.900000E-01   1.00800           0
      2902 MEMB     18       DOPC     H6S      HAL2     0.900000E-01   1.00800           0
      2903 MEMB     18       DOPC     C27      CTL2    -0.180000       12.0110           0
      2904 MEMB     18       DOPC     H7R      HAL2     0.900000E-01   1.00800           0
      2905 MEMB     18       DOPC     H7S      HAL2     0.900000E-01   1.00800           0
      2906 MEMB     18       DOPC     C28      CTL2    -0.180000       12.0110           0
      2907 MEMB     18       DOPC     H8R      HAL2     0.900000E-01   1.00800           0
      2908 MEMB     18       DOPC     H8S      HAL2     0.900000E-01   1.00800           0
      2909 MEMB     18       DOPC     C29      CEL1    -0.150000       12.0110           0
      2910 MEMB     18       DOPC     H9R      HEL1     0.150000       1.00800           0
      2911 MEMB     18       DOPC     C210     CEL1    -0.150000       12.0110           0
      2912 MEMB     18       DOPC     H10R     HEL1     0.150000       1.00800           0
      2913 MEMB     18       DOPC     C211     CTL2    -0.180000       12.0110           0
      2914 MEMB     18       DOPC     H11R     HAL2     0.900000E-01   1.00800           0
      2915 MEMB     18       DOPC     H11S     HAL2     0.900000E-01   1.00800           0
      2916 MEMB     18       DOPC     C212     CTL2    -0.180000       12.0110           0
      2917 MEMB     18       DOPC     H12R     HAL2     0.900000E-01   1.00800           0
      2918 MEMB     18       DOPC     H12S     HAL2     0.900000E-01   1.00800           0
      2919 MEMB     18       DOPC     C213     CTL2    -0.180000       12.0110           0
      2920 MEMB     18       DOPC     H13R     HAL2     0.900000E-01   1.00800           0
      2921 MEMB     18       DOPC     H13S     HAL2     0.900000E-01   1.00800           0
      2922 MEMB     18       DOPC     C214     CTL2    -0.180000       12.0110           0
      2923 MEMB     18       DOPC     H14R     HAL2     0.900000E-01   1.00800           0
      2924 MEMB     18       DOPC     H14S     HAL2     0.900000E-01   1.00800           0
      2925 MEMB     18       DOPC     C215     CTL2    -0.180000       12.0110           0
      2926 MEMB     18       DOPC     H15R     HAL2     0.900000E-01   1.00800           0
      2927 MEMB     18       DOPC     H15S     HAL2     0.900000E-01   1.00800           0
      2928 MEMB     18       DOPC     C216     CTL2    -0.180000       12.0110           0
      2929 MEMB     18       DOPC     H16R     HAL2     0.900000E-01   1.00800           0
      2930 MEMB     18       DOPC     H16S     HAL2     0.900000E-01   1.00800           0
      2931 MEMB     18       DOPC     C217     CTL2    -0.180000       12.0110           0
      2932 MEMB     18       DOPC     H17R     HAL2     0.900000E-01   1.00800           0
      2933 MEMB     18       DOPC     H17S     HAL2     0.900000E-01   1.00800           0
      2934 MEMB     18       DOPC     C218     CTL3    -0.270000       12.0110           0
      2935 MEMB     18       DOPC     H18R     HAL3     0.900000E-01   1.00800           0
      2936 MEMB     18       DOPC     H18S     HAL3     0.900000E-01   1.00800           0
      2937 MEMB     18       DOPC     H18T     HAL3     0.900000E-01   1.00800           0
      2938 MEMB     18       DOPC     C33      CTL2    -0.180000       12.0110           0
      2939 MEMB     18       DOPC     H3X      HAL2     0.900000E-01   1.00800           0
      2940 MEMB     18       DOPC     H3Y      HAL2     0.900000E-01   1.00800           0
      2941 MEMB     18       DOPC     C34      CTL2    -0.180000       12.0110           0
      2942 MEMB     18       DOPC     H4X      HAL2     0.900000E-01   1.00800           0
      2943 MEMB     18       DOPC     H4Y      HAL2     0.900000E-01   1.00800           0
      2944 MEMB     18       DOPC     C35      CTL2    -0.180000       12.0110           0
      2945 MEMB     18       DOPC     H5X      HAL2     0.900000E-01   1.00800           0
      2946 MEMB     18       DOPC     H5Y      HAL2     0.900000E-01   1.00800           0
      2947 MEMB     18       DOPC     C36      CTL2    -0.180000       12.0110           0
      2948 MEMB     18       DOPC     H6X      HAL2     0.900000E-01   1.00800           0
      2949 MEMB     18       DOPC     H6Y      HAL2     0.900000E-01   1.00800           0
      2950 MEMB     18       DOPC     C37      CTL2    -0.180000       12.0110           0
      2951 MEMB     18       DOPC     H7X      HAL2     0.900000E-01   1.00800           0
      2952 MEMB     18       DOPC     H7Y      HAL2     0.900000E-01   1.00800           0
      2953 MEMB     18       DOPC     C38      CTL2    -0.180000       12.0110           0
      2954 MEMB     18       DOPC     H8X      HAL2     0.900000E-01   1.00800           0
      2955 MEMB     18       DOPC     H8Y      HAL2     0.900000E-01   1.00800           0
      2956 MEMB     18       DOPC     C39      CEL1    -0.150000       12.0110           0
      2957 MEMB     18       DOPC     H9X      HEL1     0.150000       1.00800           0
      2958 MEMB     18       DOPC     C310     CEL1    -0.150000       12.0110           0
      2959 MEMB     18       DOPC     H10X     HEL1     0.150000       1.00800           0
      2960 MEMB     18       DOPC     C311     CTL2    -0.180000       12.0110           0
      2961 MEMB     18       DOPC     H11X     HAL2     0.900000E-01   1.00800           0
      2962 MEMB     18       DOPC     H11Y     HAL2     0.900000E-01   1.00800           0
      2963 MEMB     18       DOPC     C312     CTL2    -0.180000       12.0110           0
      2964 MEMB     18       DOPC     H12X     HAL2     0.900000E-01   1.00800           0
      2965 MEMB     18       DOPC     H12Y     HAL2     0.900000E-01   1.00800           0
      2966 MEMB     18       DOPC     C313     CTL2    -0.180000       12.0110           0
      2967 MEMB     18       DOPC     H13X     HAL2     0.900000E-01   1.00800           0
      2968 MEMB     18       DOPC     H13Y     HAL2     0.900000E-01   1.00800           0
      2969 MEMB     18       DOPC     C314     CTL2    -0.180000       12.0110           0
      2970 MEMB     18       DOPC     H14X     HAL2     0.900000E-01   1.00800           0
      2971 MEMB     18       DOPC     H14Y     HAL2     0.900000E-01   1.00800           0
      2972 MEMB     18       DOPC     C315     CTL2    -0.180000       12.0110           0
      2973 MEMB     18       DOPC     H15X     HAL2     0.900000E-01   1.00800           0
      2974 MEMB     18       DOPC     H15Y     HAL2     0.900000E-01   1.00800           0
      2975 MEMB     18       DOPC     C316     CTL2    -0.180000       12.0110           0
      2976 MEMB     18       DOPC     H16X     HAL2     0.900000E-01   1.00800           0
      2977 MEMB     18       DOPC     H16Y     HAL2     0.900000E-01   1.00800           0
      2978 MEMB     18       DOPC     C317     CTL2    -0.180000       12.0110           0
      2979 MEMB     18       DOPC     H17X     HAL2     0.900000E-01   1.00800           0
      2980 MEMB     18       DOPC     H17Y     HAL2     0.900000E-01   1.00800           0
      2981 MEMB     18       DOPC     C318     CTL3    -0.270000       12.0110           0
      2982 MEMB     18       DOPC     H18X     HAL3     0.900000E-01   1.00800           0
      2983 MEMB     18       DOPC     H18Y     HAL3     0.900000E-01   1.00800           0
      2984 MEMB     18       DOPC     H18Z     HAL3     0.900000E-01   1.00800           0
      2985 MEMB     19       DOPC     N        NTL     -0.600000       14.0070           0
      2986 MEMB     19       DOPC     C12      CTL2    -0.100000       12.0110           0
      2987 MEMB     19       DOPC     H12A     HL       0.250000       1.00800           0
      2988 MEMB     19       DOPC     H12B     HL       0.250000       1.00800           0
      2989 MEMB     19       DOPC     C13      CTL5    -0.350000       12.0110           0
      2990 MEMB     19       DOPC     H13A     HL       0.250000       1.00800           0
      2991 MEMB     19       DOPC     H13B     HL       0.250000       1.00800           0
      2992 MEMB     19       DOPC     H13C     HL       0.250000       1.00800           0
      2993 MEMB     19       DOPC     C14      CTL5    -0.350000       12.0110           0
      2994 MEMB     19       DOPC     H14A     HL       0.250000       1.00800           0
      2995 MEMB     19       DOPC     H14B     HL       0.250000       1.00800           0
      2996 MEMB     19       DOPC     H14C     HL       0.250000       1.00800           0
      2997 MEMB     19       DOPC     C15      CTL5    -0.350000       12.0110           0
      2998 MEMB     19       DOPC     H15A     HL       0.250000       1.00800           0
      2999 MEMB     19       DOPC     H15B     HL       0.250000       1.00800           0
      3000 MEMB     19       DOPC     H15C     HL       0.250000       1.00800           0
      3001 MEMB     19       DOPC     C11      CTL2    -0.800000E-01   12.0110           0
      3002 MEMB     19       DOPC     H11A     HAL2     0.900000E-01   1.00800           0
      3003 MEMB     19       DOPC     H11B     HAL2     0.900000E-01   1.00800           0
      3004 MEMB     19       DOPC     P        PL        1.50000       30.9740           0
      3005 MEMB     19       DOPC     O13      O2L     -0.780000       15.9994           0
      3006 MEMB     19       DOPC     O14      O2L     -0.780000       15.9994           0
      3007 MEMB     19       DOPC     O12      OSLP    -0.570000       15.9994           0
      3008 MEMB     19       DOPC     O11      OSLP    -0.570000       15.9994           0
      3009 MEMB     19       DOPC     C1       CTL2    -0.800000E-01   12.0110           0
      3010 MEMB     19       DOPC     HA       HAL2     0.900000E-01   1.00800           0
      3011 MEMB     19       DOPC     HB       HAL2     0.900000E-01   1.00800           0
      3012 MEMB     19       DOPC     C2       CTL1     0.170000       12.0110           0
      3013 MEMB     19       DOPC     HS       HAL1     0.900000E-01   1.00800           0
      3014 MEMB     19       DOPC     O21      OSL     -0.490000       15.9994           0
      3015 MEMB     19       DOPC     C21      CL       0.900000       12.0110           0
      3016 MEMB     19       DOPC     O22      OBL     -0.630000       15.9994           0
      3017 MEMB     19       DOPC     C22      CTL2    -0.220000       12.0110           0
      3018 MEMB     19       DOPC     H2R      HAL2     0.900000E-01   1.00800           0
      3019 MEMB     19       DOPC     H2S      HAL2     0.900000E-01   1.00800           0
      3020 MEMB     19       DOPC     C3       CTL2     0.800000E-01   12.0110           0
      3021 MEMB     19       DOPC     HX       HAL2     0.900000E-01   1.00800           0
      3022 MEMB     19       DOPC     HY       HAL2     0.900000E-01   1.00800           0
      3023 MEMB     19       DOPC     O31      OSL     -0.490000       15.9994           0
      3024 MEMB     19       DOPC     C31      CL       0.900000       12.0110           0
      3025 MEMB     19       DOPC     O32      OBL     -0.630000       15.9994           0
      3026 MEMB     19       DOPC     C32      CTL2    -0.220000       12.0110           0
      3027 MEMB     19       DOPC     H2X      HAL2     0.900000E-01   1.00800           0
      3028 MEMB     19       DOPC     H2Y      HAL2     0.900000E-01   1.00800           0
      3029 MEMB     19       DOPC     C23      CTL2    -0.180000       12.0110           0
      3030 MEMB     19       DOPC     H3R      HAL2     0.900000E-01   1.00800           0
      3031 MEMB     19       DOPC     H3S      HAL2     0.900000E-01   1.00800           0
      3032 MEMB     19       DOPC     C24      CTL2    -0.180000       12.0110           0
      3033 MEMB     19       DOPC     H4R      HAL2     0.900000E-01   1.00800           0
      3034 MEMB     19       DOPC     H4S      HAL2     0.900000E-01   1.00800           0
      3035 MEMB     19       DOPC     C25      CTL2    -0.180000       12.0110           0
      3036 MEMB     19       DOPC     H5R      HAL2     0.900000E-01   1.00800           0
      3037 MEMB     19       DOPC     H5S      HAL2     0.900000E-01   1.00800           0
      3038 MEMB     19       DOPC     C26      CTL2    -0.180000       12.0110           0
      3039 MEMB     19       DOPC     H6R      HAL2     0.900000E-01   1.00800           0
      3040 MEMB     19       DOPC     H6S      HAL2     0.900000E-01   1.00800           0
      3041 MEMB     19       DOPC     C27      CTL2    -0.180000       12.0110           0
      3042 MEMB     19       DOPC     H7R      HAL2     0.900000E-01   1.00800           0
      3043 MEMB     19       DOPC     H7S      HAL2     0.900000E-01   1.00800           0
      3044 MEMB     19       DOPC     C28      CTL2    -0.180000       12.0110           0
      3045 MEMB     19       DOPC     H8R      HAL2     0.900000E-01   1.00800           0
      3046 MEMB     19       DOPC     H8S      HAL2     0.900000E-01   1.00800           0
      3047 MEMB     19       DOPC     C29      CEL1    -0.150000       12.0110           0
      3048 MEMB     19       DOPC     H9R      HEL1     0.150000       1.00800           0
      3049 MEMB     19       DOPC     C210     CEL1    -0.150000       12.0110           0
      3050 MEMB     19       DOPC     H10R     HEL1     0.150000       1.00800           0
      3051 MEMB     19       DOPC     C211     CTL2    -0.180000       12.0110           0
      3052 MEMB     19       DOPC     H11R     HAL2     0.900000E-01   1.00800           0
      3053 MEMB     19       DOPC     H11S     HAL2     0.900000E-01   1.00800           0
      3054 MEMB     19       DOPC     C212     CTL2    -0.180000       12.0110           0
      3055 MEMB     19       DOPC     H12R     HAL2     0.900000E-01   1.00800           0
      3056 MEMB     19       DOPC     H12S     HAL2     0.900000E-01   1.00800           0
      3057 MEMB     19       DOPC     C213     CTL2    -0.180000       12.0110           0
      3058 MEMB     19       DOPC     H13R     HAL2     0.900000E-01   1.00800           0
      3059 MEMB     19       DOPC     H13S     HAL2     0.900000E-01   1.00800           0
      3060 MEMB     19       DOPC     C214     CTL2    -0.180000       12.0110           0
      3061 MEMB     19       DOPC     H14R     HAL2     0.900000E-01   1.00800           0
      3062 MEMB     19       DOPC     H14S     HAL2     0.900000E-01   1.00800           0
      3063 MEMB     19       DOPC     C215     CTL2    -0.180000       12.0110           0
      3064 MEMB     19       DOPC     H15R     HAL2     0.900000E-01   1.00800           0
      3065 MEMB     19       DOPC     H15S     HAL2     0.900000E-01   1.00800           0
      3066 MEMB     19       DOPC     C216     CTL2    -0.180000       12.0110           0
      3067 MEMB     19       DOPC     H16R     HAL2     0.900000E-01   1.00800           0
      3068 MEMB     19       DOPC     H16S     HAL2     0.900000E-01   1.00800           0
      3069 MEMB     19       DOPC     C217     CTL2    -0.180000       12.0110           0
      3070 MEMB     19       DOPC     H17R     HAL2     0.900000E-01   1.00800           0
      3071 MEMB     19       DOPC     H17S     HAL2     0.900000E-01   1.00800           0
      3072 MEMB     19       DOPC     C218     CTL3    -0.270000       12.0110           0
      3073 MEMB     19       DOPC     H18R     HAL3     0.900000E-01   1.00800           0
      3074 MEMB     19       DOPC     H18S     HAL3     0.900000E-01   1.00800           0
      3075 MEMB     19       DOPC     H18T     HAL3     0.900000E-01   1.00800           0
      3076 MEMB     19       DOPC     C33      CTL2    -0.180000       12.0110           0
      3077 MEMB     19       DOPC     H3X      HAL2     0.900000E-01   1.00800           0
      3078 MEMB     19       DOPC     H3Y      HAL2     0.900000E-01   1.00800           0
      3079 MEMB     19       DOPC     C34      CTL2    -0.180000       12.0110           0
      3080 MEMB     19       DOPC     H4X      HAL2     0.900000E-01   1.00800           0
      3081 MEMB     19       DOPC     H4Y      HAL2     0.900000E-01   1.00800           0
      3082 MEMB     19       DOPC     C35      CTL2    -0.180000       12.0110           0
      3083 MEMB     19       DOPC     H5X      HAL2     0.900000E-01   1.00800           0
      3084 MEMB     19       DOPC     H5Y      HAL2     0.900000E-01   1.00800           0
      3085 MEMB     19       DOPC     C36      CTL2    -0.180000       12.0110           0
      3086 MEMB     19       DOPC     H6X      HAL2     0.900000E-01   1.00800           0
      3087 MEMB     19       DOPC     H6Y      HAL2     0.900000E-01   1.00800           0
      3088 MEMB     19       DOPC     C37      CTL2    -0.180000       12.0110           0
      3089 MEMB     19       DOPC     H7X      HAL2     0.900000E-01   1.00800           0
      3090 MEMB     19       DOPC     H7Y      HAL2     0.900000E-01   1.00800           0
      3091 MEMB     19       DOPC     C38      CTL2    -0.180000       12.0110           0
      3092 MEMB     19       DOPC     H8X      HAL2     0.900000E-01   1.00800           0
      3093 MEMB     19       DOPC     H8Y      HAL2     0.900000E-01   1.00800           0
      3094 MEMB     19       DOPC     C39      CEL1    -0.150000       12.0110           0
      3095 MEMB     19       DOPC     H9X      HEL1     0.150000       1.00800           0
      3096 MEMB     19       DOPC     C310     CEL1    -0.150000       12.0110           0
      3097 MEMB     19       DOPC     H10X     HEL1     0.150000       1.00800           0
      3098 MEMB     19       DOPC     C311     CTL2    -0.180000       12.0110           0
      3099 MEMB     19       DOPC     H11X     HAL2     0.900000E-01   1.00800           0
      3100 MEMB     19       DOPC     H11Y     HAL2     0.900000E-01   1.00800           0
      3101 MEMB     19       DOPC     C312     CTL2    -0.180000       12.0110           0
      3102 MEMB     19       DOPC     H12X     HAL2     0.900000E-01   1.00800           0
      3103 MEMB     19       DOPC     H12Y     HAL2     0.900000E-01   1.00800           0
      3104 MEMB     19       DOPC     C313     CTL2    -0.180000       12.0110           0
      3105 MEMB     19       DOPC     H13X     HAL2     0.900000E-01   1.00800           0
      3106 MEMB     19       DOPC     H13Y     HAL2     0.900000E-01   1.00800           0
      3107 MEMB     19       DOPC     C314     CTL2    -0.180000       12.0110           0
      3108 MEMB     19       DOPC     H14X     HAL2     0.900000E-01   1.00800           0
      3109 MEMB     19       DOPC     H14Y     HAL2     0.900000E-01   1.00800           0
      3110 MEMB     19       DOPC     C315     CTL2    -0.180000       12.0110           0
      3111 MEMB     19       DOPC     H15X     HAL2     0.900000E-01   1.00800           0
      3112 MEMB     19       DOPC     H15Y     HAL2     0.900000E-01   1.00800           0
      3113 MEMB     19       DOPC     C316     CTL2    -0.180000       12.0110           0
      3114 MEMB     19       DOPC     H16X     HAL2     0.900000E-01   1.00800           0
      3115 MEMB     19       DOPC     H16Y     HAL2     0.900000E-01   1.00800           0
      3116 MEMB     19       DOPC     C317     CTL2    -0.180000       12.0110           0
      3117 MEMB     19       DOPC     H17X     HAL2     0.900000E-01   1.00800           0
      3118 MEMB     19       DOPC     H17Y     HAL2     0.900000E-01   1.00800           0
      3119 MEMB     19       DOPC     C318     CTL3    -0.270000       12.0110           0
      3120 MEMB     19       DOPC     H18X     HAL3     0.900000E-01   1.00800           0
      3121 MEMB     19       DOPC     H18Y     HAL3     0.900000E-01   1.00800           0
      3122 MEMB     19       DOPC     H18Z     HAL3     0.900000E-01   1.00800           0
      3123 MEMB     20       DOPC     N        NTL     -0.600000       14.0070           0
      3124 MEMB     20       DOPC     C12      CTL2    -0.100000       12.0110           0
      3125 MEMB     20       DOPC     H12A     HL       0.250000       1.00800           0
      3126 MEMB     20       DOPC     H12B     HL       0.250000       1.00800           0
      3127 MEMB     20       DOPC     C13      CTL5    -0.350000       12.0110           0
      3128 MEMB     20       DOPC     H13A     HL       0.250000       1.00800           0
      3129 MEMB     20       DOPC     H13B     HL       0.250000       1.00800           0
      3130 MEMB     20       DOPC     H13C     HL       0.250000       1.00800           0
      3131 MEMB     20       DOPC     C14      CTL5    -0.350000       12.0110           0
      3132 MEMB     20       DOPC     H14A     HL       0.250000       1.00800           0
      3133 MEMB     20       DOPC     H14B     HL       0.250000       1.00800           0
      3134 MEMB     20       DOPC     H14C     HL       0.250000       1.00800           0
      3135 MEMB     20       DOPC     C15      CTL5    -0.350000       12.0110           0
      3136 MEMB     20       DOPC     H15A     HL       0.250000       1.00800           0
      3137 MEMB     20       DOPC     H15B     HL       0.250000       1.00800           0
      3138 MEMB     20       DOPC     H15C     HL       0.250000       1.00800           0
      3139 MEMB     20       DOPC     C11      CTL2    -0.800000E-01   12.0110           0
      3140 MEMB     20       DOPC     H11A     HAL2     0.900000E-01   1.00800           0
      3141 MEMB     20       DOPC     H11B     HAL2     0.900000E-01   1.00800           0
      3142 MEMB     20       DOPC     P        PL        1.50000       30.9740           0
      3143 MEMB     20       DOPC     O13      O2L     -0.780000       15.9994           0
      3144 MEMB     20       DOPC     O14      O2L     -0.780000       15.9994           0
      3145 MEMB     20       DOPC     O12      OSLP    -0.570000       15.9994           0
      3146 MEMB     20       DOPC     O11      OSLP    -0.570000       15.9994           0
      3147 MEMB     20       DOPC     C1       CTL2    -0.800000E-01   12.0110           0
      3148 MEMB     20       DOPC     HA       HAL2     0.900000E-01   1.00800           0
      3149 MEMB     20       DOPC     HB       HAL2     0.900000E-01   1.00800           0
      3150 MEMB     20       DOPC     C2       CTL1     0.170000       12.0110           0
      3151 MEMB     20       DOPC     HS       HAL1     0.900000E-01   1.00800           0
      3152 MEMB     20       DOPC     O21      OSL     -0.490000       15.9994           0
      3153 MEMB     20       DOPC     C21      CL       0.900000       12.0110           0
      3154 MEMB     20       DOPC     O22      OBL     -0.630000       15.9994           0
      3155 MEMB     20       DOPC     C22      CTL2    -0.220000       12.0110           0
      3156 MEMB     20       DOPC     H2R      HAL2     0.900000E-01   1.00800           0
      3157 MEMB     20       DOPC     H2S      HAL2     0.900000E-01   1.00800           0
      3158 MEMB     20       DOPC     C3       CTL2     0.800000E-01   12.0110           0
      3159 MEMB     20       DOPC     HX       HAL2     0.900000E-01   1.00800           0
      3160 MEMB     20       DOPC     HY       HAL2     0.900000E-01   1.00800           0
      3161 MEMB     20       DOPC     O31      OSL     -0.490000       15.9994           0
      3162 MEMB     20       DOPC     C31      CL       0.900000       12.0110           0
      3163 MEMB     20       DOPC     O32      OBL     -0.630000       15.9994           0
      3164 MEMB     20       DOPC     C32      CTL2    -0.220000       12.0110           0
      3165 MEMB     20       DOPC     H2X      HAL2     0.900000E-01   1.00800           0
      3166 MEMB     20       DOPC     H2Y      HAL2     0.900000E-01   1.00800           0
      3167 MEMB     20       DOPC     C23      CTL2    -0.180000       12.0110           0
      3168 MEMB     20       DOPC     H3R      HAL2     0.900000E-01   1.00800           0
      3169 MEMB     20       DOPC     H3S      HAL2     0.900000E-01   1.00800           0
      3170 MEMB     20       DOPC     C24      CTL2    -0.180000       12.0110           0
      3171 MEMB     20       DOPC     H4R      HAL2     0.900000E-01   1.00800           0
      3172 MEMB     20       DOPC     H4S      HAL2     0.900000E-01   1.00800           0
      3173 MEMB     20       DOPC     C25      CTL2    -0.180000       12.0110           0
      3174 MEMB     20       DOPC     H5R      HAL2     0.900000E-01   1.00800           0
      3175 MEMB     20       DOPC     H5S      HAL2     0.900000E-01   1.00800           0
      3176 MEMB     20       DOPC     C26      CTL2    -0.180000       12.0110           0
      3177 MEMB     20       DOPC     H6R      HAL2     0.900000E-01   1.00800           0
      3178 MEMB     20       DOPC     H6S      HAL2     0.900000E-01   1.00800           0
      3179 MEMB     20       DOPC     C27      CTL2    -0.180000       12.0110           0
      3180 MEMB     20       DOPC     H7R      HAL2     0.900000E-01   1.00800           0
      3181 MEMB     20       DOPC     H7S      HAL2     0.900000E-01   1.00800           0
      3182 MEMB     20       DOPC     C28      CTL2    -0.180000       12.0110           0
      3183 MEMB     20       DOPC     H8R      HAL2     0.900000E-01   1.00800           0
      3184 MEMB     20       DOPC     H8S      HAL2     0.900000E-01   1.00800           0
      3185 MEMB     20       DOPC     C29      CEL1    -0.150000       12.0110           0
      3186 MEMB     20       DOPC     H9R      HEL1     0.150000       1.00800           0
      3187 MEMB     20       DOPC     C210     CEL1    -0.150000       12.0110           0
      3188 MEMB     20       DOPC     H10R     HEL1     0.150000       1.00800           0
      3189 MEMB     20       DOPC     C211     CTL2    -0.180000       12.0110           0
      3190 MEMB     20       DOPC     H11R     HAL2     0.900000E-01   1.00800           0
      3191 MEMB     20       DOPC     H11S     HAL2     0.900000E-01   1.00800           0
      3192 MEMB     20       DOPC     C212     CTL2    -0.180000       12.0110           0
      3193 MEMB     20       DOPC     H12R     HAL2     0.900000E-01   1.00800           0
      3194 MEMB     20       DOPC     H12S     HAL2     0.900000E-01   1.00800           0
      3195 MEMB     20       DOPC     C213     CTL2    -0.180000       12.0110           0
      3196 MEMB     20       DOPC     H13R     HAL2     0.900000E-01   1.00800           0
      3197 MEMB     20       DOPC     H13S     HAL2     0.900000E-01   1.00800           0
      3198 MEMB     20       DOPC     C214     CTL2    -0.180000       12.0110           0
      3199 MEMB     20       DOPC     H14R     HAL2     0.900000E-01   1.00800           0
      3200 MEMB     20       DOPC     H14S     HAL2     0.900000E-01   1.00800           0
      3201 MEMB     20       DOPC     C215     CTL2    -0.180000       12.0110           0
      3202 MEMB     20       DOPC     H15R     HAL2     0.900000E-01   1.00800           0
      3203 MEMB     20       DOPC     H15S     HAL2     0.900000E-01   1.00800           0
      3204 MEMB     20       DOPC     C216     CTL2    -0.180000       12.0110           0
      3205 MEMB     20       DOPC     H16R     HAL2     0.900000E-01   1.00800           0
      3206 MEMB     20       DOPC     H16S     HAL2     0.900000E-01   1.00800           0
      3207 MEMB     20       DOPC     C217     CTL2    -0.180000       12.0110           0
      3208 MEMB     20       DOPC     H17R     HAL2     0.900000E-01   1.00800           0
      3209 MEMB     20       DOPC     H17S     HAL2     0.900000E-01   1.00800           0
      3210 MEMB     20       DOPC     C218     CTL3    -0.270000       12.0110           0
      3211 MEMB     20       DOPC     H18R     HAL3     0.900000E-01   1.00800           0
      3212 MEMB     20       DOPC     H18S     HAL3     0.900000E-01   1.00800           0
      3213 MEMB     20       DOPC     H18T     HAL3     0.900000E-01   1.00800           0
      3214 MEMB     20       DOPC     C33      CTL2    -0.180000       12.0110           0
      3215 MEMB     20       DOPC     H3X      HAL2     0.900000E-01   1.00800           0
      3216 MEMB     20       DOPC     H3Y      HAL2     0.900000E-01   1.00800           0
      3217 MEMB     20       DOPC     C34      CTL2    -0.180000       12.0110           0
      3218 MEMB     20       DOPC     H4X      HAL2     0.900000E-01   1.00800           0
      3219 MEMB     20       DOPC     H4Y      HAL2     0.900000E-01   1.00800           0
      3220 MEMB     20       DOPC     C35      CTL2    -0.180000       12.0110           0
      3221 MEMB     20       DOPC     H5X      HAL2     0.900000E-01   1.00800           0
      3222 MEMB     20       DOPC     H5Y      HAL2     0.900000E-01   1.00800           0
      3223 MEMB     20       DOPC     C36      CTL2    -0.180000       12.0110           0
      3224 MEMB     20       DOPC     H6X      HAL2     0.900000E-01   1.00800           0
      3225 MEMB     20       DOPC     H6Y      HAL2     0.900000E-01   1.00800           0
      3226 MEMB     20       DOPC     C37      CTL2    -0.180000       12.0110           0
      3227 MEMB     20       DOPC     H7X      HAL2     0.900000E-01   1.00800           0
      3228 MEMB     20       DOPC     H7Y      HAL2     0.900000E-01   1.00800           0
      3229 MEMB     20       DOPC     C38      CTL2    -0.180000       12.0110           0
      3230 MEMB     20       DOPC     H8X      HAL2     0.900000E-01   1.00800           0
      3231 MEMB     20       DOPC     H8Y      HAL2     0.900000E-01   1.00800           0
      3232 MEMB     20       DOPC     C39      CEL1    -0.150000       12.0110           0
      3233 MEMB     20       DOPC     H9X      HEL1     0.150000       1.00800           0
      3234 MEMB     20       DOPC     C310     CEL1    -0.150000       12.0110           0
      3235 MEMB     20       DOPC     H10X     HEL1     0.150000       1.00800           0
      3236 MEMB     20       DOPC     C311     CTL2    -0.180000       12.0110           0
      3237 MEMB     20       DOPC     H11X     HAL2     0.900000E-01   1.00800           0
      3238 MEMB     20       DOPC     H11Y     HAL2     0.900000E-01   1.00800           0
      3239 MEMB     20       DOPC     C312     CTL2    -0.180000       12.0110           0
      3240 MEMB     20       DOPC     H12X     HAL2     0.900000E-01   1.00800           0
      3241 MEMB     20       DOPC     H12Y     HAL2     0.900000E-01   1.00800           0
      3242 MEMB     20       DOPC     C313     CTL2    -0.180000       12.0110           0
      3243 MEMB     20       DOPC     H13X     HAL2     0.900000E-01   1.00800           0
      3244 MEMB     20       DOPC     H13Y     HAL2     0.900000E-01   1.00800           0
      3245 MEMB     20       DOPC     C314     CTL2    -0.180000       12.0110           0
      3246 MEMB     20       DOPC     H14X     HAL2     0.900000E-01   1.00800           0
      3247 MEMB     20       DOPC     H14Y     HAL2     0.900000E-01   1.00800           0
      3248 MEMB     20       DOPC     C315     CTL2    -0.180000       12.0110           0
      3249 MEMB     20       DOPC     H15X     HAL2     0.900000E-01   1.00800           0
      3250 MEMB     20       DOPC     H15Y     HAL2     0.900000E-01   1.00800           0
      3251 MEMB     20       DOPC     C316     CTL2    -0.180000       12.0110           0
      3252 MEMB     20       DOPC     H16X     HAL2     0.900000E-01   1.00800           0
      3253 MEMB     20       DOPC     H16Y     HAL2     0.900000E-01   1.00800           0
      3254 MEMB     20       DOPC     C317     CTL2    -0.180000       12.0110           0
      3255 MEMB     20       DOPC     H17X     HAL2     0.900000E-01   1.00800           0
      3256 MEMB     20       DOPC     H17Y     HAL2     0.900000E-01   1.00800           0
      3257 MEMB     20       DOPC     C318     CTL3    -0.270000       12.0110           0
      3258 MEMB     20       DOPC     H18X     HAL3     0.900000E-01   1.00800           0
      3259 MEMB     20       DOPC     H18Y     HAL3     0.900000E-01   1.00800           0
      3260 MEMB     20       DOPC     H18Z     HAL3     0.900000E-01   1.00800           0
      3261 MEMB     21       DOPC     N        NTL     -0.600000       14.0070           0
      3262 MEMB     21       DOPC     C12      CTL2    -0.100000       12.0110           0
      3263 MEMB     21       DOPC     H12A     HL       0.250000       1.00800           0
      3264 MEMB     21       DOPC     H12B     HL       0.250000       1.00800           0
      3265 MEMB     21       DOPC     C13      CTL5    -0.350000       12.0110           0
      3266 MEMB     21       DOPC     H13A     HL       0.250000       1.00800           0
      3267 MEMB     21       DOPC     H13B     HL       0.250000       1.00800           0
      3268 MEMB     21       DOPC     H13C     HL       0.250000       1.00800           0
      3269 MEMB     21       DOPC     C14      CTL5    -0.350000       12.0110           0
      3270 MEMB     21       DOPC     H14A     HL       0.250000       1.00800           0
      3271 MEMB     21       DOPC     H14B     HL       0.250000       1.00800           0
      3272 MEMB     21       DOPC     H14C     HL       0.250000       1.00800           0
      3273 MEMB     21       DOPC     C15      CTL5    -0.350000       12.0110           0
      3274 MEMB     21       DOPC     H15A     HL       0.250000       1.00800           0
      3275 MEMB     21       DOPC     H15B     HL       0.250000       1.00800           0
      3276 MEMB     21       DOPC     H15C     HL       0.250000       1.00800           0
      3277 MEMB     21       DOPC     C11      CTL2    -0.800000E-01   12.0110           0
      3278 MEMB     21       DOPC     H11A     HAL2     0.900000E-01   1.00800           0
      3279 MEMB     21       DOPC     H11B     HAL2     0.900000E-01   1.00800           0
      3280 MEMB     21       DOPC     P        PL        1.50000       30.9740           0
      3281 MEMB     21       DOPC     O13      O2L     -0.780000       15.9994           0
      3282 MEMB     21       DOPC     O14      O2L     -0.780000       15.9994           0
      3283 MEMB     21       DOPC     O12      OSLP    -0.570000       15.9994           0
      3284 MEMB     21       DOPC     O11      OSLP    -0.570000       15.9994           0
      3285 MEMB     21       DOPC     C1       CTL2    -0.800000E-01   12.0110           0
      3286 MEMB     21       DOPC     HA       HAL2     0.900000E-01   1.00800           0
      3287 MEMB     21       DOPC     HB       HAL2     0.900000E-01   1.00800           0
      3288 MEMB     21       DOPC     C2       CTL1     0.170000       12.0110           0
      3289 MEMB     21       DOPC     HS       HAL1     0.900000E-01   1.00800           0
      3290 MEMB     21       DOPC     O21      OSL     -0.490000       15.9994           0
      3291 MEMB     21       DOPC     C21      CL       0.900000       12.0110           0
      3292 MEMB     21       DOPC     O22      OBL     -0.630000       15.9994           0
      3293 MEMB     21       DOPC     C22      CTL2    -0.220000       12.0110           0
      3294 MEMB     21       DOPC     H2R      HAL2     0.900000E-01   1.00800           0
      3295 MEMB     21       DOPC     H2S      HAL2     0.900000E-01   1.00800           0
      3296 MEMB     21       DOPC     C3       CTL2     0.800000E-01   12.0110           0
      3297 MEMB     21       DOPC     HX       HAL2     0.900000E-01   1.00800           0
      3298 MEMB     21       DOPC     HY       HAL2     0.900000E-01   1.00800           0
      3299 MEMB     21       DOPC     O31      OSL     -0.490000       15.9994           0
      3300 MEMB     21       DOPC     C31      CL       0.900000       12.0110           0
      3301 MEMB     21       DOPC     O32      OBL     -0.630000       15.9994           0
      3302 MEMB     21       DOPC     C32      CTL2    -0.220000       12.0110           0
      3303 MEMB     21       DOPC     H2X      HAL2     0.900000E-01   1.00800           0
      3304 MEMB     21       DOPC     H2Y      HAL2     0.900000E-01   1.00800           0
      3305 MEMB     21       DOPC     C23      CTL2    -0.180000       12.0110           0
      3306 MEMB     21       DOPC     H3R      HAL2     0.900000E-01   1.00800           0
      3307 MEMB     21       DOPC     H3S      HAL2     0.900000E-01   1.00800           0
      3308 MEMB     21       DOPC     C24      CTL2    -0.180000       12.0110           0
      3309 MEMB     21       DOPC     H4R      HAL2     0.900000E-01   1.00800           0
      3310 MEMB     21       DOPC     H4S      HAL2     0.900000E-01   1.00800           0
      3311 MEMB     21       DOPC     C25      CTL2    -0.180000       12.0110           0
      3312 MEMB     21       DOPC     H5R      HAL2     0.900000E-01   1.00800           0
      3313 MEMB     21       DOPC     H5S      HAL2     0.900000E-01   1.00800           0
      3314 MEMB     21       DOPC     C26      CTL2    -0.180000       12.0110           0
      3315 MEMB     21       DOPC     H6R      HAL2     0.900000E-01   1.00800           0
      3316 MEMB     21       DOPC     H6S      HAL2     0.900000E-01   1.00800           0
      3317 MEMB     21       DOPC     C27      CTL2    -0.180000       12.0110           0
      3318 MEMB     21       DOPC     H7R      HAL2     0.900000E-01   1.00800           0
      3319 MEMB     21       DOPC     H7S      HAL2     0.900000E-01   1.00800           0
      3320 MEMB     21       DOPC     C28      CTL2    -0.180000       12.0110           0
      3321 MEMB     21       DOPC     H8R      HAL2     0.900000E-01   1.00800           0
      3322 MEMB     21       DOPC     H8S      HAL2     0.900000E-01   1.00800           0
      3323 MEMB     21       DOPC     C29      CEL1    -0.150000       12.0110           0
      3324 MEMB     21       DOPC     H9R      HEL1     0.150000       1.00800           0
      3325 MEMB     21       DOPC     C210     CEL1    -0.150000       12.0110           0
      3326 MEMB     21       DOPC     H10R     HEL1     0.150000       1.00800           0
      3327 MEMB     21       DOPC     C211     CTL2    -0.180000       12.0110           0
      3328 MEMB     21       DOPC     H11R     HAL2     0.900000E-01   1.00800           0
      3329 MEMB     21       DOPC     H11S     HAL2     0.900000E-01   1.00800           0
      3330 MEMB     21       DOPC     C212     CTL2    -0.180000       12.0110           0
      3331 MEMB     21       DOPC     H12R     HAL2     0.900000E-01   1.00800           0
      3332 MEMB     21       DOPC     H12S     HAL2     0.900000E-01   1.00800           0
      3333 MEMB     21       DOPC     C213     CTL2    -0.180000       12.0110           0
      3334 MEMB     21       DOPC     H13R     HAL2     0.900000E-01   1.00800           0
      3335 MEMB     21       DOPC     H13S     HAL2     0.900000E-01   1.00800           0
      3336 MEMB     21       DOPC     C214     CTL2    -0.180000       12.0110           0
      3337 MEMB     21       DOPC     H14R     HAL2     0.900000E-01   1.00800           0
      3338 MEMB     21       DOPC     H14S     HAL2     0.900000E-01   1.00800           0
      3339 MEMB     21       DOPC     C215     CTL2    -0.180000       12.0110           0
      3340 MEMB     21       DOPC     H15R     HAL2     0.900000E-01   1.00800           0
      3341 MEMB     21       DOPC     H15S     HAL2     0.900000E-01   1.00800           0
      3342 MEMB     21       DOPC     C216     CTL2    -0.180000       12.0110           0
      3343 MEMB     21       DOPC     H16R     HAL2     0.900000E-01   1.00800           0
      3344 MEMB     21       DOPC     H16S     HAL2     0.900000E-01   1.00800           0
      3345 MEMB     21       DOPC     C217     CTL2    -0.180000       12.0110           0
      3346 MEMB     21       DOPC     H17R     HAL2     0.900000E-01   1.00800           0
      3347 MEMB     21       DOPC     H17S     HAL2     0.900000E-01   1.00800           0
      3348 MEMB     21       DOPC     C218     CTL3    -0.270000       12.0110           0
      3349 MEMB     21       DOPC     H18R     HAL3     0.900000E-01   1.00800           0
      3350 MEMB     21       DOPC     H18S     HAL3     0.900000E-01   1.00800           0
      3351 MEMB     21       DOPC     H18T     HAL3     0.900000E-01   1.00800           0
      3352 MEMB     21       DOPC     C33      CTL2    -0.180000       12.0110           0
      3353 MEMB     21       DOPC     H3X      HAL2     0.900000E-01   1.00800           0
      3354 MEMB     21       DOPC     H3Y      HAL2     0.900000E-01   1.00800           0
      3355 MEMB     21       DOPC     C34      CTL2    -0.180000       12.0110           0
      3356 MEMB     21       DOPC     H4X      HAL2     0.900000E-01   1.00800           0
      3357 MEMB     21       DOPC     H4Y      HAL2     0.900000E-01   1.00800           0
      3358 MEMB     21       DOPC     C35      CTL2    -0.180000       12.0110           0
      3359 MEMB     21       DOPC     H5X      HAL2     0.900000E-01   1.00800           0
      3360 MEMB     21       DOPC     H5Y      HAL2     0.900000E-01   1.00800           0
      3361 MEMB     21       DOPC     C36      CTL2    -0.180000       12.0110           0
      3362 MEMB     21       DOPC     H6X      HAL2     0.900000E-01   1.00800           0
      3363 MEMB     21       DOPC     H6Y      HAL2     0.900000E-01   1.00800           0
      3364 MEMB     21       DOPC     C37      CTL2    -0.180000       12.0110           0
      3365 MEMB     21       DOPC     H7X      HAL2     0.900000E-01   1.00800           0
      3366 MEMB     21       DOPC     H7Y      HAL2     0.900000E-01   1.00800           0
      3367 MEMB     21       DOPC     C38      CTL2    -0.180000       12.0110           0
      3368 MEMB     21       DOPC     H8X      HAL2     0.900000E-01   1.00800           0
      3369 MEMB     21       DOPC     H8Y      HAL2     0.900000E-01   1.00800           0
      3370 MEMB     21       DOPC     C39      CEL1    -0.150000       12.0110           0
      3371 MEMB     21       DOPC     H9X      HEL1     0.150000       1.00800           0
      3372 MEMB     21       DOPC     C310     CEL1    -0.150000       12.0110           0
      3373 MEMB     21       DOPC     H10X     HEL1     0.150000       1.00800           0
      3374 MEMB     21       DOPC     C311     CTL2    -0.180000       12.0110           0
      3375 MEMB     21       DOPC     H11X     HAL2     0.900000E-01   1.00800           0
      3376 MEMB     21       DOPC     H11Y     HAL2     0.900000E-01   1.00800           0
      3377 MEMB     21       DOPC     C312     CTL2    -0.180000       12.0110           0
      3378 MEMB     21       DOPC     H12X     HAL2     0.900000E-01   1.00800           0
      3379 MEMB     21       DOPC     H12Y     HAL2     0.900000E-01   1.00800           0
      3380 MEMB     21       DOPC     C313     CTL2    -0.180000       12.0110           0
      3381 MEMB     21       DOPC     H13X     HAL2     0.900000E-01   1.00800           0
      3382 MEMB     21       DOPC     H13Y     HAL2     0.900000E-01   1.00800           0
      3383 MEMB     21       DOPC     C314     CTL2    -0.180000       12.0110           0
      3384 MEMB     21       DOPC     H14X     HAL2     0.900000E-01   1.00800           0
      3385 MEMB     21       DOPC     H14Y     HAL2     0.900000E-01   1.00800           0
      3386 MEMB     21       DOPC     C315     CTL2    -0.180000       12.0110           0
      3387 MEMB     21       DOPC     H15X     HAL2     0.900000E-01   1.00800           0
      3388 MEMB     21       DOPC     H15Y     HAL2     0.900000E-01   1.00800           0
      3389 MEMB     21       DOPC     C316     CTL2    -0.180000       12.0110           0
      3390 MEMB     21       DOPC     H16X     HAL2     0.900000E-01   1.00800           0
      3391 MEMB     21       DOPC     H16Y     HAL2     0.900000E-01   1.00800           0
      3392 MEMB     21       DOPC     C317     CTL2    -0.180000       12.0110           0
      3393 MEMB     21       DOPC     H17X     HAL2     0.900000E-01   1.00800           0
      3394 MEMB     21       DOPC     H17Y     HAL2     0.900000E-01   1.00800           0
      3395 MEMB     21       DOPC     C318     CTL3    -0.270000       12.0110           0
      3396 MEMB     21       DOPC     H18X     HAL3     0.900000E-01   1.00800           0
      3397 MEMB     21       DOPC     H18Y     HAL3     0.900000E-01   1.00800           0
      3398 MEMB     21       DOPC     H18Z     HAL3     0.900000E-01   1.00800           0
      3399 MEMB     22       DOPC     N        NTL     -0.600000       14.0070           0
      3400 MEMB     22       DOPC     C12      CTL2    -0.100000       12.0110           0
      3401 MEMB     22       DOPC     H12A     HL       0.250000       1.00800           0
      3402 MEMB     22       DOPC     H12B     HL       0.250000       1.00800           0
      3403 MEMB     22       DOPC     C13      CTL5    -0.350000       12.0110           0
      3404 MEMB     22       DOPC     H13A     HL       0.250000       1.00800           0
      3405 MEMB     22       DOPC     H13B     HL       0.250000       1.00800           0
      3406 MEMB     22       DOPC     H13C     HL       0.250000       1.00800           0
      3407 MEMB     22       DOPC     C14      CTL5    -0.350000       12.0110           0
      3408 MEMB     22       DOPC     H14A     HL       0.250000       1.00800           0
      3409 MEMB     22       DOPC     H14B     HL       0.250000       1.00800           0
      3410 MEMB     22       DOPC     H14C     HL       0.250000       1.00800           0
      3411 MEMB     22       DOPC     C15      CTL5    -0.350000       12.0110           0
      3412 MEMB     22       DOPC     H15A     HL       0.250000       1.00800           0
      3413 MEMB     22       DOPC     H15B     HL       0.250000       1.00800           0
      3414 MEMB     22       DOPC     H15C     HL       0.250000       1.00800           0
      3415 MEMB     22       DOPC     C11      CTL2    -0.800000E-01   12.0110           0
      3416 MEMB     22       DOPC     H11A     HAL2     0.900000E-01   1.00800           0
      3417 MEMB     22       DOPC     H11B     HAL2     0.900000E-01   1.00800           0
      3418 MEMB     22       DOPC     P        PL        1.50000       30.9740           0
      3419 MEMB     22       DOPC     O13      O2L     -0.780000       15.9994           0
      3420 MEMB     22       DOPC     O14      O2L     -0.780000       15.9994           0
      3421 MEMB     22       DOPC     O12      OSLP    -0.570000       15.9994           0
      3422 MEMB     22       DOPC     O11      OSLP    -0.570000       15.9994           0
      3423 MEMB     22       DOPC     C1       CTL2    -0.800000E-01   12.0110           0
      3424 MEMB     22       DOPC     HA       HAL2     0.900000E-01   1.00800           0
      3425 MEMB     22       DOPC     HB       HAL2     0.900000E-01   1.00800           0
      3426 MEMB     22       DOPC     C2       CTL1     0.170000       12.0110           0
      3427 MEMB     22       DOPC     HS       HAL1     0.900000E-01   1.00800           0
      3428 MEMB     22       DOPC     O21      OSL     -0.490000       15.9994           0
      3429 MEMB     22       DOPC     C21      CL       0.900000       12.0110           0
      3430 MEMB     22       DOPC     O22      OBL     -0.630000       15.9994           0
      3431 MEMB     22       DOPC     C22      CTL2    -0.220000       12.0110           0
      3432 MEMB     22       DOPC     H2R      HAL2     0.900000E-01   1.00800           0
      3433 MEMB     22       DOPC     H2S      HAL2     0.900000E-01   1.00800           0
      3434 MEMB     22       DOPC     C3       CTL2     0.800000E-01   12.0110           0
      3435 MEMB     22       DOPC     HX       HAL2     0.900000E-01   1.00800           0
      3436 MEMB     22       DOPC     HY       HAL2     0.900000E-01   1.00800           0
      3437 MEMB     22       DOPC     O31      OSL     -0.490000       15.9994           0
      3438 MEMB     22       DOPC     C31      CL       0.900000       12.0110           0
      3439 MEMB     22       DOPC     O32      OBL     -0.630000       15.9994           0
      3440 MEMB     22       DOPC     C32      CTL2    -0.220000       12.0110           0
      3441 MEMB     22       DOPC     H2X      HAL2     0.900000E-01   1.00800           0
      3442 MEMB     22       DOPC     H2Y      HAL2     0.900000E-01   1.00800           0
      3443 MEMB     22       DOPC     C23      CTL2    -0.180000       12.0110           0
      3444 MEMB     22       DOPC     H3R      HAL2     0.900000E-01   1.00800           0
      3445 MEMB     22       DOPC     H3S      HAL2     0.900000E-01   1.00800           0
      3446 MEMB     22       DOPC     C24      CTL2    -0.180000       12.0110           0
      3447 MEMB     22       DOPC     H4R      HAL2     0.900000E-01   1.00800           0
      3448 MEMB     22       DOPC     H4S      HAL2     0.900000E-01   1.00800           0
      3449 MEMB     22       DOPC     C25      CTL2    -0.180000       12.0110           0
      3450 MEMB     22       DOPC     H5R      HAL2     0.900000E-01   1.00800           0
      3451 MEMB     22       DOPC     H5S      HAL2     0.900000E-01   1.00800           0
      3452 MEMB     22       DOPC     C26      CTL2    -0.180000       12.0110           0
      3453 MEMB     22       DOPC     H6R      HAL2     0.900000E-01   1.00800           0
      3454 MEMB     22       DOPC     H6S      HAL2     0.900000E-01   1.00800           0
      3455 MEMB     22       DOPC     C27      CTL2    -0.180000       12.0110           0
      3456 MEMB     22       DOPC     H7R      HAL2     0.900000E-01   1.00800           0
      3457 MEMB     22       DOPC     H7S      HAL2     0.900000E-01   1.00800           0
      3458 MEMB     22       DOPC     C28      CTL2    -0.180000       12.0110           0
      3459 MEMB     22       DOPC     H8R      HAL2     0.900000E-01   1.00800           0
      3460 MEMB     22       DOPC     H8S      HAL2     0.900000E-01   1.00800           0
      3461 MEMB     22       DOPC     C29      CEL1    -0.150000       12.0110           0
      3462 MEMB     22       DOPC     H9R      HEL1     0.150000       1.00800           0
      3463 MEMB     22       DOPC     C210     CEL1    -0.150000       12.0110           0
      3464 MEMB     22       DOPC     H10R     HEL1     0.150000       1.00800           0
      3465 MEMB     22       DOPC     C211     CTL2    -0.180000       12.0110           0
      3466 MEMB     22       DOPC     H11R     HAL2     0.900000E-01   1.00800           0
      3467 MEMB     22       DOPC     H11S     HAL2     0.900000E-01   1.00800           0
      3468 MEMB     22       DOPC     C212     CTL2    -0.180000       12.0110           0
      3469 MEMB     22       DOPC     H12R     HAL2     0.900000E-01   1.00800           0
      3470 MEMB     22       DOPC     H12S     HAL2     0.900000E-01   1.00800           0
      3471 MEMB     22       DOPC     C213     CTL2    -0.180000       12.0110           0
      3472 MEMB     22       DOPC     H13R     HAL2     0.900000E-01   1.00800           0
      3473 MEMB     22       DOPC     H13S     HAL2     0.900000E-01   1.00800           0
      3474 MEMB     22       DOPC     C214     CTL2    -0.180000       12.0110           0
      3475 MEMB     22       DOPC     H14R     HAL2     0.900000E-01   1.00800           0
      3476 MEMB     22       DOPC     H14S     HAL2     0.900000E-01   1.00800           0
      3477 MEMB     22       DOPC     C215     CTL2    -0.180000       12.0110           0
      3478 MEMB     22       DOPC     H15R     HAL2     0.900000E-01   1.00800           0
      3479 MEMB     22       DOPC     H15S     HAL2     0.900000E-01   1.00800           0
      3480 MEMB     22       DOPC     C216     CTL2    -0.180000       12.0110           0
      3481 MEMB     22       DOPC     H16R     HAL2     0.900000E-01   1.00800           0
      3482 MEMB     22       DOPC     H16S     HAL2     0.900000E-01   1.00800           0
      3483 MEMB     22       DOPC     C217     CTL2    -0.180000       12.0110           0
      3484 MEMB     22       DOPC     H17R     HAL2     0.900000E-01   1.00800           0
      3485 MEMB     22       DOPC     H17S     HAL2     0.900000E-01   1.00800           0
      3486 MEMB     22       DOPC     C218     CTL3    -0.270000       12.0110           0
      3487 MEMB     22       DOPC     H18R     HAL3     0.900000E-01   1.00800           0
      3488 MEMB     22       DOPC     H18S     HAL3     0.900000E-01   1.00800           0
      3489 MEMB     22       DOPC     H18T     HAL3     0.900000E-01   1.00800           0
      3490 MEMB     22       DOPC     C33      CTL2    -0.180000       12.0110           0
      3491 MEMB     22       DOPC     H3X      HAL2     0.900000E-01   1.00800           0
      3492 MEMB     22       DOPC     H3Y      HAL2     0.900000E-01   1.00800           0
      3493 MEMB     22       DOPC     C34      CTL2    -0.180000       12.0110           0
      3494 MEMB     22       DOPC     H4X      HAL2     0.900000E-01   1.00800           0
      3495 MEMB     22       DOPC     H4Y      HAL2     0.900000E-01   1.00800           0
      3496 MEMB     22       DOPC     C35      CTL2    -0.180000       12.0110           0
      3497 MEMB     22       DOPC     H5X      HAL2     0.900000E-01   1.00800           0
      3498 MEMB     22       DOPC     H5Y      HAL2     0.900000E-01   1.00800           0
      3499 MEMB     22       DOPC     C36      CTL2    -0.180000       12.0110           0
      3500 MEMB     22       DOPC     H6X      HAL2     0.900000E-01   1.00800           0
      3501 MEMB     22       DOPC     H6Y      HAL2     0.900000E-01   1.00800           0
      3502 MEMB     22       DOPC     C37      CTL2    -0.180000       12.0110           0
      3503 MEMB     22       DOPC     H7X      HAL2     0.900000E-01   1.00800           0
      3504 MEMB     22       DOPC     H7Y      HAL2     0.900000E-01   1.00800           0
      3505 MEMB     22       DOPC     C38      CTL2    -0.180000       12.0110           0
      3506 MEMB     22       DOPC     H8X      HAL2     0.900000E-01   1.00800           0
      3507 MEMB     22       DOPC     H8Y      HAL2     0.900000E-01   1.00800           0
      3508 MEMB     22       DOPC     C39      CEL1    -0.150000       12.0110           0
      3509 MEMB     22       DOPC     H9X      HEL1     0.150000       1.00800           0
      3510 MEMB     22       DOPC     C310     CEL1    -0.150000       12.0110           0
      3511 MEMB     22       DOPC     H10X     HEL1     0.150000       1.00800           0
      3512 MEMB     22       DOPC     C311     CTL2    -0.180000       12.0110           0
      3513 MEMB     22       DOPC     H11X     HAL2     0.900000E-01   1.00800           0
      3514 MEMB     22       DOPC     H11Y     HAL2     0.900000E-01   1.00800           0
      3515 MEMB     22       DOPC     C312     CTL2    -0.180000       12.0110           0
      3516 MEMB     22       DOPC     H12X     HAL2     0.900000E-01   1.00800           0
      3517 MEMB     22       DOPC     H12Y     HAL2     0.900000E-01   1.00800           0
      3518 MEMB     22       DOPC     C313     CTL2    -0.180000       12.0110           0
      3519 MEMB     22       DOPC     H13X     HAL2     0.900000E-01   1.00800           0
      3520 MEMB     22       DOPC     H13Y     HAL2     0.900000E-01   1.00800           0
      3521 MEMB     22       DOPC     C314     CTL2    -0.180000       12.0110           0
      3522 MEMB     22       DOPC     H14X     HAL2     0.900000E-01   1.00800           0
      3523 MEMB     22       DOPC     H14Y     HAL2     0.900000E-01   1.00800           0
      3524 MEMB     22       DOPC     C315     CTL2    -0.180000       12.0110           0
      3525 MEMB     22       DOPC     H15X     HAL2     0.900000E-01   1.00800           0
      3526 MEMB     22       DOPC     H15Y     HAL2     0.900000E-01   1.00800           0
      3527 MEMB     22       DOPC     C316     CTL2    -0.180000       12.0110           0
      3528 MEMB     22       DOPC     H16X     HAL2     0.900000E-01   1.00800           0
      3529 MEMB     22       DOPC     H16Y     HAL2     0.900000E-01   1.00800           0
      3530 MEMB     22       DOPC     C317     CTL2    -0.180000       12.0110           0
      3531 MEMB     22       DOPC     H17X     HAL2     0.900000E-01   1.00800           0
      3532 MEMB     22       DOPC     H17Y     HAL2     0.900000E-01   1.00800           0
      3533 MEMB     22       DOPC     C318     CTL3    -0.270000       12.0110           0
      3534 MEMB     22       DOPC     H18X     HAL3     0.900000E-01   1.00800           0
      3535 MEMB     22       DOPC     H18Y     HAL3     0.900000E-01   1.00800           0
      3536 MEMB     22       DOPC     H18Z     HAL3     0.900000E-01   1.00800           0
      3537 MEMB     23       DOPC     N        NTL     -0.600000       14.0070           0
      3538 MEMB     23       DOPC     C12      CTL2    -0.100000       12.0110           0
      3539 MEMB     23       DOPC     H12A     HL       0.250000       1.00800           0
      3540 MEMB     23       DOPC     H12B     HL       0.250000       1.00800           0
      3541 MEMB     23       DOPC     C13      CTL5    -0.350000       12.0110           0
      3542 MEMB     23       DOPC     H13A     HL       0.250000       1.00800           0
      3543 MEMB     23       DOPC     H13B     HL       0.250000       1.00800           0
      3544 MEMB     23       DOPC     H13C     HL       0.250000       1.00800           0
      3545 MEMB     23       DOPC     C14      CTL5    -0.350000       12.0110           0
      3546 MEMB     23       DOPC     H14A     HL       0.250000       1.00800           0
      3547 MEMB     23       DOPC     H14B     HL       0.250000       1.00800           0
      3548 MEMB     23       DOPC     H14C     HL       0.250000       1.00800           0
      3549 MEMB     23       DOPC     C15      CTL5    -0.350000       12.0110           0
      3550 MEMB     23       DOPC     H15A     HL       0.250000       1.00800           0
      3551 MEMB     23       DOPC     H15B     HL       0.250000       1.00800           0
      3552 MEMB     23       DOPC     H15C     HL       0.250000       1.00800           0
      3553 MEMB     23       DOPC     C11      CTL2    -0.800000E-01   12.0110           0
      3554 MEMB     23       DOPC     H11A     HAL2     0.900000E-01   1.00800           0
      3555 MEMB     23       DOPC     H11B     HAL2     0.900000E-01   1.00800           0
      3556 MEMB     23       DOPC     P        PL        1.50000       30.9740           0
      3557 MEMB     23       DOPC     O13      O2L     -0.780000       15.9994           0
      3558 MEMB     23       DOPC     O14      O2L     -0.780000       15.9994           0
      3559 MEMB     23       DOPC     O12      OSLP    -0.570000       15.9994           0
      3560 MEMB     23       DOPC     O11      OSLP    -0.570000       15.9994           0
      3561 MEMB     23       DOPC     C1       CTL2    -0.800000E-01   12.0110           0
      3562 MEMB     23       DOPC     HA       HAL2     0.900000E-01   1.00800           0
      3563 MEMB     23       DOPC     HB       HAL2     0.900000E-01   1.00800           0
      3564 MEMB     23       DOPC     C2       CTL1     0.170000       12.0110           0
      3565 MEMB     23       DOPC     HS       HAL1     0.900000E-01   1.00800           0
      3566 MEMB     23       DOPC     O21      OSL     -0.490000       15.9994           0
      3567 MEMB     23       DOPC     C21      CL       0.900000       12.0110           0
      3568 MEMB     23       DOPC     O22      OBL     -0.630000       15.9994           0
      3569 MEMB     23       DOPC     C22      CTL2    -0.220000       12.0110           0
      3570 MEMB     23       DOPC     H2R      HAL2     0.900000E-01   1.00800           0
      3571 MEMB     23       DOPC     H2S      HAL2     0.900000E-01   1.00800           0
      3572 MEMB     23       DOPC     C3       CTL2     0.800000E-01   12.0110           0
      3573 MEMB     23       DOPC     HX       HAL2     0.900000E-01   1.00800           0
      3574 MEMB     23       DOPC     HY       HAL2     0.900000E-01   1.00800           0
      3575 MEMB     23       DOPC     O31      OSL     -0.490000       15.9994           0
      3576 MEMB     23       DOPC     C31      CL       0.900000       12.0110           0
      3577 MEMB     23       DOPC     O32      OBL     -0.630000       15.9994           0
      3578 MEMB     23       DOPC     C32      CTL2    -0.220000       12.0110           0
      3579 MEMB     23       DOPC     H2X      HAL2     0.900000E-01   1.00800           0
      3580 MEMB     23       DOPC     H2Y      HAL2     0.900000E-01   1.00800           0
      3581 MEMB     23       DOPC     C23      CTL2    -0.180000       12.0110           0
      3582 MEMB     23       DOPC     H3R      HAL2     0.900000E-01   1.00800           0
      3583 MEMB     23       DOPC     H3S      HAL2     0.900000E-01   1.00800           0
      3584 MEMB     23       DOPC     C24      CTL2    -0.180000       12.0110           0
      3585 MEMB     23       DOPC     H4R      HAL2     0.900000E-01   1.00800           0
      3586 MEMB     23       DOPC     H4S      HAL2     0.900000E-01   1.00800           0
      3587 MEMB     23       DOPC     C25      CTL2    -0.180000       12.0110           0
      3588 MEMB     23       DOPC     H5R      HAL2     0.900000E-01   1.00800           0
      3589 MEMB     23       DOPC     H5S      HAL2     0.900000E-01   1.00800           0
      3590 MEMB     23       DOPC     C26      CTL2    -0.180000       12.0110           0
      3591 MEMB     23       DOPC     H6R      HAL2     0.900000E-01   1.00800           0
      3592 MEMB     23       DOPC     H6S      HAL2     0.900000E-01   1.00800           0
      3593 MEMB     23       DOPC     C27      CTL2    -0.180000       12.0110           0
      3594 MEMB     23       DOPC     H7R      HAL2     0.900000E-01   1.00800           0
      3595 MEMB     23       DOPC     H7S      HAL2     0.900000E-01   1.00800           0
      3596 MEMB     23       DOPC     C28      CTL2    -0.180000       12.0110           0
      3597 MEMB     23       DOPC     H8R      HAL2     0.900000E-01   1.00800           0
      3598 MEMB     23       DOPC     H8S      HAL2     0.900000E-01   1.00800           0
      3599 MEMB     23       DOPC     C29      CEL1    -0.150000       12.0110           0
      3600 MEMB     23       DOPC     H9R      HEL1     0.150000       1.00800           0
      3601 MEMB     23       DOPC     C210     CEL1    -0.150000       12.0110           0
      3602 MEMB     23       DOPC     H10R     HEL1     0.150000       1.00800           0
      3603 MEMB     23       DOPC     C211     CTL2    -0.180000       12.0110           0
      3604 MEMB     23       DOPC     H11R     HAL2     0.900000E-01   1.00800           0
      3605 MEMB     23       DOPC     H11S     HAL2     0.900000E-01   1.00800           0
      3606 MEMB     23       DOPC     C212     CTL2    -0.180000       12.0110           0
      3607 MEMB     23       DOPC     H12R     HAL2     0.900000E-01   1.00800           0
      3608 MEMB     23       DOPC     H12S     HAL2     0.900000E-01   1.00800           0
      3609 MEMB     23       DOPC     C213     CTL2    -0.180000       12.0110           0
      3610 MEMB     23       DOPC     H13R     HAL2     0.900000E-01   1.00800           0
      3611 MEMB     23       DOPC     H13S     HAL2     0.900000E-01   1.00800           0
      3612 MEMB     23       DOPC     C214     CTL2    -0.180000       12.0110           0
      3613 MEMB     23       DOPC     H14R     HAL2     0.900000E-01   1.00800           0
      3614 MEMB     23       DOPC     H14S     HAL2     0.900000E-01   1.00800           0
      3615 MEMB     23       DOPC     C215     CTL2    -0.180000       12.0110           0
      3616 MEMB     23       DOPC     H15R     HAL2     0.900000E-01   1.00800           0
      3617 MEMB     23       DOPC     H15S     HAL2     0.900000E-01   1.00800           0
      3618 MEMB     23       DOPC     C216     CTL2    -0.180000       12.0110           0
      3619 MEMB     23       DOPC     H16R     HAL2     0.900000E-01   1.00800           0
      3620 MEMB     23       DOPC     H16S     HAL2     0.900000E-01   1.00800           0
      3621 MEMB     23       DOPC     C217     CTL2    -0.180000       12.0110           0
      3622 MEMB     23       DOPC     H17R     HAL2     0.900000E-01   1.00800           0
      3623 MEMB     23       DOPC     H17S     HAL2     0.900000E-01   1.00800           0
      3624 MEMB     23       DOPC     C218     CTL3    -0.270000       12.0110           0
      3625 MEMB     23       DOPC     H18R     HAL3     0.900000E-01   1.00800           0
      3626 MEMB     23       DOPC     H18S     HAL3     0.900000E-01   1.00800           0
      3627 MEMB     23       DOPC     H18T     HAL3     0.900000E-01   1.00800           0
      3628 MEMB     23       DOPC     C33      CTL2    -0.180000       12.0110           0
      3629 MEMB     23       DOPC     H3X      HAL2     0.900000E-01   1.00800           0
      3630 MEMB     23       DOPC     H3Y      HAL2     0.900000E-01   1.00800           0
      3631 MEMB     23       DOPC     C34      CTL2    -0.180000       12.0110           0
      3632 MEMB     23       DOPC     H4X      HAL2     0.900000E-01   1.00800           0
      3633 MEMB     23       DOPC     H4Y      HAL2     0.900000E-01   1.00800           0
      3634 MEMB     23       DOPC     C35      CTL2    -0.180000       12.0110           0
      3635 MEMB     23       DOPC     H5X      HAL2     0.900000E-01   1.00800           0
      3636 MEMB     23       DOPC     H5Y      HAL2     0.900000E-01   1.00800           0
      3637 MEMB     23       DOPC     C36      CTL2    -0.180000       12.0110           0
      3638 MEMB     23       DOPC     H6X      HAL2     0.900000E-01   1.00800           0
      3639 MEMB     23       DOPC     H6Y      HAL2     0.900000E-01   1.00800           0
      3640 MEMB     23       DOPC     C37      CTL2    -0.180000       12.0110           0
      3641 MEMB     23       DOPC     H7X      HAL2     0.900000E-01   1.00800           0
      3642 MEMB     23       DOPC     H7Y      HAL2     0.900000E-01   1.00800           0
      3643 MEMB     23       DOPC     C38      CTL2    -0.180000       12.0110           0
      3644 MEMB     23       DOPC     H8X      HAL2     0.900000E-01   1.00800           0
      3645 MEMB     23       DOPC     H8Y      HAL2     0.900000E-01   1.00800           0
      3646 MEMB     23       DOPC     C39      CEL1    -0.150000       12.0110           0
      3647 MEMB     23       DOPC     H9X      HEL1     0.150000       1.00800           0
      3648 MEMB     23       DOPC     C310     CEL1    -0.150000       12.0110           0
      3649 MEMB     23       DOPC     H10X     HEL1     0.150000       1.00800           0
      3650 MEMB     23       DOPC     C311     CTL2    -0.180000       12.0110           0
      3651 MEMB     23       DOPC     H11X     HAL2     0.900000E-01   1.00800           0
      3652 MEMB     23       DOPC     H11Y     HAL2     0.900000E-01   1.00800           0
      3653 MEMB     23       DOPC     C312     CTL2    -0.180000       12.0110           0
      3654 MEMB     23       DOPC     H12X     HAL2     0.900000E-01   1.00800           0
      3655 MEMB     23       DOPC     H12Y     HAL2     0.900000E-01   1.00800           0
      3656 MEMB     23       DOPC     C313     CTL2    -0.180000       12.0110           0
      3657 MEMB     23       DOPC     H13X     HAL2     0.900000E-01   1.00800           0
      3658 MEMB     23       DOPC     H13Y     HAL2     0.900000E-01   1.00800           0
      3659 MEMB     23       DOPC     C314     CTL2    -0.180000       12.0110           0
      3660 MEMB     23       DOPC     H14X     HAL2     0.900000E-01   1.00800           0
      3661 MEMB     23       DOPC     H14Y     HAL2     0.900000E-01   1.00800           0
      3662 MEMB     23       DOPC     C315     CTL2    -0.180000       12.0110           0
      3663 MEMB     23       DOPC     H15X     HAL2     0.900000E-01   1.00800           0
      3664 MEMB     23       DOPC     H15Y     HAL2     0.900000E-01   1.00800           0
      3665 MEMB     23       DOPC     C316     CTL2    -0.180000       12.0110           0
      3666 MEMB     23       DOPC     H16X     HAL2     0.900000E-01   1.00800           0
      3667 MEMB     23       DOPC     H16Y     HAL2     0.900000E-01   1.00800           0
      3668 MEMB     23       DOPC     C317     CTL2    -0.180000       12.0110           0
      3669 MEMB     23       DOPC     H17X     HAL2     0.900000E-01   1.00800           0
      3670 MEMB     23       DOPC     H17Y     HAL2     0.900000E-01   1.00800           0
      3671 MEMB     23       DOPC     C318     CTL3    -0.270000       12.0110           0
      3672 MEMB     23       DOPC     H18X     HAL3     0.900000E-01   1.00800           0
      3673 MEMB     23       DOPC     H18Y     HAL3     0.900000E-01   1.00800           0
      3674 MEMB     23       DOPC     H18Z     HAL3     0.900000E-01   1.00800           0
      3675 MEMB     24       DOPC     N        NTL     -0.600000       14.0070           0
      3676 MEMB     24       DOPC     C12      CTL2    -0.100000       12.0110           0
      3677 MEMB     24       DOPC     H12A     HL       0.250000       1.00800           0
      3678 MEMB     24       DOPC     H12B     HL       0.250000       1.00800           0
      3679 MEMB     24       DOPC     C13      CTL5    -0.350000       12.0110           0
      3680 MEMB     24       DOPC     H13A     HL       0.250000       1.00800           0
      3681 MEMB     24       DOPC     H13B     HL       0.250000       1.00800           0
      3682 MEMB     24       DOPC     H13C     HL       0.250000       1.00800           0
      3683 MEMB     24       DOPC     C14      CTL5    -0.350000       12.0110           0
      3684 MEMB     24       DOPC     H14A     HL       0.250000       1.00800           0
      3685 MEMB     24       DOPC     H14B     HL       0.250000       1.00800           0
      3686 MEMB     24       DOPC     H14C     HL       0.250000       1.00800           0
      3687 MEMB     24       DOPC     C15      CTL5    -0.350000       12.0110           0
      3688 MEMB     24       DOPC     H15A     HL       0.250000       1.00800           0
      3689 MEMB     24       DOPC     H15B     HL       0.250000       1.00800           0
      3690 MEMB     24       DOPC     H15C     HL       0.250000       1.00800           0
      3691 MEMB     24       DOPC     C11      CTL2    -0.800000E-01   12.0110           0
      3692 MEMB     24       DOPC     H11A     HAL2     0.900000E-01   1.00800           0
      3693 MEMB     24       DOPC     H11B     HAL2     0.900000E-01   1.00800           0
      3694 MEMB     24       DOPC     P        PL        1.50000       30.9740           0
      3695 MEMB     24       DOPC     O13      O2L     -0.780000       15.9994           0
      3696 MEMB     24       DOPC     O14      O2L     -0.780000       15.9994           0
      3697 MEMB     24       DOPC     O12      OSLP    -0.570000       15.9994           0
      3698 MEMB     24       DOPC     O11      OSLP    -0.570000       15.9994           0
      3699 MEMB     24       DOPC     C1       CTL2    -0.800000E-01   12.0110           0
      3700 MEMB     24       DOPC     HA       HAL2     0.900000E-01   1.00800           0
      3701 MEMB     24       DOPC     HB       HAL2     0.900000E-01   1.00800           0
      3702 MEMB     24       DOPC     C2       CTL1     0.170000       12.0110           0
      3703 MEMB     24       DOPC     HS       HAL1     0.900000E-01   1.00800           0
      3704 MEMB     24       DOPC     O21      OSL     -0.490000       15.9994           0
      3705 MEMB     24       DOPC     C21      CL       0.900000       12.0110           0
      3706 MEMB     24       DOPC     O22      OBL     -0.630000       15.9994           0
      3707 MEMB     24       DOPC     C22      CTL2    -0.220000       12.0110           0
      3708 MEMB     24       DOPC     H2R      HAL2     0.900000E-01   1.00800           0
      3709 MEMB     24       DOPC     H2S      HAL2     0.900000E-01   1.00800           0
      3710 MEMB     24       DOPC     C3       CTL2     0.800000E-01   12.0110           0
      3711 MEMB     24       DOPC     HX       HAL2     0.900000E-01   1.00800           0
      3712 MEMB     24       DOPC     HY       HAL2     0.900000E-01   1.00800           0
      3713 MEMB     24       DOPC     O31      OSL     -0.490000       15.9994           0
      3714 MEMB     24       DOPC     C31      CL       0.900000       12.0110           0
      3715 MEMB     24       DOPC     O32      OBL     -0.630000       15.9994           0
      3716 MEMB     24       DOPC     C32      CTL2    -0.220000       12.0110           0
      3717 MEMB     24       DOPC     H2X      HAL2     0.900000E-01   1.00800           0
      3718 MEMB     24       DOPC     H2Y      HAL2     0.900000E-01   1.00800           0
      3719 MEMB     24       DOPC     C23      CTL2    -0.180000       12.0110           0
      3720 MEMB     24       DOPC     H3R      HAL2     0.900000E-01   1.00800           0
      3721 MEMB     24       DOPC     H3S      HAL2     0.900000E-01   1.00800           0
      3722 MEMB     24       DOPC     C24      CTL2    -0.180000       12.0110           0
      3723 MEMB     24       DOPC     H4R      HAL2     0.900000E-01   1.00800           0
      3724 MEMB     24       DOPC     H4S      HAL2     0.900000E-01   1.00800           0
      3725 MEMB     24       DOPC     C25      CTL2    -0.180000       12.0110           0
      3726 MEMB     24       DOPC     H5R      HAL2     0.900000E-01   1.00800           0
      3727 MEMB     24       DOPC     H5S      HAL2     0.900000E-01   1.00800           0
      3728 MEMB     24       DOPC     C26      CTL2    -0.180000       12.0110           0
      3729 MEMB     24       DOPC     H6R      HAL2     0.900000E-01   1.00800           0
      3730 MEMB     24       DOPC     H6S      HAL2     0.900000E-01   1.00800           0
      3731 MEMB     24       DOPC     C27      CTL2    -0.180000       12.0110           0
      3732 MEMB     24       DOPC     H7R      HAL2     0.900000E-01   1.00800           0
      3733 MEMB     24       DOPC     H7S      HAL2     0.900000E-01   1.00800           0
      3734 MEMB     24       DOPC     C28      CTL2    -0.180000       12.0110           0
      3735 MEMB     24       DOPC     H8R      HAL2     0.900000E-01   1.00800           0
      3736 MEMB     24       DOPC     H8S      HAL2     0.900000E-01   1.00800           0
      3737 MEMB     24       DOPC     C29      CEL1    -0.150000       12.0110           0
      3738 MEMB     24       DOPC     H9R      HEL1     0.150000       1.00800           0
      3739 MEMB     24       DOPC     C210     CEL1    -0.150000       12.0110           0
      3740 MEMB     24       DOPC     H10R     HEL1     0.150000       1.00800           0
      3741 MEMB     24       DOPC     C211     CTL2    -0.180000       12.0110           0
      3742 MEMB     24       DOPC     H11R     HAL2     0.900000E-01   1.00800           0
      3743 MEMB     24       DOPC     H11S     HAL2     0.900000E-01   1.00800           0
      3744 MEMB     24       DOPC     C212     CTL2    -0.180000       12.0110           0
      3745 MEMB     24       DOPC     H12R     HAL2     0.900000E-01   1.00800           0
      3746 MEMB     24       DOPC     H12S     HAL2     0.900000E-01   1.00800           0
      3747 MEMB     24       DOPC     C213     CTL2    -0.180000       12.0110           0
      3748 MEMB     24       DOPC     H13R     HAL2     0.900000E-01   1.00800           0
      3749 MEMB     24       DOPC     H13S     HAL2     0.900000E-01   1.00800           0
      3750 MEMB     24       DOPC     C214     CTL2    -0.180000       12.0110           0
      3751 MEMB     24       DOPC     H14R     HAL2     0.900000E-01   1.00800           0
      3752 MEMB     24       DOPC     H14S     HAL2     0.900000E-01   1.00800           0
      3753 MEMB     24       DOPC     C215     CTL2    -0.180000       12.0110           0
      3754 MEMB     24       DOPC     H15R     HAL2     0.900000E-01   1.00800           0
      3755 MEMB     24       DOPC     H15S     HAL2     0.900000E-01   1.00800           0
      3756 MEMB     24       DOPC     C216     CTL2    -0.180000       12.0110           0
      3757 MEMB     24       DOPC     H16R     HAL2     0.900000E-01   1.00800           0
      3758 MEMB     24       DOPC     H16S     HAL2     0.900000E-01   1.00800           0
      3759 MEMB     24       DOPC     C217     CTL2    -0.180000       12.0110           0
      3760 MEMB     24       DOPC     H17R     HAL2     0.900000E-01   1.00800           0
      3761 MEMB     24       DOPC     H17S     HAL2     0.900000E-01   1.00800           0
      3762 MEMB     24       DOPC     C218     CTL3    -0.270000       12.0110           0
      3763 MEMB     24       DOPC     H18R     HAL3     0.900000E-01   1.00800           0
      3764 MEMB     24       DOPC     H18S     HAL3     0.900000E-01   1.00800           0
      3765 MEMB     24       DOPC     H18T     HAL3     0.900000E-01   1.00800           0
      3766 MEMB     24       DOPC     C33      CTL2    -0.180000       12.0110           0
      3767 MEMB     24       DOPC     H3X      HAL2     0.900000E-01   1.00800           0
      3768 MEMB     24       DOPC     H3Y      HAL2     0.900000E-01   1.00800           0
      3769 MEMB     24       DOPC     C34      CTL2    -0.180000       12.0110           0
      3770 MEMB     24       DOPC     H4X      HAL2     0.900000E-01   1.00800           0
      3771 MEMB     24       DOPC     H4Y      HAL2     0.900000E-01   1.00800           0
      3772 MEMB     24       DOPC     C35      CTL2    -0.180000       12.0110           0
      3773 MEMB     24       DOPC     H5X      HAL2     0.900000E-01   1.00800           0
      3774 MEMB     24       DOPC     H5Y      HAL2     0.900000E-01   1.00800           0
      3775 MEMB     24       DOPC     C36      CTL2    -0.180000       12.0110           0
      3776 MEMB     24       DOPC     H6X      HAL2     0.900000E-01   1.00800           0
      3777 MEMB     24       DOPC     H6Y      HAL2     0.900000E-01   1.00800           0
      3778 MEMB     24       DOPC     C37      CTL2    -0.180000       12.0110           0
      3779 MEMB     24       DOPC     H7X      HAL2     0.900000E-01   1.00800           0
      3780 MEMB     24       DOPC     H7Y      HAL2     0.900000E-01   1.00800           0
      3781 MEMB     24       DOPC     C38      CTL2    -0.180000       12.0110           0
      3782 MEMB     24       DOPC     H8X      HAL2     0.900000E-01   1.00800           0
      3783 MEMB     24       DOPC     H8Y      HAL2     0.900000E-01   1.00800           0
      3784 MEMB     24       DOPC     C39      CEL1    -0.150000       12.0110           0
      3785 MEMB     24       DOPC     H9X      HEL1     0.150000       1.00800           0
      3786 MEMB     24       DOPC     C310     CEL1    -0.150000       12.0110           0
      3787 MEMB     24       DOPC     H10X     HEL1     0.150000       1.00800           0
      3788 MEMB     24       DOPC     C311     CTL2    -0.180000       12.0110           0
      3789 MEMB     24       DOPC     H11X     HAL2     0.900000E-01   1.00800           0
      3790 MEMB     24       DOPC     H11Y     HAL2     0.900000E-01   1.00800           0
      3791 MEMB     24       DOPC     C312     CTL2    -0.180000       12.0110           0
      3792 MEMB     24       DOPC     H12X     HAL2     0.900000E-01   1.00800           0
      3793 MEMB     24       DOPC     H12Y     HAL2     0.900000E-01   1.00800           0
      3794 MEMB     24       DOPC     C313     CTL2    -0.180000       12.0110           0
      3795 MEMB     24       DOPC     H13X     HAL2     0.900000E-01   1.00800           0
      3796 MEMB     24       DOPC     H13Y     HAL2     0.900000E-01   1.00800           0
      3797 MEMB     24       DOPC     C314     CTL2    -0.180000       12.0110           0
      3798 MEMB     24       DOPC     H14X     HAL2     0.900000E-01   1.00800           0
      3799 MEMB     24       DOPC     H14Y     HAL2     0.900000E-01   1.00800           0
      3800 MEMB     24       DOPC     C315     CTL2    -0.180000       12.0110           0
      3801 MEMB     24       DOPC     H15X     HAL2     0.900000E-01   1.00800           0
      3802 MEMB     24       DOPC     H15Y     HAL2     0.900000E-01   1.00800           0
      3803 MEMB     24       DOPC     C316     CTL2    -0.180000       12.0110           0
      3804 MEMB     24       DOPC     H16X     HAL2     0.900000E-01   1.00800           0
      3805 MEMB     24       DOPC     H16Y     HAL2     0.900000E-01   1.00800           0
      3806 MEMB     24       DOPC     C317     CTL2    -0.180000       12.0110           0
      3807 MEMB     24       DOPC     H17X     HAL2     0.900000E-01   1.00800           0
      3808 MEMB     24       DOPC     H17Y     HAL2     0.900000E-01   1.00800           0
      3809 MEMB     24       DOPC     C318     CTL3    -0.270000       12.0110           0
      3810 MEMB     24       DOPC     H18X     HAL3     0.900000E-01   1.00800           0
      3811 MEMB     24       DOPC     H18Y     HAL3     0.900000E-01   1.00800           0
      3812 MEMB     24       DOPC     H18Z     HAL3     0.900000E-01   1.00800           0
      3813 MEMB     25       DOPC     N        NTL     -0.600000       14.0070           0
      3814 MEMB     25       DOPC     C12      CTL2    -0.100000       12.0110           0
      3815 MEMB     25       DOPC     H12A     HL       0.250000       1.00800           0
      3816 MEMB     25       DOPC     H12B     HL       0.250000       1.00800           0
      3817 MEMB     25       DOPC     C13      CTL5    -0.350000       12.0110           0
      3818 MEMB     25       DOPC     H13A     HL       0.250000       1.00800           0
      3819 MEMB     25       DOPC     H13B     HL       0.250000       1.00800           0
      3820 MEMB     25       DOPC     H13C     HL       0.250000       1.00800           0
      3821 MEMB     25       DOPC     C14      CTL5    -0.350000       12.0110           0
      3822 MEMB     25       DOPC     H14A     HL       0.250000       1.00800           0
      3823 MEMB     25       DOPC     H14B     HL       0.250000       1.00800           0
      3824 MEMB     25       DOPC     H14C     HL       0.250000       1.00800           0
      3825 MEMB     25       DOPC     C15      CTL5    -0.350000       12.0110           0
      3826 MEMB     25       DOPC     H15A     HL       0.250000       1.00800           0
      3827 MEMB     25       DOPC     H15B     HL       0.250000       1.00800           0
      3828 MEMB     25       DOPC     H15C     HL       0.250000       1.00800           0
      3829 MEMB     25       DOPC     C11      CTL2    -0.800000E-01   12.0110           0
      3830 MEMB     25       DOPC     H11A     HAL2     0.900000E-01   1.00800           0
      3831 MEMB     25       DOPC     H11B     HAL2     0.900000E-01   1.00800           0
      3832 MEMB     25       DOPC     P        PL        1.50000       30.9740           0
      3833 MEMB     25       DOPC     O13      O2L     -0.780000       15.9994           0
      3834 MEMB     25       DOPC     O14      O2L     -0.780000       15.9994           0
      3835 MEMB     25       DOPC     O12      OSLP    -0.570000       15.9994           0
      3836 MEMB     25       DOPC     O11      OSLP    -0.570000       15.9994           0
      3837 MEMB     25       DOPC     C1       CTL2    -0.800000E-01   12.0110           0
      3838 MEMB     25       DOPC     HA       HAL2     0.900000E-01   1.00800           0
      3839 MEMB     25       DOPC     HB       HAL2     0.900000E-01   1.00800           0
      3840 MEMB     25       DOPC     C2       CTL1     0.170000       12.0110           0
      3841 MEMB     25       DOPC     HS       HAL1     0.900000E-01   1.00800           0
      3842 MEMB     25       DOPC     O21      OSL     -0.490000       15.9994           0
      3843 MEMB     25       DOPC     C21      CL       0.900000       12.0110           0
      3844 MEMB     25       DOPC     O22      OBL     -0.630000       15.9994           0
      3845 MEMB     25       DOPC     C22      CTL2    -0.220000       12.0110           0
      3846 MEMB     25       DOPC     H2R      HAL2     0.900000E-01   1.00800           0
      3847 MEMB     25       DOPC     H2S      HAL2     0.900000E-01   1.00800           0
      3848 MEMB     25       DOPC     C3       CTL2     0.800000E-01   12.0110           0
      3849 MEMB     25       DOPC     HX       HAL2     0.900000E-01   1.00800           0
      3850 MEMB     25       DOPC     HY       HAL2     0.900000E-01   1.00800           0
      3851 MEMB     25       DOPC     O31      OSL     -0.490000       15.9994           0
      3852 MEMB     25       DOPC     C31      CL       0.900000       12.0110           0
      3853 MEMB     25       DOPC     O32      OBL     -0.630000       15.9994           0
      3854 MEMB     25       DOPC     C32      CTL2    -0.220000       12.0110           0
      3855 MEMB     25       DOPC     H2X      HAL2     0.900000E-01   1.00800           0
      3856 MEMB     25       DOPC     H2Y      HAL2     0.900000E-01   1.00800           0
      3857 MEMB     25       DOPC     C23      CTL2    -0.180000       12.0110           0
      3858 MEMB     25       DOPC     H3R      HAL2     0.900000E-01   1.00800           0
      3859 MEMB     25       DOPC     H3S      HAL2     0.900000E-01   1.00800           0
      3860 MEMB     25       DOPC     C24      CTL2    -0.180000       12.0110           0
      3861 MEMB     25       DOPC     H4R      HAL2     0.900000E-01   1.00800           0
      3862 MEMB     25       DOPC     H4S      HAL2     0.900000E-01   1.00800           0
      3863 MEMB     25       DOPC     C25      CTL2    -0.180000       12.0110           0
      3864 MEMB     25       DOPC     H5R      HAL2     0.900000E-01   1.00800           0
      3865 MEMB     25       DOPC     H5S      HAL2     0.900000E-01   1.00800           0
      3866 MEMB     25       DOPC     C26      CTL2    -0.180000       12.0110           0
      3867 MEMB     25       DOPC     H6R      HAL2     0.900000E-01   1.00800           0
      3868 MEMB     25       DOPC     H6S      HAL2     0.900000E-01   1.00800           0
      3869 MEMB     25       DOPC     C27      CTL2    -0.180000       12.0110           0
      3870 MEMB     25       DOPC     H7R      HAL2     0.900000E-01   1.00800           0
      3871 MEMB     25       DOPC     H7S      HAL2     0.900000E-01   1.00800           0
      3872 MEMB     25       DOPC     C28      CTL2    -0.180000       12.0110           0
      3873 MEMB     25       DOPC     H8R      HAL2     0.900000E-01   1.00800           0
      3874 MEMB     25       DOPC     H8S      HAL2     0.900000E-01   1.00800           0
      3875 MEMB     25       DOPC     C29      CEL1    -0.150000       12.0110           0
      3876 MEMB     25       DOPC     H9R      HEL1     0.150000       1.00800           0
      3877 MEMB     25       DOPC     C210     CEL1    -0.150000       12.0110           0
      3878 MEMB     25       DOPC     H10R     HEL1     0.150000       1.00800           0
      3879 MEMB     25       DOPC     C211     CTL2    -0.180000       12.0110           0
      3880 MEMB     25       DOPC     H11R     HAL2     0.900000E-01   1.00800           0
      3881 MEMB     25       DOPC     H11S     HAL2     0.900000E-01   1.00800           0
      3882 MEMB     25       DOPC     C212     CTL2    -0.180000       12.0110           0
      3883 MEMB     25       DOPC     H12R     HAL2     0.900000E-01   1.00800           0
      3884 MEMB     25       DOPC     H12S     HAL2     0.900000E-01   1.00800           0
      3885 MEMB     25       DOPC     C213     CTL2    -0.180000       12.0110           0
      3886 MEMB     25       DOPC     H13R     HAL2     0.900000E-01   1.00800           0
      3887 MEMB     25       DOPC     H13S     HAL2     0.900000E-01   1.00800           0
      3888 MEMB     25       DOPC     C214     CTL2    -0.180000       12.0110           0
      3889 MEMB     25       DOPC     H14R     HAL2     0.900000E-01   1.00800           0
      3890 MEMB     25       DOPC     H14S     HAL2     0.900000E-01   1.00800           0
      3891 MEMB     25       DOPC     C215     CTL2    -0.180000       12.0110           0
      3892 MEMB     25       DOPC     H15R     HAL2     0.900000E-01   1.00800           0
      3893 MEMB     25       DOPC     H15S     HAL2     0.900000E-01   1.00800           0
      3894 MEMB     25       DOPC     C216     CTL2    -0.180000       12.0110           0
      3895 MEMB     25       DOPC     H16R     HAL2     0.900000E-01   1.00800           0
      3896 MEMB     25       DOPC     H16S     HAL2     0.900000E-01   1.00800           0
      3897 MEMB     25       DOPC     C217     CTL2    -0.180000       12.0110           0
      3898 MEMB     25       DOPC     H17R     HAL2     0.900000E-01   1.00800           0
      3899 MEMB     25       DOPC     H17S     HAL2     0.900000E-01   1.00800           0
      3900 MEMB     25       DOPC     C218     CTL3    -0.270000       12.0110           0
      3901 MEMB     25       DOPC     H18R     HAL3     0.900000E-01   1.00800           0
      3902 MEMB     25       DOPC     H18S     HAL3     0.900000E-01   1.00800           0
      3903 MEMB     25       DOPC     H18T     HAL3     0.900000E-01   1.00800           0
      3904 MEMB     25       DOPC     C33      CTL2    -0.180000       12.0110           0
      3905 MEMB     25       DOPC     H3X      HAL2     0.900000E-01   1.00800           0
      3906 MEMB     25       DOPC     H3Y      HAL2     0.900000E-01   1.00800           0
      3907 MEMB     25       DOPC     C34      CTL2    -0.180000       12.0110           0
      3908 MEMB     25       DOPC     H4X      HAL2     0.900000E-01   1.00800           0
      3909 MEMB     25       DOPC     H4Y      HAL2     0.900000E-01   1.00800           0
      3910 MEMB     25       DOPC     C35      CTL2    -0.180000       12.0110           0
      3911 MEMB     25       DOPC     H5X      HAL2     0.900000E-01   1.00800           0
      3912 MEMB     25       DOPC     H5Y      HAL2     0.900000E-01   1.00800           0
      3913 MEMB     25       DOPC     C36      CTL2    -0.180000       12.0110           0
      3914 MEMB     25       DOPC     H6X      HAL2     0.900000E-01   1.00800           0
      3915 MEMB     25       DOPC     H6Y      HAL2     0.900000E-01   1.00800           0
      3916 MEMB     25       DOPC     C37      CTL2    -0.180000       12.0110           0
      3917 MEMB     25       DOPC     H7X      HAL2     0.900000E-01   1.00800           0
      3918 MEMB     25       DOPC     H7Y      HAL2     0.900000E-01   1.00800           0
      3919 MEMB     25       DOPC     C38      CTL2    -0.180000       12.0110           0
      3920 MEMB     25       DOPC     H8X      HAL2     0.900000E-01   1.00800           0
      3921 MEMB     25       DOPC     H8Y      HAL2     0.900000E-01   1.00800           0
      3922 MEMB     25       DOPC     C39      CEL1    -0.150000       12.0110           0
      3923 MEMB     25       DOPC     H9X      HEL1     0.150000       1.00800           0
      3924 MEMB     25       DOPC     C310     CEL1    -0.150000       12.0110           0
      3925 MEMB     25       DOPC     H10X     HEL1     0.150000       1.00800           0
      3926 MEMB     25       DOPC     C311     CTL2    -0.180000       12.0110           0
      3927 MEMB     25       DOPC     H11X     HAL2     0.900000E-01   1.00800           0
      3928 MEMB     25       DOPC     H11Y     HAL2     0.900000E-01   1.00800           0
      3929 MEMB     25       DOPC     C312     CTL2    -0.180000       12.0110           0
      3930 MEMB     25       DOPC     H12X     HAL2     0.900000E-01   1.00800           0
      3931 MEMB     25       DOPC     H12Y     HAL2     0.900000E-01   1.00800           0
      3932 MEMB     25       DOPC     C313     CTL2    -0.180000       12.0110           0
      3933 MEMB     25       DOPC     H13X     HAL2     0.900000E-01   1.00800           0
      3934 MEMB     25       DOPC     H13Y     HAL2     0.900000E-01   1.00800           0
      3935 MEMB     25       DOPC     C314     CTL2    -0.180000       12.0110           0
      3936 MEMB     25       DOPC     H14X     HAL2     0.900000E-01   1.00800           0
      3937 MEMB     25       DOPC     H14Y     HAL2     0.900000E-01   1.00800           0
      3938 MEMB     25       DOPC     C315     CTL2    -0.180000       12.0110           0
      3939 MEMB     25       DOPC     H15X     HAL2     0.900000E-01   1.00800           0
      3940 MEMB     25       DOPC     H15Y     HAL2     0.900000E-01   1.00800           0
      3941 MEMB     25       DOPC     C316     CTL2    -0.180000       12.0110           0
      3942 MEMB     25       DOPC     H16X     HAL2     0.900000E-01   1.00800           0
      3943 MEMB     25       DOPC     H16Y     HAL2     0.900000E-01   1.00800           0
      3944 MEMB     25       DOPC     C317     CTL2    -0.180000       12.0110           0
      3945 MEMB     25       DOPC     H17X     HAL2     0.900000E-01   1.00800           0
      3946 MEMB     25       DOPC     H17Y     HAL2     0.900000E-01   1.00800           0
      3947 MEMB     25       DOPC     C318     CTL3    -0.270000       12.0110           0
      3948 MEMB     25       DOPC     H18X     HAL3     0.900000E-01   1.00800           0
      3949 MEMB     25       DOPC     H18Y     HAL3     0.900000E-01   1.00800           0
      3950 MEMB     25       DOPC     H18Z     HAL3     0.900000E-01   1.00800           0
      3951 MEMB     26       DOPC     N        NTL     -0.600000       14.0070           0
      3952 MEMB     26       DOPC     C12      CTL2    -0.100000       12.0110           0
      3953 MEMB     26       DOPC     H12A     HL       0.250000       1.00800           0
      3954 MEMB     26       DOPC     H12B     HL       0.250000       1.00800           0
      3955 MEMB     26       DOPC     C13      CTL5    -0.350000       12.0110           0
      3956 MEMB     26       DOPC     H13A     HL       0.250000       1.00800           0
      3957 MEMB     26       DOPC     H13B     HL       0.250000       1.00800           0
      3958 MEMB     26       DOPC     H13C     HL       0.250000       1.00800           0
      3959 MEMB     26       DOPC     C14      CTL5    -0.350000       12.0110           0
      3960 MEMB     26       DOPC     H14A     HL       0.250000       1.00800           0
      3961 MEMB     26       DOPC     H14B     HL       0.250000       1.00800           0
      3962 MEMB     26       DOPC     H14C     HL       0.250000       1.00800           0
      3963 MEMB     26       DOPC     C15      CTL5    -0.350000       12.0110           0
      3964 MEMB     26       DOPC     H15A     HL       0.250000       1.00800           0
      3965 MEMB     26       DOPC     H15B     HL       0.250000       1.00800           0
      3966 MEMB     26       DOPC     H15C     HL       0.250000       1.00800           0
      3967 MEMB     26       DOPC     C11      CTL2    -0.800000E-01   12.0110           0
      3968 MEMB     26       DOPC     H11A     HAL2     0.900000E-01   1.00800           0
      3969 MEMB     26       DOPC     H11B     HAL2     0.900000E-01   1.00800           0
      3970 MEMB     26       DOPC     P        PL        1.50000       30.9740           0
      3971 MEMB     26       DOPC     O13      O2L     -0.780000       15.9994           0
      3972 MEMB     26       DOPC     O14      O2L     -0.780000       15.9994           0
      3973 MEMB     26       DOPC     O12      OSLP    -0.570000       15.9994           0
      3974 MEMB     26       DOPC     O11      OSLP    -0.570000       15.9994           0
      3975 MEMB     26       DOPC     C1       CTL2    -0.800000E-01   12.0110           0
      3976 MEMB     26       DOPC     HA       HAL2     0.900000E-01   1.00800           0
      3977 MEMB     26       DOPC     HB       HAL2     0.900000E-01   1.00800           0
      3978 MEMB     26       DOPC     C2       CTL1     0.170000       12.0110           0
      3979 MEMB     26       DOPC     HS       HAL1     0.900000E-01   1.00800           0
      3980 MEMB     26       DOPC     O21      OSL     -0.490000       15.9994           0
      3981 MEMB     26       DOPC     C21      CL       0.900000       12.0110           0
      3982 MEMB     26       DOPC     O22      OBL     -0.630000       15.9994           0
      3983 MEMB     26       DOPC     C22      CTL2    -0.220000       12.0110           0
      3984 MEMB     26       DOPC     H2R      HAL2     0.900000E-01   1.00800           0
      3985 MEMB     26       DOPC     H2S      HAL2     0.900000E-01   1.00800           0
      3986 MEMB     26       DOPC     C3       CTL2     0.800000E-01   12.0110           0
      3987 MEMB     26       DOPC     HX       HAL2     0.900000E-01   1.00800           0
      3988 MEMB     26       DOPC     HY       HAL2     0.900000E-01   1.00800           0
      3989 MEMB     26       DOPC     O31      OSL     -0.490000       15.9994           0
      3990 MEMB     26       DOPC     C31      CL       0.900000       12.0110           0
      3991 MEMB     26       DOPC     O32      OBL     -0.630000       15.9994           0
      3992 MEMB     26       DOPC     C32      CTL2    -0.220000       12.0110           0
      3993 MEMB     26       DOPC     H2X      HAL2     0.900000E-01   1.00800           0
      3994 MEMB     26       DOPC     H2Y      HAL2     0.900000E-01   1.00800           0
      3995 MEMB     26       DOPC     C23      CTL2    -0.180000       12.0110           0
      3996 MEMB     26       DOPC     H3R      HAL2     0.900000E-01   1.00800           0
      3997 MEMB     26       DOPC     H3S      HAL2     0.900000E-01   1.00800           0
      3998 MEMB     26       DOPC     C24      CTL2    -0.180000       12.0110           0
      3999 MEMB     26       DOPC     H4R      HAL2     0.900000E-01   1.00800           0
      4000 MEMB     26       DOPC     H4S      HAL2     0.900000E-01   1.00800           0
      4001 MEMB     26       DOPC     C25      CTL2    -0.180000       12.0110           0
      4002 MEMB     26       DOPC     H5R      HAL2     0.900000E-01   1.00800           0
      4003 MEMB     26       DOPC     H5S      HAL2     0.900000E-01   1.00800           0
      4004 MEMB     26       DOPC     C26      CTL2    -0.180000       12.0110           0
      4005 MEMB     26       DOPC     H6R      HAL2     0.900000E-01   1.00800           0
      4006 MEMB     26       DOPC     H6S      HAL2     0.900000E-01   1.00800           0
      4007 MEMB     26       DOPC     C27      CTL2    -0.180000       12.0110           0
      4008 MEMB     26       DOPC     H7R      HAL2     0.900000E-01   1.00800           0
      4009 MEMB     26       DOPC     H7S      HAL2     0.900000E-01   1.00800           0
      4010 MEMB     26       DOPC     C28      CTL2    -0.180000       12.0110           0
      4011 MEMB     26       DOPC     H8R      HAL2     0.900000E-01   1.00800           0
      4012 MEMB     26       DOPC     H8S      HAL2     0.900000E-01   1.00800           0
      4013 MEMB     26       DOPC     C29      CEL1    -0.150000       12.0110           0
      4014 MEMB     26       DOPC     H9R      HEL1     0.150000       1.00800           0
      4015 MEMB     26       DOPC     C210     CEL1    -0.150000       12.0110           0
      4016 MEMB     26       DOPC     H10R     HEL1     0.150000       1.00800           0
      4017 MEMB     26       DOPC     C211     CTL2    -0.180000       12.0110           0
      4018 MEMB     26       DOPC     H11R     HAL2     0.900000E-01   1.00800           0
      4019 MEMB     26       DOPC     H11S     HAL2     0.900000E-01   1.00800           0
      4020 MEMB     26       DOPC     C212     CTL2    -0.180000       12.0110           0
      4021 MEMB     26       DOPC     H12R     HAL2     0.900000E-01   1.00800           0
      4022 MEMB     26       DOPC     H12S     HAL2     0.900000E-01   1.00800           0
      4023 MEMB     26       DOPC     C213     CTL2    -0.180000       12.0110           0
      4024 MEMB     26       DOPC     H13R     HAL2     0.900000E-01   1.00800           0
      4025 MEMB     26       DOPC     H13S     HAL2     0.900000E-01   1.00800           0
      4026 MEMB     26       DOPC     C214     CTL2    -0.180000       12.0110           0
      4027 MEMB     26       DOPC     H14R     HAL2     0.900000E-01   1.00800           0
      4028 MEMB     26       DOPC     H14S     HAL2     0.900000E-01   1.00800           0
      4029 MEMB     26       DOPC     C215     CTL2    -0.180000       12.0110           0
      4030 MEMB     26       DOPC     H15R     HAL2     0.900000E-01   1.00800           0
      4031 MEMB     26       DOPC     H15S     HAL2     0.900000E-01   1.00800           0
      4032 MEMB     26       DOPC     C216     CTL2    -0.180000       12.0110           0
      4033 MEMB     26       DOPC     H16R     HAL2     0.900000E-01   1.00800           0
      4034 MEMB     26       DOPC     H16S     HAL2     0.900000E-01   1.00800           0
      4035 MEMB     26       DOPC     C217     CTL2    -0.180000       12.0110           0
      4036 MEMB     26       DOPC     H17R     HAL2     0.900000E-01   1.00800           0
      4037 MEMB     26       DOPC     H17S     HAL2     0.900000E-01   1.00800           0
      4038 MEMB     26       DOPC     C218     CTL3    -0.270000       12.0110           0
      4039 MEMB     26       DOPC     H18R     HAL3     0.900000E-01   1.00800           0
      4040 MEMB     26       DOPC     H18S     HAL3     0.900000E-01   1.00800           0
      4041 MEMB     26       DOPC     H18T     HAL3     0.900000E-01   1.00800           0
      4042 MEMB     26       DOPC     C33      CTL2    -0.180000       12.0110           0
      4043 MEMB     26       DOPC     H3X      HAL2     0.900000E-01   1.00800           0
      4044 MEMB     26       DOPC     H3Y      HAL2     0.900000E-01   1.00800           0
      4045 MEMB     26       DOPC     C34      CTL2    -0.180000       12.0110           0
      4046 MEMB     26       DOPC     H4X      HAL2     0.900000E-01   1.00800           0
      4047 MEMB     26       DOPC     H4Y      HAL2     0.900000E-01   1.00800           0
      4048 MEMB     26       DOPC     C35      CTL2    -0.180000       12.0110           0
      4049 MEMB     26       DOPC     H5X      HAL2     0.900000E-01   1.00800           0
      4050 MEMB     26       DOPC     H5Y      HAL2     0.900000E-01   1.00800           0
      4051 MEMB     26       DOPC     C36      CTL2    -0.180000       12.0110           0
      4052 MEMB     26       DOPC     H6X      HAL2     0.900000E-01   1.00800           0
      4053 MEMB     26       DOPC     H6Y      HAL2     0.900000E-01   1.00800           0
      4054 MEMB     26       DOPC     C37      CTL2    -0.180000       12.0110           0
      4055 MEMB     26       DOPC     H7X      HAL2     0.900000E-01   1.00800           0
      4056 MEMB     26       DOPC     H7Y      HAL2     0.900000E-01   1.00800           0
      4057 MEMB     26       DOPC     C38      CTL2    -0.180000       12.0110           0
      4058 MEMB     26       DOPC     H8X      HAL2     0.900000E-01   1.00800           0
      4059 MEMB     26       DOPC     H8Y      HAL2     0.900000E-01   1.00800           0
      4060 MEMB     26       DOPC     C39      CEL1    -0.150000       12.0110           0
      4061 MEMB     26       DOPC     H9X      HEL1     0.150000       1.00800           0
      4062 MEMB     26       DOPC     C310     CEL1    -0.150000       12.0110           0
      4063 MEMB     26       DOPC     H10X     HEL1     0.150000       1.00800           0
      4064 MEMB     26       DOPC     C311     CTL2    -0.180000       12.0110           0
      4065 MEMB     26       DOPC     H11X     HAL2     0.900000E-01   1.00800           0
      4066 MEMB     26       DOPC     H11Y     HAL2     0.900000E-01   1.00800           0
      4067 MEMB     26       DOPC     C312     CTL2    -0.180000       12.0110           0
      4068 MEMB     26       DOPC     H12X     HAL2     0.900000E-01   1.00800           0
      4069 MEMB     26       DOPC     H12Y     HAL2     0.900000E-01   1.00800           0
      4070 MEMB     26       DOPC     C313     CTL2    -0.180000       12.0110           0
      4071 MEMB     26       DOPC     H13X     HAL2     0.900000E-01   1.00800           0
      4072 MEMB     26       DOPC     H13Y     HAL2     0.900000E-01   1.00800           0
      4073 MEMB     26       DOPC     C314     CTL2    -0.180000       12.0110           0
      4074 MEMB     26       DOPC     H14X     HAL2     0.900000E-01   1.00800           0
      4075 MEMB     26       DOPC     H14Y     HAL2     0.900000E-01   1.00800           0
      4076 MEMB     26       DOPC     C315     CTL2    -0.180000       12.0110           0
      4077 MEMB     26       DOPC     H15X     HAL2     0.900000E-01   1.00800           0
      4078 MEMB     26       DOPC     H15Y     HAL2     0.900000E-01   1.00800           0
      4079 MEMB     26       DOPC     C316     CTL2    -0.180000       12.0110           0
      4080 MEMB     26       DOPC     H16X     HAL2     0.900000E-01   1.00800           0
      4081 MEMB     26       DOPC     H16Y     HAL2     0.900000E-01   1.00800           0
      4082 MEMB     26       DOPC     C317     CTL2    -0.180000       12.0110           0
      4083 MEMB     26       DOPC     H17X     HAL2     0.900000E-01   1.00800           0
      4084 MEMB     26       DOPC     H17Y     HAL2     0.900000E-01   1.00800           0
      4085 MEMB     26       DOPC     C318     CTL3    -0.270000       12.0110           0
      4086 MEMB     26       DOPC     H18X     HAL3     0.900000E-01   1.00800           0
      4087 MEMB     26       DOPC     H18Y     HAL3     0.900000E-01   1.00800           0
      4088 MEMB     26       DOPC     H18Z     HAL3     0.900000E-01   1.00800           0
      4089 MEMB     27       DOPC     N        NTL     -0.600000       14.0070           0
      4090 MEMB     27       DOPC     C12      CTL2    -0.100000       12.0110           0
      4091 MEMB     27       DOPC     H12A     HL       0.250000       1.00800           0
      4092 MEMB     27       DOPC     H12B     HL       0.250000       1.00800           0
      4093 MEMB     27       DOPC     C13      CTL5    -0.350000       12.0110           0
      4094 MEMB     27       DOPC     H13A     HL       0.250000       1.00800           0
      4095 MEMB     27       DOPC     H13B     HL       0.250000       1.00800           0
      4096 MEMB     27       DOPC     H13C     HL       0.250000       1.00800           0
      4097 MEMB     27       DOPC     C14      CTL5    -0.350000       12.0110           0
      4098 MEMB     27       DOPC     H14A     HL       0.250000       1.00800           0
      4099 MEMB     27       DOPC     H14B     HL       0.250000       1.00800           0
      4100 MEMB     27       DOPC     H14C     HL       0.250000       1.00800           0
      4101 MEMB     27       DOPC     C15      CTL5    -0.350000       12.0110           0
      4102 MEMB     27       DOPC     H15A     HL       0.250000       1.00800           0
      4103 MEMB     27       DOPC     H15B     HL       0.250000       1.00800           0
      4104 MEMB     27       DOPC     H15C     HL       0.250000       1.00800           0
      4105 MEMB     27       DOPC     C11      CTL2    -0.800000E-01   12.0110           0
      4106 MEMB     27       DOPC     H11A     HAL2     0.900000E-01   1.00800           0
      4107 MEMB     27       DOPC     H11B     HAL2     0.900000E-01   1.00800           0
      4108 MEMB     27       DOPC     P        PL        1.50000       30.9740           0
      4109 MEMB     27       DOPC     O13      O2L     -0.780000       15.9994           0
      4110 MEMB     27       DOPC     O14      O2L     -0.780000       15.9994           0
      4111 MEMB     27       DOPC     O12      OSLP    -0.570000       15.9994           0
      4112 MEMB     27       DOPC     O11      OSLP    -0.570000       15.9994           0
      4113 MEMB     27       DOPC     C1       CTL2    -0.800000E-01   12.0110           0
      4114 MEMB     27       DOPC     HA       HAL2     0.900000E-01   1.00800           0
      4115 MEMB     27       DOPC     HB       HAL2     0.900000E-01   1.00800           0
      4116 MEMB     27       DOPC     C2       CTL1     0.170000       12.0110           0
      4117 MEMB     27       DOPC     HS       HAL1     0.900000E-01   1.00800           0
      4118 MEMB     27       DOPC     O21      OSL     -0.490000       15.9994           0
      4119 MEMB     27       DOPC     C21      CL       0.900000       12.0110           0
      4120 MEMB     27       DOPC     O22      OBL     -0.630000       15.9994           0
      4121 MEMB     27       DOPC     C22      CTL2    -0.220000       12.0110           0
      4122 MEMB     27       DOPC     H2R      HAL2     0.900000E-01   1.00800           0
      4123 MEMB     27       DOPC     H2S      HAL2     0.900000E-01   1.00800           0
      4124 MEMB     27       DOPC     C3       CTL2     0.800000E-01   12.0110           0
      4125 MEMB     27       DOPC     HX       HAL2     0.900000E-01   1.00800           0
      4126 MEMB     27       DOPC     HY       HAL2     0.900000E-01   1.00800           0
      4127 MEMB     27       DOPC     O31      OSL     -0.490000       15.9994           0
      4128 MEMB     27       DOPC     C31      CL       0.900000       12.0110           0
      4129 MEMB     27       DOPC     O32      OBL     -0.630000       15.9994           0
      4130 MEMB     27       DOPC     C32      CTL2    -0.220000       12.0110           0
      4131 MEMB     27       DOPC     H2X      HAL2     0.900000E-01   1.00800           0
      4132 MEMB     27       DOPC     H2Y      HAL2     0.900000E-01   1.00800           0
      4133 MEMB     27       DOPC     C23      CTL2    -0.180000       12.0110           0
      4134 MEMB     27       DOPC     H3R      HAL2     0.900000E-01   1.00800           0
      4135 MEMB     27       DOPC     H3S      HAL2     0.900000E-01   1.00800           0
      4136 MEMB     27       DOPC     C24      CTL2    -0.180000       12.0110           0
      4137 MEMB     27       DOPC     H4R      HAL2     0.900000E-01   1.00800           0
      4138 MEMB     27       DOPC     H4S      HAL2     0.900000E-01   1.00800           0
      4139 MEMB     27       DOPC     C25      CTL2    -0.180000       12.0110           0
      4140 MEMB     27       DOPC     H5R      HAL2     0.900000E-01   1.00800           0
      4141 MEMB     27       DOPC     H5S      HAL2     0.900000E-01   1.00800           0
      4142 MEMB     27       DOPC     C26      CTL2    -0.180000       12.0110           0
      4143 MEMB     27       DOPC     H6R      HAL2     0.900000E-01   1.00800           0
      4144 MEMB     27       DOPC     H6S      HAL2     0.900000E-01   1.00800           0
      4145 MEMB     27       DOPC     C27      CTL2    -0.180000       12.0110           0
      4146 MEMB     27       DOPC     H7R      HAL2     0.900000E-01   1.00800           0
      4147 MEMB     27       DOPC     H7S      HAL2     0.900000E-01   1.00800           0
      4148 MEMB     27       DOPC     C28      CTL2    -0.180000       12.0110           0
      4149 MEMB     27       DOPC     H8R      HAL2     0.900000E-01   1.00800           0
      4150 MEMB     27       DOPC     H8S      HAL2     0.900000E-01   1.00800           0
      4151 MEMB     27       DOPC     C29      CEL1    -0.150000       12.0110           0
      4152 MEMB     27       DOPC     H9R      HEL1     0.150000       1.00800           0
      4153 MEMB     27       DOPC     C210     CEL1    -0.150000       12.0110           0
      4154 MEMB     27       DOPC     H10R     HEL1     0.150000       1.00800           0
      4155 MEMB     27       DOPC     C211     CTL2    -0.180000       12.0110           0
      4156 MEMB     27       DOPC     H11R     HAL2     0.900000E-01   1.00800           0
      4157 MEMB     27       DOPC     H11S     HAL2     0.900000E-01   1.00800           0
      4158 MEMB     27       DOPC     C212     CTL2    -0.180000       12.0110           0
      4159 MEMB     27       DOPC     H12R     HAL2     0.900000E-01   1.00800           0
      4160 MEMB     27       DOPC     H12S     HAL2     0.900000E-01   1.00800           0
      4161 MEMB     27       DOPC     C213     CTL2    -0.180000       12.0110           0
      4162 MEMB     27       DOPC     H13R     HAL2     0.900000E-01   1.00800           0
      4163 MEMB     27       DOPC     H13S     HAL2     0.900000E-01   1.00800           0
      4164 MEMB     27       DOPC     C214     CTL2    -0.180000       12.0110           0
      4165 MEMB     27       DOPC     H14R     HAL2     0.900000E-01   1.00800           0
      4166 MEMB     27       DOPC     H14S     HAL2     0.900000E-01   1.00800           0
      4167 MEMB     27       DOPC     C215     CTL2    -0.180000       12.0110           0
      4168 MEMB     27       DOPC     H15R     HAL2     0.900000E-01   1.00800           0
      4169 MEMB     27       DOPC     H15S     HAL2     0.900000E-01   1.00800           0
      4170 MEMB     27       DOPC     C216     CTL2    -0.180000       12.0110           0
      4171 MEMB     27       DOPC     H16R     HAL2     0.900000E-01   1.00800           0
      4172 MEMB     27       DOPC     H16S     HAL2     0.900000E-01   1.00800           0
      4173 MEMB     27       DOPC     C217     CTL2    -0.180000       12.0110           0
      4174 MEMB     27       DOPC     H17R     HAL2     0.900000E-01   1.00800           0
      4175 MEMB     27       DOPC     H17S     HAL2     0.900000E-01   1.00800           0
      4176 MEMB     27       DOPC     C218     CTL3    -0.270000       12.0110           0
      4177 MEMB     27       DOPC     H18R     HAL3     0.900000E-01   1.00800           0
      4178 MEMB     27       DOPC     H18S     HAL3     0.900000E-01   1.00800           0
      4179 MEMB     27       DOPC     H18T     HAL3     0.900000E-01   1.00800           0
      4180 MEMB     27       DOPC     C33      CTL2    -0.180000       12.0110           0
      4181 MEMB     27       DOPC     H3X      HAL2     0.900000E-01   1.00800           0
      4182 MEMB     27       DOPC     H3Y      HAL2     0.900000E-01   1.00800           0
      4183 MEMB     27       DOPC     C34      CTL2    -0.180000       12.0110           0
      4184 MEMB     27       DOPC     H4X      HAL2     0.900000E-01   1.00800           0
      4185 MEMB     27       DOPC     H4Y      HAL2     0.900000E-01   1.00800           0
      4186 MEMB     27       DOPC     C35      CTL2    -0.180000       12.0110           0
      4187 MEMB     27       DOPC     H5X      HAL2     0.900000E-01   1.00800           0
      4188 MEMB     27       DOPC     H5Y      HAL2     0.900000E-01   1.00800           0
      4189 MEMB     27       DOPC     C36      CTL2    -0.180000       12.0110           0
      4190 MEMB     27       DOPC     H6X      HAL2     0.900000E-01   1.00800           0
      4191 MEMB     27       DOPC     H6Y      HAL2     0.900000E-01   1.00800           0
      4192 MEMB     27       DOPC     C37      CTL2    -0.180000       12.0110           0
      4193 MEMB     27       DOPC     H7X      HAL2     0.900000E-01   1.00800           0
      4194 MEMB     27       DOPC     H7Y      HAL2     0.900000E-01   1.00800           0
      4195 MEMB     27       DOPC     C38      CTL2    -0.180000       12.0110           0
      4196 MEMB     27       DOPC     H8X      HAL2     0.900000E-01   1.00800           0
      4197 MEMB     27       DOPC     H8Y      HAL2     0.900000E-01   1.00800           0
      4198 MEMB     27       DOPC     C39      CEL1    -0.150000       12.0110           0
      4199 MEMB     27       DOPC     H9X      HEL1     0.150000       1.00800           0
      4200 MEMB     27       DOPC     C310     CEL1    -0.150000       12.0110           0
      4201 MEMB     27       DOPC     H10X     HEL1     0.150000       1.00800           0
      4202 MEMB     27       DOPC     C311     CTL2    -0.180000       12.0110           0
      4203 MEMB     27       DOPC     H11X     HAL2     0.900000E-01   1.00800           0
      4204 MEMB     27       DOPC     H11Y     HAL2     0.900000E-01   1.00800           0
      4205 MEMB     27       DOPC     C312     CTL2    -0.180000       12.0110           0
      4206 MEMB     27       DOPC     H12X     HAL2     0.900000E-01   1.00800           0
      4207 MEMB     27       DOPC     H12Y     HAL2     0.900000E-01   1.00800           0
      4208 MEMB     27       DOPC     C313     CTL2    -0.180000       12.0110           0
      4209 MEMB     27       DOPC     H13X     HAL2     0.900000E-01   1.00800           0
      4210 MEMB     27       DOPC     H13Y     HAL2     0.900000E-01   1.00800           0
      4211 MEMB     27       DOPC     C314     CTL2    -0.180000       12.0110           0
      4212 MEMB     27       DOPC     H14X     HAL2     0.900000E-01   1.00800           0
      4213 MEMB     27       DOPC     H14Y     HAL2     0.900000E-01   1.00800           0
      4214 MEMB     27       DOPC     C315     CTL2    -0.180000       12.0110           0
      4215 MEMB     27       DOPC     H15X     HAL2     0.900000E-01   1.00800           0
      4216 MEMB     27       DOPC     H15Y     HAL2     0.900000E-01   1.00800           0
      4217 MEMB     27       DOPC     C316     CTL2    -0.180000       12.0110           0
      4218 MEMB     27       DOPC     H16X     HAL2     0.900000E-01   1.00800           0
      4219 MEMB     27       DOPC     H16Y     HAL2     0.900000E-01   1.00800           0
      4220 MEMB     27       DOPC     C317     CTL2    -0.180000       12.0110           0
      4221 MEMB     27       DOPC     H17X     HAL2     0.900000E-01   1.00800           0
      4222 MEMB     27       DOPC     H17Y     HAL2     0.900000E-01   1.00800           0
      4223 MEMB     27       DOPC     C318     CTL3    -0.270000       12.0110           0
      4224 MEMB     27       DOPC     H18X     HAL3     0.900000E-01   1.00800           0
      4225 MEMB     27       DOPC     H18Y     HAL3     0.900000E-01   1.00800           0
      4226 MEMB     27       DOPC     H18Z     HAL3     0.900000E-01   1.00800           0
      4227 MEMB     28       DOPC     N        NTL     -0.600000       14.0070           0
      4228 MEMB     28       DOPC     C12      CTL2    -0.100000       12.0110           0
      4229 MEMB     28       DOPC     H12A     HL       0.250000       1.00800           0
      4230 MEMB     28       DOPC     H12B     HL       0.250000       1.00800           0
      4231 MEMB     28       DOPC     C13      CTL5    -0.350000       12.0110           0
      4232 MEMB     28       DOPC     H13A     HL       0.250000       1.00800           0
      4233 MEMB     28       DOPC     H13B     HL       0.250000       1.00800           0
      4234 MEMB     28       DOPC     H13C     HL       0.250000       1.00800           0
      4235 MEMB     28       DOPC     C14      CTL5    -0.350000       12.0110           0
      4236 MEMB     28       DOPC     H14A     HL       0.250000       1.00800           0
      4237 MEMB     28       DOPC     H14B     HL       0.250000       1.00800           0
      4238 MEMB     28       DOPC     H14C     HL       0.250000       1.00800           0
      4239 MEMB     28       DOPC     C15      CTL5    -0.350000       12.0110           0
      4240 MEMB     28       DOPC     H15A     HL       0.250000       1.00800           0
      4241 MEMB     28       DOPC     H15B     HL       0.250000       1.00800           0
      4242 MEMB     28       DOPC     H15C     HL       0.250000       1.00800           0
      4243 MEMB     28       DOPC     C11      CTL2    -0.800000E-01   12.0110           0
      4244 MEMB     28       DOPC     H11A     HAL2     0.900000E-01   1.00800           0
      4245 MEMB     28       DOPC     H11B     HAL2     0.900000E-01   1.00800           0
      4246 MEMB     28       DOPC     P        PL        1.50000       30.9740           0
      4247 MEMB     28       DOPC     O13      O2L     -0.780000       15.9994           0
      4248 MEMB     28       DOPC     O14      O2L     -0.780000       15.9994           0
      4249 MEMB     28       DOPC     O12      OSLP    -0.570000       15.9994           0
      4250 MEMB     28       DOPC     O11      OSLP    -0.570000       15.9994           0
      4251 MEMB     28       DOPC     C1       CTL2    -0.800000E-01   12.0110           0
      4252 MEMB     28       DOPC     HA       HAL2     0.900000E-01   1.00800           0
      4253 MEMB     28       DOPC     HB       HAL2     0.900000E-01   1.00800           0
      4254 MEMB     28       DOPC     C2       CTL1     0.170000       12.0110           0
      4255 MEMB     28       DOPC     HS       HAL1     0.900000E-01   1.00800           0
      4256 MEMB     28       DOPC     O21      OSL     -0.490000       15.9994           0
      4257 MEMB     28       DOPC     C21      CL       0.900000       12.0110           0
      4258 MEMB     28       DOPC     O22      OBL     -0.630000       15.9994           0
      4259 MEMB     28       DOPC     C22      CTL2    -0.220000       12.0110           0
      4260 MEMB     28       DOPC     H2R      HAL2     0.900000E-01   1.00800           0
      4261 MEMB     28       DOPC     H2S      HAL2     0.900000E-01   1.00800           0
      4262 MEMB     28       DOPC     C3       CTL2     0.800000E-01   12.0110           0
      4263 MEMB     28       DOPC     HX       HAL2     0.900000E-01   1.00800           0
      4264 MEMB     28       DOPC     HY       HAL2     0.900000E-01   1.00800           0
      4265 MEMB     28       DOPC     O31      OSL     -0.490000       15.9994           0
      4266 MEMB     28       DOPC     C31      CL       0.900000       12.0110           0
      4267 MEMB     28       DOPC     O32      OBL     -0.630000       15.9994           0
      4268 MEMB     28       DOPC     C32      CTL2    -0.220000       12.0110           0
      4269 MEMB     28       DOPC     H2X      HAL2     0.900000E-01   1.00800           0
      4270 MEMB     28       DOPC     H2Y      HAL2     0.900000E-01   1.00800           0
      4271 MEMB     28       DOPC     C23      CTL2    -0.180000       12.0110           0
      4272 MEMB     28       DOPC     H3R      HAL2     0.900000E-01   1.00800           0
      4273 MEMB     28       DOPC     H3S      HAL2     0.900000E-01   1.00800           0
      4274 MEMB     28       DOPC     C24      CTL2    -0.180000       12.0110           0
      4275 MEMB     28       DOPC     H4R      HAL2     0.900000E-01   1.00800           0
      4276 MEMB     28       DOPC     H4S      HAL2     0.900000E-01   1.00800           0
      4277 MEMB     28       DOPC     C25      CTL2    -0.180000       12.0110           0
      4278 MEMB     28       DOPC     H5R      HAL2     0.900000E-01   1.00800           0
      4279 MEMB     28       DOPC     H5S      HAL2     0.900000E-01   1.00800           0
      4280 MEMB     28       DOPC     C26      CTL2    -0.180000       12.0110           0
      4281 MEMB     28       DOPC     H6R      HAL2     0.900000E-01   1.00800           0
      4282 MEMB     28       DOPC     H6S      HAL2     0.900000E-01   1.00800           0
      4283 MEMB     28       DOPC     C27      CTL2    -0.180000       12.0110           0
      4284 MEMB     28       DOPC     H7R      HAL2     0.900000E-01   1.00800           0
      4285 MEMB     28       DOPC     H7S      HAL2     0.900000E-01   1.00800           0
      4286 MEMB     28       DOPC     C28      CTL2    -0.180000       12.0110           0
      4287 MEMB     28       DOPC     H8R      HAL2     0.900000E-01   1.00800           0
      4288 MEMB     28       DOPC     H8S      HAL2     0.900000E-01   1.00800           0
      4289 MEMB     28       DOPC     C29      CEL1    -0.150000       12.0110           0
      4290 MEMB     28       DOPC     H9R      HEL1     0.150000       1.00800           0
      4291 MEMB     28       DOPC     C210     CEL1    -0.150000       12.0110           0
      4292 MEMB     28       DOPC     H10R     HEL1     0.150000       1.00800           0
      4293 MEMB     28       DOPC     C211     CTL2    -0.180000       12.0110           0
      4294 MEMB     28       DOPC     H11R     HAL2     0.900000E-01   1.00800           0
      4295 MEMB     28       DOPC     H11S     HAL2     0.900000E-01   1.00800           0
      4296 MEMB     28       DOPC     C212     CTL2    -0.180000       12.0110           0
      4297 MEMB     28       DOPC     H12R     HAL2     0.900000E-01   1.00800           0
      4298 MEMB     28       DOPC     H12S     HAL2     0.900000E-01   1.00800           0
      4299 MEMB     28       DOPC     C213     CTL2    -0.180000       12.0110           0
      4300 MEMB     28       DOPC     H13R     HAL2     0.900000E-01   1.00800           0
      4301 MEMB     28       DOPC     H13S     HAL2     0.900000E-01   1.00800           0
      4302 MEMB     28       DOPC     C214     CTL2    -0.180000       12.0110           0
      4303 MEMB     28       DOPC     H14R     HAL2     0.900000E-01   1.00800           0
      4304 MEMB     28       DOPC     H14S     HAL2     0.900000E-01   1.00800           0
      4305 MEMB     28       DOPC     C215     CTL2    -0.180000       12.0110           0
      4306 MEMB     28       DOPC     H15R     HAL2     0.900000E-01   1.00800           0
      4307 MEMB     28       DOPC     H15S     HAL2     0.900000E-01   1.00800           0
      4308 MEMB     28       DOPC     C216     CTL2    -0.180000       12.0110           0
      4309 MEMB     28       DOPC     H16R     HAL2     0.900000E-01   1.00800           0
      4310 MEMB     28       DOPC     H16S     HAL2     0.900000E-01   1.00800           0
      4311 MEMB     28       DOPC     C217     CTL2    -0.180000       12.0110           0
      4312 MEMB     28       DOPC     H17R     HAL2     0.900000E-01   1.00800           0
      4313 MEMB     28       DOPC     H17S     HAL2     0.900000E-01   1.00800           0
      4314 MEMB     28       DOPC     C218     CTL3    -0.270000       12.0110           0
      4315 MEMB     28       DOPC     H18R     HAL3     0.900000E-01   1.00800           0
      4316 MEMB     28       DOPC     H18S     HAL3     0.900000E-01   1.00800           0
      4317 MEMB     28       DOPC     H18T     HAL3     0.900000E-01   1.00800           0
      4318 MEMB     28       DOPC     C33      CTL2    -0.180000       12.0110           0
      4319 MEMB     28       DOPC     H3X      HAL2     0.900000E-01   1.00800           0
      4320 MEMB     28       DOPC     H3Y      HAL2     0.900000E-01   1.00800           0
      4321 MEMB     28       DOPC     C34      CTL2    -0.180000       12.0110           0
      4322 MEMB     28       DOPC     H4X      HAL2     0.900000E-01   1.00800           0
      4323 MEMB     28       DOPC     H4Y      HAL2     0.900000E-01   1.00800           0
      4324 MEMB     28       DOPC     C35      CTL2    -0.180000       12.0110           0
      4325 MEMB     28       DOPC     H5X      HAL2     0.900000E-01   1.00800           0
      4326 MEMB     28       DOPC     H5Y      HAL2     0.900000E-01   1.00800           0
      4327 MEMB     28       DOPC     C36      CTL2    -0.180000       12.0110           0
      4328 MEMB     28       DOPC     H6X      HAL2     0.900000E-01   1.00800           0
      4329 MEMB     28       DOPC     H6Y      HAL2     0.900000E-01   1.00800           0
      4330 MEMB     28       DOPC     C37      CTL2    -0.180000       12.0110           0
      4331 MEMB     28       DOPC     H7X      HAL2     0.900000E-01   1.00800           0
      4332 MEMB     28       DOPC     H7Y      HAL2     0.900000E-01   1.00800           0
      4333 MEMB     28       DOPC     C38      CTL2    -0.180000       12.0110           0
      4334 MEMB     28       DOPC     H8X      HAL2     0.900000E-01   1.00800           0
      4335 MEMB     28       DOPC     H8Y      HAL2     0.900000E-01   1.00800           0
      4336 MEMB     28       DOPC     C39      CEL1    -0.150000       12.0110           0
      4337 MEMB     28       DOPC     H9X      HEL1     0.150000       1.00800           0
      4338 MEMB     28       DOPC     C310     CEL1    -0.150000       12.0110           0
      4339 MEMB     28       DOPC     H10X     HEL1     0.150000       1.00800           0
      4340 MEMB     28       DOPC     C311     CTL2    -0.180000       12.0110           0
      4341 MEMB     28       DOPC     H11X     HAL2     0.900000E-01   1.00800           0
      4342 MEMB     28       DOPC     H11Y     HAL2     0.900000E-01   1.00800           0
      4343 MEMB     28       DOPC     C312     CTL2    -0.180000       12.0110           0
      4344 MEMB     28       DOPC     H12X     HAL2     0.900000E-01   1.00800           0
      4345 MEMB     28       DOPC     H12Y     HAL2     0.900000E-01   1.00800           0
      4346 MEMB     28       DOPC     C313     CTL2    -0.180000       12.0110           0
      4347 MEMB     28       DOPC     H13X     HAL2     0.900000E-01   1.00800           0
      4348 MEMB     28       DOPC     H13Y     HAL2     0.900000E-01   1.00800           0
      4349 MEMB     28       DOPC     C314     CTL2    -0.180000       12.0110           0
      4350 MEMB     28       DOPC     H14X     HAL2     0.900000E-01   1.00800           0
      4351 MEMB     28       DOPC     H14Y     HAL2     0.900000E-01   1.00800           0
      4352 MEMB     28       DOPC     C315     CTL2    -0.180000       12.0110           0
      4353 MEMB     28       DOPC     H15X     HAL2     0.900000E-01   1.00800           0
      4354 MEMB     28       DOPC     H15Y     HAL2     0.900000E-01   1.00800           0
      4355 MEMB     28       DOPC     C316     CTL2    -0.180000       12.0110           0
      4356 MEMB     28       DOPC     H16X     HAL2     0.900000E-01   1.00800           0
      4357 MEMB     28       DOPC     H16Y     HAL2     0.900000E-01   1.00800           0
      4358 MEMB     28       DOPC     C317     CTL2    -0.180000       12.0110           0
      4359 MEMB     28       DOPC     H17X     HAL2     0.900000E-01   1.00800           0
      4360 MEMB     28       DOPC     H17Y     HAL2     0.900000E-01   1.00800           0
      4361 MEMB     28       DOPC     C318     CTL3    -0.270000       12.0110           0
      4362 MEMB     28       DOPC     H18X     HAL3     0.900000E-01   1.00800           0
      4363 MEMB     28       DOPC     H18Y     HAL3     0.900000E-01   1.00800           0
      4364 MEMB     28       DOPC     H18Z     HAL3     0.900000E-01   1.00800           0
      4365 MEMB     29       DOPC     N        NTL     -0.600000       14.0070           0
      4366 MEMB     29       DOPC     C12      CTL2    -0.100000       12.0110           0
      4367 MEMB     29       DOPC     H12A     HL       0.250000       1.00800           0
      4368 MEMB     29       DOPC     H12B     HL       0.250000       1.00800           0
      4369 MEMB     29       DOPC     C13      CTL5    -0.350000       12.0110           0
      4370 MEMB     29       DOPC     H13A     HL       0.250000       1.00800           0
      4371 MEMB     29       DOPC     H13B     HL       0.250000       1.00800           0
      4372 MEMB     29       DOPC     H13C     HL       0.250000       1.00800           0
      4373 MEMB     29       DOPC     C14      CTL5    -0.350000       12.0110           0
      4374 MEMB     29       DOPC     H14A     HL       0.250000       1.00800           0
      4375 MEMB     29       DOPC     H14B     HL       0.250000       1.00800           0
      4376 MEMB     29       DOPC     H14C     HL       0.250000       1.00800           0
      4377 MEMB     29       DOPC     C15      CTL5    -0.350000       12.0110           0
      4378 MEMB     29       DOPC     H15A     HL       0.250000       1.00800           0
      4379 MEMB     29       DOPC     H15B     HL       0.250000       1.00800           0
      4380 MEMB     29       DOPC     H15C     HL       0.250000       1.00800           0
      4381 MEMB     29       DOPC     C11      CTL2    -0.800000E-01   12.0110           0
      4382 MEMB     29       DOPC     H11A     HAL2     0.900000E-01   1.00800           0
      4383 MEMB     29       DOPC     H11B     HAL2     0.900000E-01   1.00800           0
      4384 MEMB     29       DOPC     P        PL        1.50000       30.9740           0
      4385 MEMB     29       DOPC     O13      O2L     -0.780000       15.9994           0
      4386 MEMB     29       DOPC     O14      O2L     -0.780000       15.9994           0
      4387 MEMB     29       DOPC     O12      OSLP    -0.570000       15.9994           0
      4388 MEMB     29       DOPC     O11      OSLP    -0.570000       15.9994           0
      4389 MEMB     29       DOPC     C1       CTL2    -0.800000E-01   12.0110           0
      4390 MEMB     29       DOPC     HA       HAL2     0.900000E-01   1.00800           0
      4391 MEMB     29       DOPC     HB       HAL2     0.900000E-01   1.00800           0
      4392 MEMB     29       DOPC     C2       CTL1     0.170000       12.0110           0
      4393 MEMB     29       DOPC     HS       HAL1     0.900000E-01   1.00800           0
      4394 MEMB     29       DOPC     O21      OSL     -0.490000       15.9994           0
      4395 MEMB     29       DOPC     C21      CL       0.900000       12.0110           0
      4396 MEMB     29       DOPC     O22      OBL     -0.630000       15.9994           0
      4397 MEMB     29       DOPC     C22      CTL2    -0.220000       12.0110           0
      4398 MEMB     29       DOPC     H2R      HAL2     0.900000E-01   1.00800           0
      4399 MEMB     29       DOPC     H2S      HAL2     0.900000E-01   1.00800           0
      4400 MEMB     29       DOPC     C3       CTL2     0.800000E-01   12.0110           0
      4401 MEMB     29       DOPC     HX       HAL2     0.900000E-01   1.00800           0
      4402 MEMB     29       DOPC     HY       HAL2     0.900000E-01   1.00800           0
      4403 MEMB     29       DOPC     O31      OSL     -0.490000       15.9994           0
      4404 MEMB     29       DOPC     C31      CL       0.900000       12.0110           0
      4405 MEMB     29       DOPC     O32      OBL     -0.630000       15.9994           0
      4406 MEMB     29       DOPC     C32      CTL2    -0.220000       12.0110           0
      4407 MEMB     29       DOPC     H2X      HAL2     0.900000E-01   1.00800           0
      4408 MEMB     29       DOPC     H2Y      HAL2     0.900000E-01   1.00800           0
      4409 MEMB     29       DOPC     C23      CTL2    -0.180000       12.0110           0
      4410 MEMB     29       DOPC     H3R      HAL2     0.900000E-01   1.00800           0
      4411 MEMB     29       DOPC     H3S      HAL2     0.900000E-01   1.00800           0
      4412 MEMB     29       DOPC     C24      CTL2    -0.180000       12.0110           0
      4413 MEMB     29       DOPC     H4R      HAL2     0.900000E-01   1.00800           0
      4414 MEMB     29       DOPC     H4S      HAL2     0.900000E-01   1.00800           0
      4415 MEMB     29       DOPC     C25      CTL2    -0.180000       12.0110           0
      4416 MEMB     29       DOPC     H5R      HAL2     0.900000E-01   1.00800           0
      4417 MEMB     29       DOPC     H5S      HAL2     0.900000E-01   1.00800           0
      4418 MEMB     29       DOPC     C26      CTL2    -0.180000       12.0110           0
      4419 MEMB     29       DOPC     H6R      HAL2     0.900000E-01   1.00800           0
      4420 MEMB     29       DOPC     H6S      HAL2     0.900000E-01   1.00800           0
      4421 MEMB     29       DOPC     C27      CTL2    -0.180000       12.0110           0
      4422 MEMB     29       DOPC     H7R      HAL2     0.900000E-01   1.00800           0
      4423 MEMB     29       DOPC     H7S      HAL2     0.900000E-01   1.00800           0
      4424 MEMB     29       DOPC     C28      CTL2    -0.180000       12.0110           0
      4425 MEMB     29       DOPC     H8R      HAL2     0.900000E-01   1.00800           0
      4426 MEMB     29       DOPC     H8S      HAL2     0.900000E-01   1.00800           0
      4427 MEMB     29       DOPC     C29      CEL1    -0.150000       12.0110           0
      4428 MEMB     29       DOPC     H9R      HEL1     0.150000       1.00800           0
      4429 MEMB     29       DOPC     C210     CEL1    -0.150000       12.0110           0
      4430 MEMB     29       DOPC     H10R     HEL1     0.150000       1.00800           0
      4431 MEMB     29       DOPC     C211     CTL2    -0.180000       12.0110           0
      4432 MEMB     29       DOPC     H11R     HAL2     0.900000E-01   1.00800           0
      4433 MEMB     29       DOPC     H11S     HAL2     0.900000E-01   1.00800           0
      4434 MEMB     29       DOPC     C212     CTL2    -0.180000       12.0110           0
      4435 MEMB     29       DOPC     H12R     HAL2     0.900000E-01   1.00800           0
      4436 MEMB     29       DOPC     H12S     HAL2     0.900000E-01   1.00800           0
      4437 MEMB     29       DOPC     C213     CTL2    -0.180000       12.0110           0
      4438 MEMB     29       DOPC     H13R     HAL2     0.900000E-01   1.00800           0
      4439 MEMB     29       DOPC     H13S     HAL2     0.900000E-01   1.00800           0
      4440 MEMB     29       DOPC     C214     CTL2    -0.180000       12.0110           0
      4441 MEMB     29       DOPC     H14R     HAL2     0.900000E-01   1.00800           0
      4442 MEMB     29       DOPC     H14S     HAL2     0.900000E-01   1.00800           0
      4443 MEMB     29       DOPC     C215     CTL2    -0.180000       12.0110           0
      4444 MEMB     29       DOPC     H15R     HAL2     0.900000E-01   1.00800           0
      4445 MEMB     29       DOPC     H15S     HAL2     0.900000E-01   1.00800           0
      4446 MEMB     29       DOPC     C216     CTL2    -0.180000       12.0110           0
      4447 MEMB     29       DOPC     H16R     HAL2     0.900000E-01   1.00800           0
      4448 MEMB     29       DOPC     H16S     HAL2     0.900000E-01   1.00800           0
      4449 MEMB     29       DOPC     C217     CTL2    -0.180000       12.0110           0
      4450 MEMB     29       DOPC     H17R     HAL2     0.900000E-01   1.00800           0
      4451 MEMB     29       DOPC     H17S     HAL2     0.900000E-01   1.00800           0
      4452 MEMB     29       DOPC     C218     CTL3    -0.270000       12.0110           0
      4453 MEMB     29       DOPC     H18R     HAL3     0.900000E-01   1.00800           0
      4454 MEMB     29       DOPC     H18S     HAL3     0.900000E-01   1.00800           0
      4455 MEMB     29       DOPC     H18T     HAL3     0.900000E-01   1.00800           0
      4456 MEMB     29       DOPC     C33      CTL2    -0.180000       12.0110           0
      4457 MEMB     29       DOPC     H3X      HAL2     0.900000E-01   1.00800           0
      4458 MEMB     29       DOPC     H3Y      HAL2     0.900000E-01   1.00800           0
      4459 MEMB     29       DOPC     C34      CTL2    -0.180000       12.0110           0
      4460 MEMB     29       DOPC     H4X      HAL2     0.900000E-01   1.00800           0
      4461 MEMB     29       DOPC     H4Y      HAL2     0.900000E-01   1.00800           0
      4462 MEMB     29       DOPC     C35      CTL2    -0.180000       12.0110           0
      4463 MEMB     29       DOPC     H5X      HAL2     0.900000E-01   1.00800           0
      4464 MEMB     29       DOPC     H5Y      HAL2     0.900000E-01   1.00800           0
      4465 MEMB     29       DOPC     C36      CTL2    -0.180000       12.0110           0
      4466 MEMB     29       DOPC     H6X      HAL2     0.900000E-01   1.00800           0
      4467 MEMB     29       DOPC     H6Y      HAL2     0.900000E-01   1.00800           0
      4468 MEMB     29       DOPC     C37      CTL2    -0.180000       12.0110           0
      4469 MEMB     29       DOPC     H7X      HAL2     0.900000E-01   1.00800           0
      4470 MEMB     29       DOPC     H7Y      HAL2     0.900000E-01   1.00800           0
      4471 MEMB     29       DOPC     C38      CTL2    -0.180000       12.0110           0
      4472 MEMB     29       DOPC     H8X      HAL2     0.900000E-01   1.00800           0
      4473 MEMB     29       DOPC     H8Y      HAL2     0.900000E-01   1.00800           0
      4474 MEMB     29       DOPC     C39      CEL1    -0.150000       12.0110           0
      4475 MEMB     29       DOPC     H9X      HEL1     0.150000       1.00800           0
      4476 MEMB     29       DOPC     C310     CEL1    -0.150000       12.0110           0
      4477 MEMB     29       DOPC     H10X     HEL1     0.150000       1.00800           0
      4478 MEMB     29       DOPC     C311     CTL2    -0.180000       12.0110           0
      4479 MEMB     29       DOPC     H11X     HAL2     0.900000E-01   1.00800           0
      4480 MEMB     29       DOPC     H11Y     HAL2     0.900000E-01   1.00800           0
      4481 MEMB     29       DOPC     C312     CTL2    -0.180000       12.0110           0
      4482 MEMB     29       DOPC     H12X     HAL2     0.900000E-01   1.00800           0
      4483 MEMB     29       DOPC     H12Y     HAL2     0.900000E-01   1.00800           0
      4484 MEMB     29       DOPC     C313     CTL2    -0.180000       12.0110           0
      4485 MEMB     29       DOPC     H13X     HAL2     0.900000E-01   1.00800           0
      4486 MEMB     29       DOPC     H13Y     HAL2     0.900000E-01   1.00800           0
      4487 MEMB     29       DOPC     C314     CTL2    -0.180000       12.0110           0
      4488 MEMB     29       DOPC     H14X     HAL2     0.900000E-01   1.00800           0
      4489 MEMB     29       DOPC     H14Y     HAL2     0.900000E-01   1.00800           0
      4490 MEMB     29       DOPC     C315     CTL2    -0.180000       12.0110           0
      4491 MEMB     29       DOPC     H15X     HAL2     0.900000E-01   1.00800           0
      4492 MEMB     29       DOPC     H15Y     HAL2     0.900000E-01   1.00800           0
      4493 MEMB     29       DOPC     C316     CTL2    -0.180000       12.0110           0
      4494 MEMB     29       DOPC     H16X     HAL2     0.900000E-01   1.00800           0
      4495 MEMB     29       DOPC     H16Y     HAL2     0.900000E-01   1.00800           0
      4496 MEMB     29       DOPC     C317     CTL2    -0.180000       12.0110           0
      4497 MEMB     29       DOPC     H17X     HAL2     0.900000E-01   1.00800           0
      4498 MEMB     29       DOPC     H17Y     HAL2     0.900000E-01   1.00800           0
      4499 MEMB     29       DOPC     C318     CTL3    -0.270000       12.0110           0
      4500 MEMB     29       DOPC     H18X     HAL3     0.900000E-01   1.00800           0
      4501 MEMB     29       DOPC     H18Y     HAL3     0.900000E-01   1.00800           0
      4502 MEMB     29       DOPC     H18Z     HAL3     0.900000E-01   1.00800           0
      4503 MEMB     30       DOPC     N        NTL     -0.600000       14.0070           0
      4504 MEMB     30       DOPC     C12      CTL2    -0.100000       12.0110           0
      4505 MEMB     30       DOPC     H12A     HL       0.250000       1.00800           0
      4506 MEMB     30       DOPC     H12B     HL       0.250000       1.00800           0
      4507 MEMB     30       DOPC     C13      CTL5    -0.350000       12.0110           0
      4508 MEMB     30       DOPC     H13A     HL       0.250000       1.00800           0
      4509 MEMB     30       DOPC     H13B     HL       0.250000       1.00800           0
      4510 MEMB     30       DOPC     H13C     HL       0.250000       1.00800           0
      4511 MEMB     30       DOPC     C14      CTL5    -0.350000       12.0110           0
      4512 MEMB     30       DOPC     H14A     HL       0.250000       1.00800           0
      4513 MEMB     30       DOPC     H14B     HL       0.250000       1.00800           0
      4514 MEMB     30       DOPC     H14C     HL       0.250000       1.00800           0
      4515 MEMB     30       DOPC     C15      CTL5    -0.350000       12.0110           0
      4516 MEMB     30       DOPC     H15A     HL       0.250000       1.00800           0
      4517 MEMB     30       DOPC     H15B     HL       0.250000       1.00800           0
      4518 MEMB     30       DOPC     H15C     HL       0.250000       1.00800           0
      4519 MEMB     30       DOPC     C11      CTL2    -0.800000E-01   12.0110           0
      4520 MEMB     30       DOPC     H11A     HAL2     0.900000E-01   1.00800           0
      4521 MEMB     30       DOPC     H11B     HAL2     0.900000E-01   1.00800           0
      4522 MEMB     30       DOPC     P        PL        1.50000       30.9740           0
      4523 MEMB     30       DOPC     O13      O2L     -0.780000       15.9994           0
      4524 MEMB     30       DOPC     O14      O2L     -0.780000       15.9994           0
      4525 MEMB     30       DOPC     O12      OSLP    -0.570000       15.9994           0
      4526 MEMB     30       DOPC     O11      OSLP    -0.570000       15.9994           0
      4527 MEMB     30       DOPC     C1       CTL2    -0.800000E-01   12.0110           0
      4528 MEMB     30       DOPC     HA       HAL2     0.900000E-01   1.00800           0
      4529 MEMB     30       DOPC     HB       HAL2     0.900000E-01   1.00800           0
      4530 MEMB     30       DOPC     C2       CTL1     0.170000       12.0110           0
      4531 MEMB     30       DOPC     HS       HAL1     0.900000E-01   1.00800           0
      4532 MEMB     30       DOPC     O21      OSL     -0.490000       15.9994           0
      4533 MEMB     30       DOPC     C21      CL       0.900000       12.0110           0
      4534 MEMB     30       DOPC     O22      OBL     -0.630000       15.9994           0
      4535 MEMB     30       DOPC     C22      CTL2    -0.220000       12.0110           0
      4536 MEMB     30       DOPC     H2R      HAL2     0.900000E-01   1.00800           0
      4537 MEMB     30       DOPC     H2S      HAL2     0.900000E-01   1.00800           0
      4538 MEMB     30       DOPC     C3       CTL2     0.800000E-01   12.0110           0
      4539 MEMB     30       DOPC     HX       HAL2     0.900000E-01   1.00800           0
      4540 MEMB     30       DOPC     HY       HAL2     0.900000E-01   1.00800           0
      4541 MEMB     30       DOPC     O31      OSL     -0.490000       15.9994           0
      4542 MEMB     30       DOPC     C31      CL       0.900000       12.0110           0
      4543 MEMB     30       DOPC     O32      OBL     -0.630000       15.9994           0
      4544 MEMB     30       DOPC     C32      CTL2    -0.220000       12.0110           0
      4545 MEMB     30       DOPC     H2X      HAL2     0.900000E-01   1.00800           0
      4546 MEMB     30       DOPC     H2Y      HAL2     0.900000E-01   1.00800           0
      4547 MEMB     30       DOPC     C23      CTL2    -0.180000       12.0110           0
      4548 MEMB     30       DOPC     H3R      HAL2     0.900000E-01   1.00800           0
      4549 MEMB     30       DOPC     H3S      HAL2     0.900000E-01   1.00800           0
      4550 MEMB     30       DOPC     C24      CTL2    -0.180000       12.0110           0
      4551 MEMB     30       DOPC     H4R      HAL2     0.900000E-01   1.00800           0
      4552 MEMB     30       DOPC     H4S      HAL2     0.900000E-01   1.00800           0
      4553 MEMB     30       DOPC     C25      CTL2    -0.180000       12.0110           0
      4554 MEMB     30       DOPC     H5R      HAL2     0.900000E-01   1.00800           0
      4555 MEMB     30       DOPC     H5S      HAL2     0.900000E-01   1.00800           0
      4556 MEMB     30       DOPC     C26      CTL2    -0.180000       12.0110           0
      4557 MEMB     30       DOPC     H6R      HAL2     0.900000E-01   1.00800           0
      4558 MEMB     30       DOPC     H6S      HAL2     0.900000E-01   1.00800           0
      4559 MEMB     30       DOPC     C27      CTL2    -0.180000       12.0110           0
      4560 MEMB     30       DOPC     H7R      HAL2     0.900000E-01   1.00800           0
      4561 MEMB     30       DOPC     H7S      HAL2     0.900000E-01   1.00800           0
      4562 MEMB     30       DOPC     C28      CTL2    -0.180000       12.0110           0
      4563 MEMB     30       DOPC     H8R      HAL2     0.900000E-01   1.00800           0
      4564 MEMB     30       DOPC     H8S      HAL2     0.900000E-01   1.00800           0
      4565 MEMB     30       DOPC     C29      CEL1    -0.150000       12.0110           0
      4566 MEMB     30       DOPC     H9R      HEL1     0.150000       1.00800           0
      4567 MEMB     30       DOPC     C210     CEL1    -0.150000       12.0110           0
      4568 MEMB     30       DOPC     H10R     HEL1     0.150000       1.00800           0
      4569 MEMB     30       DOPC     C211     CTL2    -0.180000       12.0110           0
      4570 MEMB     30       DOPC     H11R     HAL2     0.900000E-01   1.00800           0
      4571 MEMB     30       DOPC     H11S     HAL2     0.900000E-01   1.00800           0
      4572 MEMB     30       DOPC     C212     CTL2    -0.180000       12.0110           0
      4573 MEMB     30       DOPC     H12R     HAL2     0.900000E-01   1.00800           0
      4574 MEMB     30       DOPC     H12S     HAL2     0.900000E-01   1.00800           0
      4575 MEMB     30       DOPC     C213     CTL2    -0.180000       12.0110           0
      4576 MEMB     30       DOPC     H13R     HAL2     0.900000E-01   1.00800           0
      4577 MEMB     30       DOPC     H13S     HAL2     0.900000E-01   1.00800           0
      4578 MEMB     30       DOPC     C214     CTL2    -0.180000       12.0110           0
      4579 MEMB     30       DOPC     H14R     HAL2     0.900000E-01   1.00800           0
      4580 MEMB     30       DOPC     H14S     HAL2     0.900000E-01   1.00800           0
      4581 MEMB     30       DOPC     C215     CTL2    -0.180000       12.0110           0
      4582 MEMB     30       DOPC     H15R     HAL2     0.900000E-01   1.00800           0
      4583 MEMB     30       DOPC     H15S     HAL2     0.900000E-01   1.00800           0
      4584 MEMB     30       DOPC     C216     CTL2    -0.180000       12.0110           0
      4585 MEMB     30       DOPC     H16R     HAL2     0.900000E-01   1.00800           0
      4586 MEMB     30       DOPC     H16S     HAL2     0.900000E-01   1.00800           0
      4587 MEMB     30       DOPC     C217     CTL2    -0.180000       12.0110           0
      4588 MEMB     30       DOPC     H17R     HAL2     0.900000E-01   1.00800           0
      4589 MEMB     30       DOPC     H17S     HAL2     0.900000E-01   1.00800           0
      4590 MEMB     30       DOPC     C218     CTL3    -0.270000       12.0110           0
      4591 MEMB     30       DOPC     H18R     HAL3     0.900000E-01   1.00800           0
      4592 MEMB     30       DOPC     H18S     HAL3     0.900000E-01   1.00800           0
      4593 MEMB     30       DOPC     H18T     HAL3     0.900000E-01   1.00800           0
      4594 MEMB     30       DOPC     C33      CTL2    -0.180000       12.0110           0
      4595 MEMB     30       DOPC     H3X      HAL2     0.900000E-01   1.00800           0
      4596 MEMB     30       DOPC     H3Y      HAL2     0.900000E-01   1.00800           0
      4597 MEMB     30       DOPC     C34      CTL2    -0.180000       12.0110           0
      4598 MEMB     30       DOPC     H4X      HAL2     0.900000E-01   1.00800           0
      4599 MEMB     30       DOPC     H4Y      HAL2     0.900000E-01   1.00800           0
      4600 MEMB     30       DOPC     C35      CTL2    -0.180000       12.0110           0
      4601 MEMB     30       DOPC     H5X      HAL2     0.900000E-01   1.00800           0
      4602 MEMB     30       DOPC     H5Y      HAL2     0.900000E-01   1.00800           0
      4603 MEMB     30       DOPC     C36      CTL2    -0.180000       12.0110           0
      4604 MEMB     30       DOPC     H6X      HAL2     0.900000E-01   1.00800           0
      4605 MEMB     30       DOPC     H6Y      HAL2     0.900000E-01   1.00800           0
      4606 MEMB     30       DOPC     C37      CTL2    -0.180000       12.0110           0
      4607 MEMB     30       DOPC     H7X      HAL2     0.900000E-01   1.00800           0
      4608 MEMB     30       DOPC     H7Y      HAL2     0.900000E-01   1.00800           0
      4609 MEMB     30       DOPC     C38      CTL2    -0.180000       12.0110           0
      4610 MEMB     30       DOPC     H8X      HAL2     0.900000E-01   1.00800           0
      4611 MEMB     30       DOPC     H8Y      HAL2     0.900000E-01   1.00800           0
      4612 MEMB     30       DOPC     C39      CEL1    -0.150000       12.0110           0
      4613 MEMB     30       DOPC     H9X      HEL1     0.150000       1.00800           0
      4614 MEMB     30       DOPC     C310     CEL1    -0.150000       12.0110           0
      4615 MEMB     30       DOPC     H10X     HEL1     0.150000       1.00800           0
      4616 MEMB     30       DOPC     C311     CTL2    -0.180000       12.0110           0
      4617 MEMB     30       DOPC     H11X     HAL2     0.900000E-01   1.00800           0
      4618 MEMB     30       DOPC     H11Y     HAL2     0.900000E-01   1.00800           0
      4619 MEMB     30       DOPC     C312     CTL2    -0.180000       12.0110           0
      4620 MEMB     30       DOPC     H12X     HAL2     0.900000E-01   1.00800           0
      4621 MEMB     30       DOPC     H12Y     HAL2     0.900000E-01   1.00800           0
      4622 MEMB     30       DOPC     C313     CTL2    -0.180000       12.0110           0
      4623 MEMB     30       DOPC     H13X     HAL2     0.900000E-01   1.00800           0
      4624 MEMB     30       DOPC     H13Y     HAL2     0.900000E-01   1.00800           0
      4625 MEMB     30       DOPC     C314     CTL2    -0.180000       12.0110           0
      4626 MEMB     30       DOPC     H14X     HAL2     0.900000E-01   1.00800           0
      4627 MEMB     30       DOPC     H14Y     HAL2     0.900000E-01   1.00800           0
      4628 MEMB     30       DOPC     C315     CTL2    -0.180000       12.0110           0
      4629 MEMB     30       DOPC     H15X     HAL2     0.900000E-01   1.00800           0
      4630 MEMB     30       DOPC     H15Y     HAL2     0.900000E-01   1.00800           0
      4631 MEMB     30       DOPC     C316     CTL2    -0.180000       12.0110           0
      4632 MEMB     30       DOPC     H16X     HAL2     0.900000E-01   1.00800           0
      4633 MEMB     30       DOPC     H16Y     HAL2     0.900000E-01   1.00800           0
      4634 MEMB     30       DOPC     C317     CTL2    -0.180000       12.0110           0
      4635 MEMB     30       DOPC     H17X     HAL2     0.900000E-01   1.00800           0
      4636 MEMB     30       DOPC     H17Y     HAL2     0.900000E-01   1.00800           0
      4637 MEMB     30       DOPC     C318     CTL3    -0.270000       12.0110           0
      4638 MEMB     30       DOPC     H18X     HAL3     0.900000E-01   1.00800           0
      4639 MEMB     30       DOPC     H18Y     HAL3     0.900000E-01   1.00800           0
      4640 MEMB     30       DOPC     H18Z     HAL3     0.900000E-01   1.00800           0
      4641 MEMB     31       DOPC     N        NTL     -0.600000       14.0070           0
      4642 MEMB     31       DOPC     C12      CTL2    -0.100000       12.0110           0
      4643 MEMB     31       DOPC     H12A     HL       0.250000       1.00800           0
      4644 MEMB     31       DOPC     H12B     HL       0.250000       1.00800           0
      4645 MEMB     31       DOPC     C13      CTL5    -0.350000       12.0110           0
      4646 MEMB     31       DOPC     H13A     HL       0.250000       1.00800           0
      4647 MEMB     31       DOPC     H13B     HL       0.250000       1.00800           0
      4648 MEMB     31       DOPC     H13C     HL       0.250000       1.00800           0
      4649 MEMB     31       DOPC     C14      CTL5    -0.350000       12.0110           0
      4650 MEMB     31       DOPC     H14A     HL       0.250000       1.00800           0
      4651 MEMB     31       DOPC     H14B     HL       0.250000       1.00800           0
      4652 MEMB     31       DOPC     H14C     HL       0.250000       1.00800           0
      4653 MEMB     31       DOPC     C15      CTL5    -0.350000       12.0110           0
      4654 MEMB     31       DOPC     H15A     HL       0.250000       1.00800           0
      4655 MEMB     31       DOPC     H15B     HL       0.250000       1.00800           0
      4656 MEMB     31       DOPC     H15C     HL       0.250000       1.00800           0
      4657 MEMB     31       DOPC     C11      CTL2    -0.800000E-01   12.0110           0
      4658 MEMB     31       DOPC     H11A     HAL2     0.900000E-01   1.00800           0
      4659 MEMB     31       DOPC     H11B     HAL2     0.900000E-01   1.00800           0
      4660 MEMB     31       DOPC     P        PL        1.50000       30.9740           0
      4661 MEMB     31       DOPC     O13      O2L     -0.780000       15.9994           0
      4662 MEMB     31       DOPC     O14      O2L     -0.780000       15.9994           0
      4663 MEMB     31       DOPC     O12      OSLP    -0.570000       15.9994           0
      4664 MEMB     31       DOPC     O11      OSLP    -0.570000       15.9994           0
      4665 MEMB     31       DOPC     C1       CTL2    -0.800000E-01   12.0110           0
      4666 MEMB     31       DOPC     HA       HAL2     0.900000E-01   1.00800           0
      4667 MEMB     31       DOPC     HB       HAL2     0.900000E-01   1.00800           0
      4668 MEMB     31       DOPC     C2       CTL1     0.170000       12.0110           0
      4669 MEMB     31       DOPC     HS       HAL1     0.900000E-01   1.00800           0
      4670 MEMB     31       DOPC     O21      OSL     -0.490000       15.9994           0
      4671 MEMB     31       DOPC     C21      CL       0.900000       12.0110           0
      4672 MEMB     31       DOPC     O22      OBL     -0.630000       15.9994           0
      4673 MEMB     31       DOPC     C22      CTL2    -0.220000       12.0110           0
      4674 MEMB     31       DOPC     H2R      HAL2     0.900000E-01   1.00800           0
      4675 MEMB     31       DOPC     H2S      HAL2     0.900000E-01   1.00800           0
      4676 MEMB     31       DOPC     C3       CTL2     0.800000E-01   12.0110           0
      4677 MEMB     31       DOPC     HX       HAL2     0.900000E-01   1.00800           0
      4678 MEMB     31       DOPC     HY       HAL2     0.900000E-01   1.00800           0
      4679 MEMB     31       DOPC     O31      OSL     -0.490000       15.9994           0
      4680 MEMB     31       DOPC     C31      CL       0.900000       12.0110           0
      4681 MEMB     31       DOPC     O32      OBL     -0.630000       15.9994           0
      4682 MEMB     31       DOPC     C32      CTL2    -0.220000       12.0110           0
      4683 MEMB     31       DOPC     H2X      HAL2     0.900000E-01   1.00800           0
      4684 MEMB     31       DOPC     H2Y      HAL2     0.900000E-01   1.00800           0
      4685 MEMB     31       DOPC     C23      CTL2    -0.180000       12.0110           0
      4686 MEMB     31       DOPC     H3R      HAL2     0.900000E-01   1.00800           0
      4687 MEMB     31       DOPC     H3S      HAL2     0.900000E-01   1.00800           0
      4688 MEMB     31       DOPC     C24      CTL2    -0.180000       12.0110           0
      4689 MEMB     31       DOPC     H4R      HAL2     0.900000E-01   1.00800           0
      4690 MEMB     31       DOPC     H4S      HAL2     0.900000E-01   1.00800           0
      4691 MEMB     31       DOPC     C25      CTL2    -0.180000       12.0110           0
      4692 MEMB     31       DOPC     H5R      HAL2     0.900000E-01   1.00800           0
      4693 MEMB     31       DOPC     H5S      HAL2     0.900000E-01   1.00800           0
      4694 MEMB     31       DOPC     C26      CTL2    -0.180000       12.0110           0
      4695 MEMB     31       DOPC     H6R      HAL2     0.900000E-01   1.00800           0
      4696 MEMB     31       DOPC     H6S      HAL2     0.900000E-01   1.00800           0
      4697 MEMB     31       DOPC     C27      CTL2    -0.180000       12.0110           0
      4698 MEMB     31       DOPC     H7R      HAL2     0.900000E-01   1.00800           0
      4699 MEMB     31       DOPC     H7S      HAL2     0.900000E-01   1.00800           0
      4700 MEMB     31       DOPC     C28      CTL2    -0.180000       12.0110           0
      4701 MEMB     31       DOPC     H8R      HAL2     0.900000E-01   1.00800           0
      4702 MEMB     31       DOPC     H8S      HAL2     0.900000E-01   1.00800           0
      4703 MEMB     31       DOPC     C29      CEL1    -0.150000       12.0110           0
      4704 MEMB     31       DOPC     H9R      HEL1     0.150000       1.00800           0
      4705 MEMB     31       DOPC     C210     CEL1    -0.150000       12.0110           0
      4706 MEMB     31       DOPC     H10R     HEL1     0.150000       1.00800           0
      4707 MEMB     31       DOPC     C211     CTL2    -0.180000       12.0110           0
      4708 MEMB     31       DOPC     H11R     HAL2     0.900000E-01   1.00800           0
      4709 MEMB     31       DOPC     H11S     HAL2     0.900000E-01   1.00800           0
      4710 MEMB     31       DOPC     C212     CTL2    -0.180000       12.0110           0
      4711 MEMB     31       DOPC     H12R     HAL2     0.900000E-01   1.00800           0
      4712 MEMB     31       DOPC     H12S     HAL2     0.900000E-01   1.00800           0
      4713 MEMB     31       DOPC     C213     CTL2    -0.180000       12.0110           0
      4714 MEMB     31       DOPC     H13R     HAL2     0.900000E-01   1.00800           0
      4715 MEMB     31       DOPC     H13S     HAL2     0.900000E-01   1.00800           0
      4716 MEMB     31       DOPC     C214     CTL2    -0.180000       12.0110           0
      4717 MEMB     31       DOPC     H14R     HAL2     0.900000E-01   1.00800           0
      4718 MEMB     31       DOPC     H14S     HAL2     0.900000E-01   1.00800           0
      4719 MEMB     31       DOPC     C215     CTL2    -0.180000       12.0110           0
      4720 MEMB     31       DOPC     H15R     HAL2     0.900000E-01   1.00800           0
      4721 MEMB     31       DOPC     H15S     HAL2     0.900000E-01   1.00800           0
      4722 MEMB     31       DOPC     C216     CTL2    -0.180000       12.0110           0
      4723 MEMB     31       DOPC     H16R     HAL2     0.900000E-01   1.00800           0
      4724 MEMB     31       DOPC     H16S     HAL2     0.900000E-01   1.00800           0
      4725 MEMB     31       DOPC     C217     CTL2    -0.180000       12.0110           0
      4726 MEMB     31       DOPC     H17R     HAL2     0.900000E-01   1.00800           0
      4727 MEMB     31       DOPC     H17S     HAL2     0.900000E-01   1.00800           0
      4728 MEMB     31       DOPC     C218     CTL3    -0.270000       12.0110           0
      4729 MEMB     31       DOPC     H18R     HAL3     0.900000E-01   1.00800           0
      4730 MEMB     31       DOPC     H18S     HAL3     0.900000E-01   1.00800           0
      4731 MEMB     31       DOPC     H18T     HAL3     0.900000E-01   1.00800           0
      4732 MEMB     31       DOPC     C33      CTL2    -0.180000       12.0110           0
      4733 MEMB     31       DOPC     H3X      HAL2     0.900000E-01   1.00800           0
      4734 MEMB     31       DOPC     H3Y      HAL2     0.900000E-01   1.00800           0
      4735 MEMB     31       DOPC     C34      CTL2    -0.180000       12.0110           0
      4736 MEMB     31       DOPC     H4X      HAL2     0.900000E-01   1.00800           0
      4737 MEMB     31       DOPC     H4Y      HAL2     0.900000E-01   1.00800           0
      4738 MEMB     31       DOPC     C35      CTL2    -0.180000       12.0110           0
      4739 MEMB     31       DOPC     H5X      HAL2     0.900000E-01   1.00800           0
      4740 MEMB     31       DOPC     H5Y      HAL2     0.900000E-01   1.00800           0
      4741 MEMB     31       DOPC     C36      CTL2    -0.180000       12.0110           0
      4742 MEMB     31       DOPC     H6X      HAL2     0.900000E-01   1.00800           0
      4743 MEMB     31       DOPC     H6Y      HAL2     0.900000E-01   1.00800           0
      4744 MEMB     31       DOPC     C37      CTL2    -0.180000       12.0110           0
      4745 MEMB     31       DOPC     H7X      HAL2     0.900000E-01   1.00800           0
      4746 MEMB     31       DOPC     H7Y      HAL2     0.900000E-01   1.00800           0
      4747 MEMB     31       DOPC     C38      CTL2    -0.180000       12.0110           0
      4748 MEMB     31       DOPC     H8X      HAL2     0.900000E-01   1.00800           0
      4749 MEMB     31       DOPC     H8Y      HAL2     0.900000E-01   1.00800           0
      4750 MEMB     31       DOPC     C39      CEL1    -0.150000       12.0110           0
      4751 MEMB     31       DOPC     H9X      HEL1     0.150000       1.00800           0
      4752 MEMB     31       DOPC     C310     CEL1    -0.150000       12.0110           0
      4753 MEMB     31       DOPC     H10X     HEL1     0.150000       1.00800           0
      4754 MEMB     31       DOPC     C311     CTL2    -0.180000       12.0110           0
      4755 MEMB     31       DOPC     H11X     HAL2     0.900000E-01   1.00800           0
      4756 MEMB     31       DOPC     H11Y     HAL2     0.900000E-01   1.00800           0
      4757 MEMB     31       DOPC     C312     CTL2    -0.180000       12.0110           0
      4758 MEMB     31       DOPC     H12X     HAL2     0.900000E-01   1.00800           0
      4759 MEMB     31       DOPC     H12Y     HAL2     0.900000E-01   1.00800           0
      4760 MEMB     31       DOPC     C313     CTL2    -0.180000       12.0110           0
      4761 MEMB     31       DOPC     H13X     HAL2     0.900000E-01   1.00800           0
      4762 MEMB     31       DOPC     H13Y     HAL2     0.900000E-01   1.00800           0
      4763 MEMB     31       DOPC     C314     CTL2    -0.180000       12.0110           0
      4764 MEMB     31       DOPC     H14X     HAL2     0.900000E-01   1.00800           0
      4765 MEMB     31       DOPC     H14Y     HAL2     0.900000E-01   1.00800           0
      4766 MEMB     31       DOPC     C315     CTL2    -0.180000       12.0110           0
      4767 MEMB     31       DOPC     H15X     HAL2     0.900000E-01   1.00800           0
      4768 MEMB     31       DOPC     H15Y     HAL2     0.900000E-01   1.00800           0
      4769 MEMB     31       DOPC     C316     CTL2    -0.180000       12.0110           0
      4770 MEMB     31       DOPC     H16X     HAL2     0.900000E-01   1.00800           0
      4771 MEMB     31       DOPC     H16Y     HAL2     0.900000E-01   1.00800           0
      4772 MEMB     31       DOPC     C317     CTL2    -0.180000       12.0110           0
      4773 MEMB     31       DOPC     H17X     HAL2     0.900000E-01   1.00800           0
      4774 MEMB     31       DOPC     H17Y     HAL2     0.900000E-01   1.00800           0
      4775 MEMB     31       DOPC     C318     CTL3    -0.270000       12.0110           0
      4776 MEMB     31       DOPC     H18X     HAL3     0.900000E-01   1.00800           0
      4777 MEMB     31       DOPC     H18Y     HAL3     0.900000E-01   1.00800           0
      4778 MEMB     31       DOPC     H18Z     HAL3     0.900000E-01   1.00800           0
      4779 MEMB     32       DOPC     N        NTL     -0.600000       14.0070           0
      4780 MEMB     32       DOPC     C12      CTL2    -0.100000       12.0110           0
      4781 MEMB     32       DOPC     H12A     HL       0.250000       1.00800           0
      4782 MEMB     32       DOPC     H12B     HL       0.250000       1.00800           0
      4783 MEMB     32       DOPC     C13      CTL5    -0.350000       12.0110           0
      4784 MEMB     32       DOPC     H13A     HL       0.250000       1.00800           0
      4785 MEMB     32       DOPC     H13B     HL       0.250000       1.00800           0
      4786 MEMB     32       DOPC     H13C     HL       0.250000       1.00800           0
      4787 MEMB     32       DOPC     C14      CTL5    -0.350000       12.0110           0
      4788 MEMB     32       DOPC     H14A     HL       0.250000       1.00800           0
      4789 MEMB     32       DOPC     H14B     HL       0.250000       1.00800           0
      4790 MEMB     32       DOPC     H14C     HL       0.250000       1.00800           0
      4791 MEMB     32       DOPC     C15      CTL5    -0.350000       12.0110           0
      4792 MEMB     32       DOPC     H15A     HL       0.250000       1.00800           0
      4793 MEMB     32       DOPC     H15B     HL       0.250000       1.00800           0
      4794 MEMB     32       DOPC     H15C     HL       0.250000       1.00800           0
      4795 MEMB     32       DOPC     C11      CTL2    -0.800000E-01   12.0110           0
      4796 MEMB     32       DOPC     H11A     HAL2     0.900000E-01   1.00800           0
      4797 MEMB     32       DOPC     H11B     HAL2     0.900000E-01   1.00800           0
      4798 MEMB     32       DOPC     P        PL        1.50000       30.9740           0
      4799 MEMB     32       DOPC     O13      O2L     -0.780000       15.9994           0
      4800 MEMB     32       DOPC     O14      O2L     -0.780000       15.9994           0
      4801 MEMB     32       DOPC     O12      OSLP    -0.570000       15.9994           0
      4802 MEMB     32       DOPC     O11      OSLP    -0.570000       15.9994           0
      4803 MEMB     32       DOPC     C1       CTL2    -0.800000E-01   12.0110           0
      4804 MEMB     32       DOPC     HA       HAL2     0.900000E-01   1.00800           0
      4805 MEMB     32       DOPC     HB       HAL2     0.900000E-01   1.00800           0
      4806 MEMB     32       DOPC     C2       CTL1     0.170000       12.0110           0
      4807 MEMB     32       DOPC     HS       HAL1     0.900000E-01   1.00800           0
      4808 MEMB     32       DOPC     O21      OSL     -0.490000       15.9994           0
      4809 MEMB     32       DOPC     C21      CL       0.900000       12.0110           0
      4810 MEMB     32       DOPC     O22      OBL     -0.630000       15.9994           0
      4811 MEMB     32       DOPC     C22      CTL2    -0.220000       12.0110           0
      4812 MEMB     32       DOPC     H2R      HAL2     0.900000E-01   1.00800           0
      4813 MEMB     32       DOPC     H2S      HAL2     0.900000E-01   1.00800           0
      4814 MEMB     32       DOPC     C3       CTL2     0.800000E-01   12.0110           0
      4815 MEMB     32       DOPC     HX       HAL2     0.900000E-01   1.00800           0
      4816 MEMB     32       DOPC     HY       HAL2     0.900000E-01   1.00800           0
      4817 MEMB     32       DOPC     O31      OSL     -0.490000       15.9994           0
      4818 MEMB     32       DOPC     C31      CL       0.900000       12.0110           0
      4819 MEMB     32       DOPC     O32      OBL     -0.630000       15.9994           0
      4820 MEMB     32       DOPC     C32      CTL2    -0.220000       12.0110           0
      4821 MEMB     32       DOPC     H2X      HAL2     0.900000E-01   1.00800           0
      4822 MEMB     32       DOPC     H2Y      HAL2     0.900000E-01   1.00800           0
      4823 MEMB     32       DOPC     C23      CTL2    -0.180000       12.0110           0
      4824 MEMB     32       DOPC     H3R      HAL2     0.900000E-01   1.00800           0
      4825 MEMB     32       DOPC     H3S      HAL2     0.900000E-01   1.00800           0
      4826 MEMB     32       DOPC     C24      CTL2    -0.180000       12.0110           0
      4827 MEMB     32       DOPC     H4R      HAL2     0.900000E-01   1.00800           0
      4828 MEMB     32       DOPC     H4S      HAL2     0.900000E-01   1.00800           0
      4829 MEMB     32       DOPC     C25      CTL2    -0.180000       12.0110           0
      4830 MEMB     32       DOPC     H5R      HAL2     0.900000E-01   1.00800           0
      4831 MEMB     32       DOPC     H5S      HAL2     0.900000E-01   1.00800           0
      4832 MEMB     32       DOPC     C26      CTL2    -0.180000       12.0110           0
      4833 MEMB     32       DOPC     H6R      HAL2     0.900000E-01   1.00800           0
      4834 MEMB     32       DOPC     H6S      HAL2     0.900000E-01   1.00800           0
      4835 MEMB     32       DOPC     C27      CTL2    -0.180000       12.0110           0
      4836 MEMB     32       DOPC     H7R      HAL2     0.900000E-01   1.00800           0
      4837 MEMB     32       DOPC     H7S      HAL2     0.900000E-01   1.00800           0
      4838 MEMB     32       DOPC     C28      CTL2    -0.180000       12.0110           0
      4839 MEMB     32       DOPC     H8R      HAL2     0.900000E-01   1.00800           0
      4840 MEMB     32       DOPC     H8S      HAL2     0.900000E-01   1.00800           0
      4841 MEMB     32       DOPC     C29      CEL1    -0.150000       12.0110           0
      4842 MEMB     32       DOPC     H9R      HEL1     0.150000       1.00800           0
      4843 MEMB     32       DOPC     C210     CEL1    -0.150000       12.0110           0
      4844 MEMB     32       DOPC     H10R     HEL1     0.150000       1.00800           0
      4845 MEMB     32       DOPC     C211     CTL2    -0.180000       12.0110           0
      4846 MEMB     32       DOPC     H11R     HAL2     0.900000E-01   1.00800           0
      4847 MEMB     32       DOPC     H11S     HAL2     0.900000E-01   1.00800           0
      4848 MEMB     32       DOPC     C212     CTL2    -0.180000       12.0110           0
      4849 MEMB     32       DOPC     H12R     HAL2     0.900000E-01   1.00800           0
      4850 MEMB     32       DOPC     H12S     HAL2     0.900000E-01   1.00800           0
      4851 MEMB     32       DOPC     C213     CTL2    -0.180000       12.0110           0
      4852 MEMB     32       DOPC     H13R     HAL2     0.900000E-01   1.00800           0
      4853 MEMB     32       DOPC     H13S     HAL2     0.900000E-01   1.00800           0
      4854 MEMB     32       DOPC     C214     CTL2    -0.180000       12.0110           0
      4855 MEMB     32       DOPC     H14R     HAL2     0.900000E-01   1.00800           0
      4856 MEMB     32       DOPC     H14S     HAL2     0.900000E-01   1.00800           0
      4857 MEMB     32       DOPC     C215     CTL2    -0.180000       12.0110           0
      4858 MEMB     32       DOPC     H15R     HAL2     0.900000E-01   1.00800           0
      4859 MEMB     32       DOPC     H15S     HAL2     0.900000E-01   1.00800           0
      4860 MEMB     32       DOPC     C216     CTL2    -0.180000       12.0110           0
      4861 MEMB     32       DOPC     H16R     HAL2     0.900000E-01   1.00800           0
      4862 MEMB     32       DOPC     H16S     HAL2     0.900000E-01   1.00800           0
      4863 MEMB     32       DOPC     C217     CTL2    -0.180000       12.0110           0
      4864 MEMB     32       DOPC     H17R     HAL2     0.900000E-01   1.00800           0
      4865 MEMB     32       DOPC     H17S     HAL2     0.900000E-01   1.00800           0
      4866 MEMB     32       DOPC     C218     CTL3    -0.270000       12.0110           0
      4867 MEMB     32       DOPC     H18R     HAL3     0.900000E-01   1.00800           0
      4868 MEMB     32       DOPC     H18S     HAL3     0.900000E-01   1.00800           0
      4869 MEMB     32       DOPC     H18T     HAL3     0.900000E-01   1.00800           0
      4870 MEMB     32       DOPC     C33      CTL2    -0.180000       12.0110           0
      4871 MEMB     32       DOPC     H3X      HAL2     0.900000E-01   1.00800           0
      4872 MEMB     32       DOPC     H3Y      HAL2     0.900000E-01   1.00800           0
      4873 MEMB     32       DOPC     C34      CTL2    -0.180000       12.0110           0
      4874 MEMB     32       DOPC     H4X      HAL2     0.900000E-01   1.00800           0
      4875 MEMB     32       DOPC     H4Y      HAL2     0.900000E-01   1.00800           0
      4876 MEMB     32       DOPC     C35      CTL2    -0.180000       12.0110           0
      4877 MEMB     32       DOPC     H5X      HAL2     0.900000E-01   1.00800           0
      4878 MEMB     32       DOPC     H5Y      HAL2     0.900000E-01   1.00800           0
      4879 MEMB     32       DOPC     C36      CTL2    -0.180000       12.0110           0
      4880 MEMB     32       DOPC     H6X      HAL2     0.900000E-01   1.00800           0
      4881 MEMB     32       DOPC     H6Y      HAL2     0.900000E-01   1.00800           0
      4882 MEMB     32       DOPC     C37      CTL2    -0.180000       12.0110           0
      4883 MEMB     32       DOPC     H7X      HAL2     0.900000E-01   1.00800           0
      4884 MEMB     32       DOPC     H7Y      HAL2     0.900000E-01   1.00800           0
      4885 MEMB     32       DOPC     C38      CTL2    -0.180000       12.0110           0
      4886 MEMB     32       DOPC     H8X      HAL2     0.900000E-01   1.00800           0
      4887 MEMB     32       DOPC     H8Y      HAL2     0.900000E-01   1.00800           0
      4888 MEMB     32       DOPC     C39      CEL1    -0.150000       12.0110           0
      4889 MEMB     32       DOPC     H9X      HEL1     0.150000       1.00800           0
      4890 MEMB     32       DOPC     C310     CEL1    -0.150000       12.0110           0
      4891 MEMB     32       DOPC     H10X     HEL1     0.150000       1.00800           0
      4892 MEMB     32       DOPC     C311     CTL2    -0.180000       12.0110           0
      4893 MEMB     32       DOPC     H11X     HAL2     0.900000E-01   1.00800           0
      4894 MEMB     32       DOPC     H11Y     HAL2     0.900000E-01   1.00800           0
      4895 MEMB     32       DOPC     C312     CTL2    -0.180000       12.0110           0
      4896 MEMB     32       DOPC     H12X     HAL2     0.900000E-01   1.00800           0
      4897 MEMB     32       DOPC     H12Y     HAL2     0.900000E-01   1.00800           0
      4898 MEMB     32       DOPC     C313     CTL2    -0.180000       12.0110           0
      4899 MEMB     32       DOPC     H13X     HAL2     0.900000E-01   1.00800           0
      4900 MEMB     32       DOPC     H13Y     HAL2     0.900000E-01   1.00800           0
      4901 MEMB     32       DOPC     C314     CTL2    -0.180000       12.0110           0
      4902 MEMB     32       DOPC     H14X     HAL2     0.900000E-01   1.00800           0
      4903 MEMB     32       DOPC     H14Y     HAL2     0.900000E-01   1.00800           0
      4904 MEMB     32       DOPC     C315     CTL2    -0.180000       12.0110           0
      4905 MEMB     32       DOPC     H15X     HAL2     0.900000E-01   1.00800           0
      4906 MEMB     32       DOPC     H15Y     HAL2     0.900000E-01   1.00800           0
      4907 MEMB     32       DOPC     C316     CTL2    -0.180000       12.0110           0
      4908 MEMB     32       DOPC     H16X     HAL2     0.900000E-01   1.00800           0
      4909 MEMB     32       DOPC     H16Y     HAL2     0.900000E-01   1.00800           0
      4910 MEMB     32       DOPC     C317     CTL2    -0.180000       12.0110           0
      4911 MEMB     32       DOPC     H17X     HAL2     0.900000E-01   1.00800           0
      4912 MEMB     32       DOPC     H17Y     HAL2     0.900000E-01   1.00800           0
      4913 MEMB     32       DOPC     C318     CTL3    -0.270000       12.0110           0
      4914 MEMB     32       DOPC     H18X     HAL3     0.900000E-01   1.00800           0
      4915 MEMB     32       DOPC     H18Y     HAL3     0.900000E-01   1.00800           0
      4916 MEMB     32       DOPC     H18Z     HAL3     0.900000E-01   1.00800           0
      4917 MEMB     33       DOPC     N        NTL     -0.600000       14.0070           0
      4918 MEMB     33       DOPC     C12      CTL2    -0.100000       12.0110           0
      4919 MEMB     33       DOPC     H12A     HL       0.250000       1.00800           0
      4920 MEMB     33       DOPC     H12B     HL       0.250000       1.00800           0
      4921 MEMB     33       DOPC     C13      CTL5    -0.350000       12.0110           0
      4922 MEMB     33       DOPC     H13A     HL       0.250000       1.00800           0
      4923 MEMB     33       DOPC     H13B     HL       0.250000       1.00800           0
      4924 MEMB     33       DOPC     H13C     HL       0.250000       1.00800           0
      4925 MEMB     33       DOPC     C14      CTL5    -0.350000       12.0110           0
      4926 MEMB     33       DOPC     H14A     HL       0.250000       1.00800           0
      4927 MEMB     33       DOPC     H14B     HL       0.250000       1.00800           0
      4928 MEMB     33       DOPC     H14C     HL       0.250000       1.00800           0
      4929 MEMB     33       DOPC     C15      CTL5    -0.350000       12.0110           0
      4930 MEMB     33       DOPC     H15A     HL       0.250000       1.00800           0
      4931 MEMB     33       DOPC     H15B     HL       0.250000       1.00800           0
      4932 MEMB     33       DOPC     H15C     HL       0.250000       1.00800           0
      4933 MEMB     33       DOPC     C11      CTL2    -0.800000E-01   12.0110           0
      4934 MEMB     33       DOPC     H11A     HAL2     0.900000E-01   1.00800           0
      4935 MEMB     33       DOPC     H11B     HAL2     0.900000E-01   1.00800           0
      4936 MEMB     33       DOPC     P        PL        1.50000       30.9740           0
      4937 MEMB     33       DOPC     O13      O2L     -0.780000       15.9994           0
      4938 MEMB     33       DOPC     O14      O2L     -0.780000       15.9994           0
      4939 MEMB     33       DOPC     O12      OSLP    -0.570000       15.9994           0
      4940 MEMB     33       DOPC     O11      OSLP    -0.570000       15.9994           0
      4941 MEMB     33       DOPC     C1       CTL2    -0.800000E-01   12.0110           0
      4942 MEMB     33       DOPC     HA       HAL2     0.900000E-01   1.00800           0
      4943 MEMB     33       DOPC     HB       HAL2     0.900000E-01   1.00800           0
      4944 MEMB     33       DOPC     C2       CTL1     0.170000       12.0110           0
      4945 MEMB     33       DOPC     HS       HAL1     0.900000E-01   1.00800           0
      4946 MEMB     33       DOPC     O21      OSL     -0.490000       15.9994           0
      4947 MEMB     33       DOPC     C21      CL       0.900000       12.0110           0
      4948 MEMB     33       DOPC     O22      OBL     -0.630000       15.9994           0
      4949 MEMB     33       DOPC     C22      CTL2    -0.220000       12.0110           0
      4950 MEMB     33       DOPC     H2R      HAL2     0.900000E-01   1.00800           0
      4951 MEMB     33       DOPC     H2S      HAL2     0.900000E-01   1.00800           0
      4952 MEMB     33       DOPC     C3       CTL2     0.800000E-01   12.0110           0
      4953 MEMB     33       DOPC     HX       HAL2     0.900000E-01   1.00800           0
      4954 MEMB     33       DOPC     HY       HAL2     0.900000E-01   1.00800           0
      4955 MEMB     33       DOPC     O31      OSL     -0.490000       15.9994           0
      4956 MEMB     33       DOPC     C31      CL       0.900000       12.0110           0
      4957 MEMB     33       DOPC     O32      OBL     -0.630000       15.9994           0
      4958 MEMB     33       DOPC     C32      CTL2    -0.220000       12.0110           0
      4959 MEMB     33       DOPC     H2X      HAL2     0.900000E-01   1.00800           0
      4960 MEMB     33       DOPC     H2Y      HAL2     0.900000E-01   1.00800           0
      4961 MEMB     33       DOPC     C23      CTL2    -0.180000       12.0110           0
      4962 MEMB     33       DOPC     H3R      HAL2     0.900000E-01   1.00800           0
      4963 MEMB     33       DOPC     H3S      HAL2     0.900000E-01   1.00800           0
      4964 MEMB     33       DOPC     C24      CTL2    -0.180000       12.0110           0
      4965 MEMB     33       DOPC     H4R      HAL2     0.900000E-01   1.00800           0
      4966 MEMB     33       DOPC     H4S      HAL2     0.900000E-01   1.00800           0
      4967 MEMB     33       DOPC     C25      CTL2    -0.180000       12.0110           0
      4968 MEMB     33       DOPC     H5R      HAL2     0.900000E-01   1.00800           0
      4969 MEMB     33       DOPC     H5S      HAL2     0.900000E-01   1.00800           0
      4970 MEMB     33       DOPC     C26      CTL2    -0.180000       12.0110           0
      4971 MEMB     33       DOPC     H6R      HAL2     0.900000E-01   1.00800           0
      4972 MEMB     33       DOPC     H6S      HAL2     0.900000E-01   1.00800           0
      4973 MEMB     33       DOPC     C27      CTL2    -0.180000       12.0110           0
      4974 MEMB     33       DOPC     H7R      HAL2     0.900000E-01   1.00800           0
      4975 MEMB     33       DOPC     H7S      HAL2     0.900000E-01   1.00800           0
      4976 MEMB     33       DOPC     C28      CTL2    -0.180000       12.0110           0
      4977 MEMB     33       DOPC     H8R      HAL2     0.900000E-01   1.00800           0
      4978 MEMB     33       DOPC     H8S      HAL2     0.900000E-01   1.00800           0
      4979 MEMB     33       DOPC     C29      CEL1    -0.150000       12.0110           0
      4980 MEMB     33       DOPC     H9R      HEL1     0.150000       1.00800           0
      4981 MEMB     33       DOPC     C210     CEL1    -0.150000       12.0110           0
      4982 MEMB     33       DOPC     H10R     HEL1     0.150000       1.00800           0
      4983 MEMB     33       DOPC     C211     CTL2    -0.180000       12.0110           0
      4984 MEMB     33       DOPC     H11R     HAL2     0.900000E-01   1.00800           0
      4985 MEMB     33       DOPC     H11S     HAL2     0.900000E-01   1.00800           0
      4986 MEMB     33       DOPC     C212     CTL2    -0.180000       12.0110           0
      4987 MEMB     33       DOPC     H12R     HAL2     0.900000E-01   1.00800           0
      4988 MEMB     33       DOPC     H12S     HAL2     0.900000E-01   1.00800           0
      4989 MEMB     33       DOPC     C213     CTL2    -0.180000       12.0110           0
      4990 MEMB     33       DOPC     H13R     HAL2     0.900000E-01   1.00800           0
      4991 MEMB     33       DOPC     H13S     HAL2     0.900000E-01   1.00800           0
      4992 MEMB     33       DOPC     C214     CTL2    -0.180000       12.0110           0
      4993 MEMB     33       DOPC     H14R     HAL2     0.900000E-01   1.00800           0
      4994 MEMB     33       DOPC     H14S     HAL2     0.900000E-01   1.00800           0
      4995 MEMB     33       DOPC     C215     CTL2    -0.180000       12.0110           0
      4996 MEMB     33       DOPC     H15R     HAL2     0.900000E-01   1.00800           0
      4997 MEMB     33       DOPC     H15S     HAL2     0.900000E-01   1.00800           0
      4998 MEMB     33       DOPC     C216     CTL2    -0.180000       12.0110           0
      4999 MEMB     33       DOPC     H16R     HAL2     0.900000E-01   1.00800           0
      5000 MEMB     33       DOPC     H16S     HAL2     0.900000E-01   1.00800           0
      5001 MEMB     33       DOPC     C217     CTL2    -0.180000       12.0110           0
      5002 MEMB     33       DOPC     H17R     HAL2     0.900000E-01   1.00800           0
      5003 MEMB     33       DOPC     H17S     HAL2     0.900000E-01   1.00800           0
      5004 MEMB     33       DOPC     C218     CTL3    -0.270000       12.0110           0
      5005 MEMB     33       DOPC     H18R     HAL3     0.900000E-01   1.00800           0
      5006 MEMB     33       DOPC     H18S     HAL3     0.900000E-01   1.00800           0
      5007 MEMB     33       DOPC     H18T     HAL3     0.900000E-01   1.00800           0
      5008 MEMB     33       DOPC     C33      CTL2    -0.180000       12.0110           0
      5009 MEMB     33       DOPC     H3X      HAL2     0.900000E-01   1.00800           0
      5010 MEMB     33       DOPC     H3Y      HAL2     0.900000E-01   1.00800           0
      5011 MEMB     33       DOPC     C34      CTL2    -0.180000       12.0110           0
      5012 MEMB     33       DOPC     H4X      HAL2     0.900000E-01   1.00800           0
      5013 MEMB     33       DOPC     H4Y      HAL2     0.900000E-01   1.00800           0
      5014 MEMB     33       DOPC     C35      CTL2    -0.180000       12.0110           0
      5015 MEMB     33       DOPC     H5X      HAL2     0.900000E-01   1.00800           0
      5016 MEMB     33       DOPC     H5Y      HAL2     0.900000E-01   1.00800           0
      5017 MEMB     33       DOPC     C36      CTL2    -0.180000       12.0110           0
      5018 MEMB     33       DOPC     H6X      HAL2     0.900000E-01   1.00800           0
      5019 MEMB     33       DOPC     H6Y      HAL2     0.900000E-01   1.00800           0
      5020 MEMB     33       DOPC     C37      CTL2    -0.180000       12.0110           0
      5021 MEMB     33       DOPC     H7X      HAL2     0.900000E-01   1.00800           0
      5022 MEMB     33       DOPC     H7Y      HAL2     0.900000E-01   1.00800           0
      5023 MEMB     33       DOPC     C38      CTL2    -0.180000       12.0110           0
      5024 MEMB     33       DOPC     H8X      HAL2     0.900000E-01   1.00800           0
      5025 MEMB     33       DOPC     H8Y      HAL2     0.900000E-01   1.00800           0
      5026 MEMB     33       DOPC     C39      CEL1    -0.150000       12.0110           0
      5027 MEMB     33       DOPC     H9X      HEL1     0.150000       1.00800           0
      5028 MEMB     33       DOPC     C310     CEL1    -0.150000       12.0110           0
      5029 MEMB     33       DOPC     H10X     HEL1     0.150000       1.00800           0
      5030 MEMB     33       DOPC     C311     CTL2    -0.180000       12.0110           0
      5031 MEMB     33       DOPC     H11X     HAL2     0.900000E-01   1.00800           0
      5032 MEMB     33       DOPC     H11Y     HAL2     0.900000E-01   1.00800           0
      5033 MEMB     33       DOPC     C312     CTL2    -0.180000       12.0110           0
      5034 MEMB     33       DOPC     H12X     HAL2     0.900000E-01   1.00800           0
      5035 MEMB     33       DOPC     H12Y     HAL2     0.900000E-01   1.00800           0
      5036 MEMB     33       DOPC     C313     CTL2    -0.180000       12.0110           0
      5037 MEMB     33       DOPC     H13X     HAL2     0.900000E-01   1.00800           0
      5038 MEMB     33       DOPC     H13Y     HAL2     0.900000E-01   1.00800           0
      5039 MEMB     33       DOPC     C314     CTL2    -0.180000       12.0110           0
      5040 MEMB     33       DOPC     H14X     HAL2     0.900000E-01   1.00800           0
      5041 MEMB     33       DOPC     H14Y     HAL2     0.900000E-01   1.00800           0
      5042 MEMB     33       DOPC     C315     CTL2    -0.180000       12.0110           0
      5043 MEMB     33       DOPC     H15X     HAL2     0.900000E-01   1.00800           0
      5044 MEMB     33       DOPC     H15Y     HAL2     0.900000E-01   1.00800           0
      5045 MEMB     33       DOPC     C316     CTL2    -0.180000       12.0110           0
      5046 MEMB     33       DOPC     H16X     HAL2     0.900000E-01   1.00800           0
      5047 MEMB     33       DOPC     H16Y     HAL2     0.900000E-01   1.00800           0
      5048 MEMB     33       DOPC     C317     CTL2    -0.180000       12.0110           0
      5049 MEMB     33       DOPC     H17X     HAL2     0.900000E-01   1.00800           0
      5050 MEMB     33       DOPC     H17Y     HAL2     0.900000E-01   1.00800           0
      5051 MEMB     33       DOPC     C318     CTL3    -0.270000       12.0110           0
      5052 MEMB     33       DOPC     H18X     HAL3     0.900000E-01   1.00800           0
      5053 MEMB     33       DOPC     H18Y     HAL3     0.900000E-01   1.00800           0
      5054 MEMB     33       DOPC     H18Z     HAL3     0.900000E-01   1.00800           0
      5055 MEMB     34       DOPC     N        NTL     -0.600000       14.0070           0
      5056 MEMB     34       DOPC     C12      CTL2    -0.100000       12.0110           0
      5057 MEMB     34       DOPC     H12A     HL       0.250000       1.00800           0
      5058 MEMB     34       DOPC     H12B     HL       0.250000       1.00800           0
      5059 MEMB     34       DOPC     C13      CTL5    -0.350000       12.0110           0
      5060 MEMB     34       DOPC     H13A     HL       0.250000       1.00800           0
      5061 MEMB     34       DOPC     H13B     HL       0.250000       1.00800           0
      5062 MEMB     34       DOPC     H13C     HL       0.250000       1.00800           0
      5063 MEMB     34       DOPC     C14      CTL5    -0.350000       12.0110           0
      5064 MEMB     34       DOPC     H14A     HL       0.250000       1.00800           0
      5065 MEMB     34       DOPC     H14B     HL       0.250000       1.00800           0
      5066 MEMB     34       DOPC     H14C     HL       0.250000       1.00800           0
      5067 MEMB     34       DOPC     C15      CTL5    -0.350000       12.0110           0
      5068 MEMB     34       DOPC     H15A     HL       0.250000       1.00800           0
      5069 MEMB     34       DOPC     H15B     HL       0.250000       1.00800           0
      5070 MEMB     34       DOPC     H15C     HL       0.250000       1.00800           0
      5071 MEMB     34       DOPC     C11      CTL2    -0.800000E-01   12.0110           0
      5072 MEMB     34       DOPC     H11A     HAL2     0.900000E-01   1.00800           0
      5073 MEMB     34       DOPC     H11B     HAL2     0.900000E-01   1.00800           0
      5074 MEMB     34       DOPC     P        PL        1.50000       30.9740           0
      5075 MEMB     34       DOPC     O13      O2L     -0.780000       15.9994           0
      5076 MEMB     34       DOPC     O14      O2L     -0.780000       15.9994           0
      5077 MEMB     34       DOPC     O12      OSLP    -0.570000       15.9994           0
      5078 MEMB     34       DOPC     O11      OSLP    -0.570000       15.9994           0
      5079 MEMB     34       DOPC     C1       CTL2    -0.800000E-01   12.0110           0
      5080 MEMB     34       DOPC     HA       HAL2     0.900000E-01   1.00800           0
      5081 MEMB     34       DOPC     HB       HAL2     0.900000E-01   1.00800           0
      5082 MEMB     34       DOPC     C2       CTL1     0.170000       12.0110           0
      5083 MEMB     34       DOPC     HS       HAL1     0.900000E-01   1.00800           0
      5084 MEMB     34       DOPC     O21      OSL     -0.490000       15.9994           0
      5085 MEMB     34       DOPC     C21      CL       0.900000       12.0110           0
      5086 MEMB     34       DOPC     O22      OBL     -0.630000       15.9994           0
      5087 MEMB     34       DOPC     C22      CTL2    -0.220000       12.0110           0
      5088 MEMB     34       DOPC     H2R      HAL2     0.900000E-01   1.00800           0
      5089 MEMB     34       DOPC     H2S      HAL2     0.900000E-01   1.00800           0
      5090 MEMB     34       DOPC     C3       CTL2     0.800000E-01   12.0110           0
      5091 MEMB     34       DOPC     HX       HAL2     0.900000E-01   1.00800           0
      5092 MEMB     34       DOPC     HY       HAL2     0.900000E-01   1.00800           0
      5093 MEMB     34       DOPC     O31      OSL     -0.490000       15.9994           0
      5094 MEMB     34       DOPC     C31      CL       0.900000       12.0110           0
      5095 MEMB     34       DOPC     O32      OBL     -0.630000       15.9994           0
      5096 MEMB     34       DOPC     C32      CTL2    -0.220000       12.0110           0
      5097 MEMB     34       DOPC     H2X      HAL2     0.900000E-01   1.00800           0
      5098 MEMB     34       DOPC     H2Y      HAL2     0.900000E-01   1.00800           0
      5099 MEMB     34       DOPC     C23      CTL2    -0.180000       12.0110           0
      5100 MEMB     34       DOPC     H3R      HAL2     0.900000E-01   1.00800           0
      5101 MEMB     34       DOPC     H3S      HAL2     0.900000E-01   1.00800           0
      5102 MEMB     34       DOPC     C24      CTL2    -0.180000       12.0110           0
      5103 MEMB     34       DOPC     H4R      HAL2     0.900000E-01   1.00800           0
      5104 MEMB     34       DOPC     H4S      HAL2     0.900000E-01   1.00800           0
      5105 MEMB     34       DOPC     C25      CTL2    -0.180000       12.0110           0
      5106 MEMB     34       DOPC     H5R      HAL2     0.900000E-01   1.00800           0
      5107 MEMB     34       DOPC     H5S      HAL2     0.900000E-01   1.00800           0
      5108 MEMB     34       DOPC     C26      CTL2    -0.180000       12.0110           0
      5109 MEMB     34       DOPC     H6R      HAL2     0.900000E-01   1.00800           0
      5110 MEMB     34       DOPC     H6S      HAL2     0.900000E-01   1.00800           0
      5111 MEMB     34       DOPC     C27      CTL2    -0.180000       12.0110           0
      5112 MEMB     34       DOPC     H7R      HAL2     0.900000E-01   1.00800           0
      5113 MEMB     34       DOPC     H7S      HAL2     0.900000E-01   1.00800           0
      5114 MEMB     34       DOPC     C28      CTL2    -0.180000       12.0110           0
      5115 MEMB     34       DOPC     H8R      HAL2     0.900000E-01   1.00800           0
      5116 MEMB     34       DOPC     H8S      HAL2     0.900000E-01   1.00800           0
      5117 MEMB     34       DOPC     C29      CEL1    -0.150000       12.0110           0
      5118 MEMB     34       DOPC     H9R      HEL1     0.150000       1.00800           0
      5119 MEMB     34       DOPC     C210     CEL1    -0.150000       12.0110           0
      5120 MEMB     34       DOPC     H10R     HEL1     0.150000       1.00800           0
      5121 MEMB     34       DOPC     C211     CTL2    -0.180000       12.0110           0
      5122 MEMB     34       DOPC     H11R     HAL2     0.900000E-01   1.00800           0
      5123 MEMB     34       DOPC     H11S     HAL2     0.900000E-01   1.00800           0
      5124 MEMB     34       DOPC     C212     CTL2    -0.180000       12.0110           0
      5125 MEMB     34       DOPC     H12R     HAL2     0.900000E-01   1.00800           0
      5126 MEMB     34       DOPC     H12S     HAL2     0.900000E-01   1.00800           0
      5127 MEMB     34       DOPC     C213     CTL2    -0.180000       12.0110           0
      5128 MEMB     34       DOPC     H13R     HAL2     0.900000E-01   1.00800           0
      5129 MEMB     34       DOPC     H13S     HAL2     0.900000E-01   1.00800           0
      5130 MEMB     34       DOPC     C214     CTL2    -0.180000       12.0110           0
      5131 MEMB     34       DOPC     H14R     HAL2     0.900000E-01   1.00800           0
      5132 MEMB     34       DOPC     H14S     HAL2     0.900000E-01   1.00800           0
      5133 MEMB     34       DOPC     C215     CTL2    -0.180000       12.0110           0
      5134 MEMB     34       DOPC     H15R     HAL2     0.900000E-01   1.00800           0
      5135 MEMB     34       DOPC     H15S     HAL2     0.900000E-01   1.00800           0
      5136 MEMB     34       DOPC     C216     CTL2    -0.180000       12.0110           0
      5137 MEMB     34       DOPC     H16R     HAL2     0.900000E-01   1.00800           0
      5138 MEMB     34       DOPC     H16S     HAL2     0.900000E-01   1.00800           0
      5139 MEMB     34       DOPC     C217     CTL2    -0.180000       12.0110           0
      5140 MEMB     34       DOPC     H17R     HAL2     0.900000E-01   1.00800           0
      5141 MEMB     34       DOPC     H17S     HAL2     0.900000E-01   1.00800           0
      5142 MEMB     34       DOPC     C218     CTL3    -0.270000       12.0110           0
      5143 MEMB     34       DOPC     H18R     HAL3     0.900000E-01   1.00800           0
      5144 MEMB     34       DOPC     H18S     HAL3     0.900000E-01   1.00800           0
      5145 MEMB     34       DOPC     H18T     HAL3     0.900000E-01   1.00800           0
      5146 MEMB     34       DOPC     C33      CTL2    -0.180000       12.0110           0
      5147 MEMB     34       DOPC     H3X      HAL2     0.900000E-01   1.00800           0
      5148 MEMB     34       DOPC     H3Y      HAL2     0.900000E-01   1.00800           0
      5149 MEMB     34       DOPC     C34      CTL2    -0.180000       12.0110           0
      5150 MEMB     34       DOPC     H4X      HAL2     0.900000E-01   1.00800           0
      5151 MEMB     34       DOPC     H4Y      HAL2     0.900000E-01   1.00800           0
      5152 MEMB     34       DOPC     C35      CTL2    -0.180000       12.0110           0
      5153 MEMB     34       DOPC     H5X      HAL2     0.900000E-01   1.00800           0
      5154 MEMB     34       DOPC     H5Y      HAL2     0.900000E-01   1.00800           0
      5155 MEMB     34       DOPC     C36      CTL2    -0.180000       12.0110           0
      5156 MEMB     34       DOPC     H6X      HAL2     0.900000E-01   1.00800           0
      5157 MEMB     34       DOPC     H6Y      HAL2     0.900000E-01   1.00800           0
      5158 MEMB     34       DOPC     C37      CTL2    -0.180000       12.0110           0
      5159 MEMB     34       DOPC     H7X      HAL2     0.900000E-01   1.00800           0
      5160 MEMB     34       DOPC     H7Y      HAL2     0.900000E-01   1.00800           0
      5161 MEMB     34       DOPC     C38      CTL2    -0.180000       12.0110           0
      5162 MEMB     34       DOPC     H8X      HAL2     0.900000E-01   1.00800           0
      5163 MEMB     34       DOPC     H8Y      HAL2     0.900000E-01   1.00800           0
      5164 MEMB     34       DOPC     C39      CEL1    -0.150000       12.0110           0
      5165 MEMB     34       DOPC     H9X      HEL1     0.150000       1.00800           0
      5166 MEMB     34       DOPC     C310     CEL1    -0.150000       12.0110           0
      5167 MEMB     34       DOPC     H10X     HEL1     0.150000       1.00800           0
      5168 MEMB     34       DOPC     C311     CTL2    -0.180000       12.0110           0
      5169 MEMB     34       DOPC     H11X     HAL2     0.900000E-01   1.00800           0
      5170 MEMB     34       DOPC     H11Y     HAL2     0.900000E-01   1.00800           0
      5171 MEMB     34       DOPC     C312     CTL2    -0.180000       12.0110           0
      5172 MEMB     34       DOPC     H12X     HAL2     0.900000E-01   1.00800           0
      5173 MEMB     34       DOPC     H12Y     HAL2     0.900000E-01   1.00800           0
      5174 MEMB     34       DOPC     C313     CTL2    -0.180000       12.0110           0
      5175 MEMB     34       DOPC     H13X     HAL2     0.900000E-01   1.00800           0
      5176 MEMB     34       DOPC     H13Y     HAL2     0.900000E-01   1.00800           0
      5177 MEMB     34       DOPC     C314     CTL2    -0.180000       12.0110           0
      5178 MEMB     34       DOPC     H14X     HAL2     0.900000E-01   1.00800           0
      5179 MEMB     34       DOPC     H14Y     HAL2     0.900000E-01   1.00800           0
      5180 MEMB     34       DOPC     C315     CTL2    -0.180000       12.0110           0
      5181 MEMB     34       DOPC     H15X     HAL2     0.900000E-01   1.00800           0
      5182 MEMB     34       DOPC     H15Y     HAL2     0.900000E-01   1.00800           0
      5183 MEMB     34       DOPC     C316     CTL2    -0.180000       12.0110           0
      5184 MEMB     34       DOPC     H16X     HAL2     0.900000E-01   1.00800           0
      5185 MEMB     34       DOPC     H16Y     HAL2     0.900000E-01   1.00800           0
      5186 MEMB     34       DOPC     C317     CTL2    -0.180000       12.0110           0
      5187 MEMB     34       DOPC     H17X     HAL2     0.900000E-01   1.00800           0
      5188 MEMB     34       DOPC     H17Y     HAL2     0.900000E-01   1.00800           0
      5189 MEMB     34       DOPC     C318     CTL3    -0.270000       12.0110           0
      5190 MEMB     34       DOPC     H18X     HAL3     0.900000E-01   1.00800           0
      5191 MEMB     34       DOPC     H18Y     HAL3     0.900000E-01   1.00800           0
      5192 MEMB     34       DOPC     H18Z     HAL3     0.900000E-01   1.00800           0
      5193 MEMB     35       DOPC     N        NTL     -0.600000       14.0070           0
      5194 MEMB     35       DOPC     C12      CTL2    -0.100000       12.0110           0
      5195 MEMB     35       DOPC     H12A     HL       0.250000       1.00800           0
      5196 MEMB     35       DOPC     H12B     HL       0.250000       1.00800           0
      5197 MEMB     35       DOPC     C13      CTL5    -0.350000       12.0110           0
      5198 MEMB     35       DOPC     H13A     HL       0.250000       1.00800           0
      5199 MEMB     35       DOPC     H13B     HL       0.250000       1.00800           0
      5200 MEMB     35       DOPC     H13C     HL       0.250000       1.00800           0
      5201 MEMB     35       DOPC     C14      CTL5    -0.350000       12.0110           0
      5202 MEMB     35       DOPC     H14A     HL       0.250000       1.00800           0
      5203 MEMB     35       DOPC     H14B     HL       0.250000       1.00800           0
      5204 MEMB     35       DOPC     H14C     HL       0.250000       1.00800           0
      5205 MEMB     35       DOPC     C15      CTL5    -0.350000       12.0110           0
      5206 MEMB     35       DOPC     H15A     HL       0.250000       1.00800           0
      5207 MEMB     35       DOPC     H15B     HL       0.250000       1.00800           0
      5208 MEMB     35       DOPC     H15C     HL       0.250000       1.00800           0
      5209 MEMB     35       DOPC     C11      CTL2    -0.800000E-01   12.0110           0
      5210 MEMB     35       DOPC     H11A     HAL2     0.900000E-01   1.00800           0
      5211 MEMB     35       DOPC     H11B     HAL2     0.900000E-01   1.00800           0
      5212 MEMB     35       DOPC     P        PL        1.50000       30.9740           0
      5213 MEMB     35       DOPC     O13      O2L     -0.780000       15.9994           0
      5214 MEMB     35       DOPC     O14      O2L     -0.780000       15.9994           0
      5215 MEMB     35       DOPC     O12      OSLP    -0.570000       15.9994           0
      5216 MEMB     35       DOPC     O11      OSLP    -0.570000       15.9994           0
      5217 MEMB     35       DOPC     C1       CTL2    -0.800000E-01   12.0110           0
      5218 MEMB     35       DOPC     HA       HAL2     0.900000E-01   1.00800           0
      5219 MEMB     35       DOPC     HB       HAL2     0.900000E-01   1.00800           0
      5220 MEMB     35       DOPC     C2       CTL1     0.170000       12.0110           0
      5221 MEMB     35       DOPC     HS       HAL1     0.900000E-01   1.00800           0
      5222 MEMB     35       DOPC     O21      OSL     -0.490000       15.9994           0
      5223 MEMB     35       DOPC     C21      CL       0.900000       12.0110           0
      5224 MEMB     35       DOPC     O22      OBL     -0.630000       15.9994           0
      5225 MEMB     35       DOPC     C22      CTL2    -0.220000       12.0110           0
      5226 MEMB     35       DOPC     H2R      HAL2     0.900000E-01   1.00800           0
      5227 MEMB     35       DOPC     H2S      HAL2     0.900000E-01   1.00800           0
      5228 MEMB     35       DOPC     C3       CTL2     0.800000E-01   12.0110           0
      5229 MEMB     35       DOPC     HX       HAL2     0.900000E-01   1.00800           0
      5230 MEMB     35       DOPC     HY       HAL2     0.900000E-01   1.00800           0
      5231 MEMB     35       DOPC     O31      OSL     -0.490000       15.9994           0
      5232 MEMB     35       DOPC     C31      CL       0.900000       12.0110           0
      5233 MEMB     35       DOPC     O32      OBL     -0.630000       15.9994           0
      5234 MEMB     35       DOPC     C32      CTL2    -0.220000       12.0110           0
      5235 MEMB     35       DOPC     H2X      HAL2     0.900000E-01   1.00800           0
      5236 MEMB     35       DOPC     H2Y      HAL2     0.900000E-01   1.00800           0
      5237 MEMB     35       DOPC     C23      CTL2    -0.180000       12.0110           0
      5238 MEMB     35       DOPC     H3R      HAL2     0.900000E-01   1.00800           0
      5239 MEMB     35       DOPC     H3S      HAL2     0.900000E-01   1.00800           0
      5240 MEMB     35       DOPC     C24      CTL2    -0.180000       12.0110           0
      5241 MEMB     35       DOPC     H4R      HAL2     0.900000E-01   1.00800           0
      5242 MEMB     35       DOPC     H4S      HAL2     0.900000E-01   1.00800           0
      5243 MEMB     35       DOPC     C25      CTL2    -0.180000       12.0110           0
      5244 MEMB     35       DOPC     H5R      HAL2     0.900000E-01   1.00800           0
      5245 MEMB     35       DOPC     H5S      HAL2     0.900000E-01   1.00800           0
      5246 MEMB     35       DOPC     C26      CTL2    -0.180000       12.0110           0
      5247 MEMB     35       DOPC     H6R      HAL2     0.900000E-01   1.00800           0
      5248 MEMB     35       DOPC     H6S      HAL2     0.900000E-01   1.00800           0
      5249 MEMB     35       DOPC     C27      CTL2    -0.180000       12.0110           0
      5250 MEMB     35       DOPC     H7R      HAL2     0.900000E-01   1.00800           0
      5251 MEMB     35       DOPC     H7S      HAL2     0.900000E-01   1.00800           0
      5252 MEMB     35       DOPC     C28      CTL2    -0.180000       12.0110           0
      5253 MEMB     35       DOPC     H8R      HAL2     0.900000E-01   1.00800           0
      5254 MEMB     35       DOPC     H8S      HAL2     0.900000E-01   1.00800           0
      5255 MEMB     35       DOPC     C29      CEL1    -0.150000       12.0110           0
      5256 MEMB     35       DOPC     H9R      HEL1     0.150000       1.00800           0
      5257 MEMB     35       DOPC     C210     CEL1    -0.150000       12.0110           0
      5258 MEMB     35       DOPC     H10R     HEL1     0.150000       1.00800           0
      5259 MEMB     35       DOPC     C211     CTL2    -0.180000       12.0110           0
      5260 MEMB     35       DOPC     H11R     HAL2     0.900000E-01   1.00800           0
      5261 MEMB     35       DOPC     H11S     HAL2     0.900000E-01   1.00800           0
      5262 MEMB     35       DOPC     C212     CTL2    -0.180000       12.0110           0
      5263 MEMB     35       DOPC     H12R     HAL2     0.900000E-01   1.00800           0
      5264 MEMB     35       DOPC     H12S     HAL2     0.900000E-01   1.00800           0
      5265 MEMB     35       DOPC     C213     CTL2    -0.180000       12.0110           0
      5266 MEMB     35       DOPC     H13R     HAL2     0.900000E-01   1.00800           0
      5267 MEMB     35       DOPC     H13S     HAL2     0.900000E-01   1.00800           0
      5268 MEMB     35       DOPC     C214     CTL2    -0.180000       12.0110           0
      5269 MEMB     35       DOPC     H14R     HAL2     0.900000E-01   1.00800           0
      5270 MEMB     35       DOPC     H14S     HAL2     0.900000E-01   1.00800           0
      5271 MEMB     35       DOPC     C215     CTL2    -0.180000       12.0110           0
      5272 MEMB     35       DOPC     H15R     HAL2     0.900000E-01   1.00800           0
      5273 MEMB     35       DOPC     H15S     HAL2     0.900000E-01   1.00800           0
      5274 MEMB     35       DOPC     C216     CTL2    -0.180000       12.0110           0
      5275 MEMB     35       DOPC     H16R     HAL2     0.900000E-01   1.00800           0
      5276 MEMB     35       DOPC     H16S     HAL2     0.900000E-01   1.00800           0
      5277 MEMB     35       DOPC     C217     CTL2    -0.180000       12.0110           0
      5278 MEMB     35       DOPC     H17R     HAL2     0.900000E-01   1.00800           0
      5279 MEMB     35       DOPC     H17S     HAL2     0.900000E-01   1.00800           0
      5280 MEMB     35       DOPC     C218     CTL3    -0.270000       12.0110           0
      5281 MEMB     35       DOPC     H18R     HAL3     0.900000E-01   1.00800           0
      5282 MEMB     35       DOPC     H18S     HAL3     0.900000E-01   1.00800           0
      5283 MEMB     35       DOPC     H18T     HAL3     0.900000E-01   1.00800           0
      5284 MEMB     35       DOPC     C33      CTL2    -0.180000       12.0110           0
      5285 MEMB     35       DOPC     H3X      HAL2     0.900000E-01   1.00800           0
      5286 MEMB     35       DOPC     H3Y      HAL2     0.900000E-01   1.00800           0
      5287 MEMB     35       DOPC     C34      CTL2    -0.180000       12.0110           0
      5288 MEMB     35       DOPC     H4X      HAL2     0.900000E-01   1.00800           0
      5289 MEMB     35       DOPC     H4Y      HAL2     0.900000E-01   1.00800           0
      5290 MEMB     35       DOPC     C35      CTL2    -0.180000       12.0110           0
      5291 MEMB     35       DOPC     H5X      HAL2     0.900000E-01   1.00800           0
      5292 MEMB     35       DOPC     H5Y      HAL2     0.900000E-01   1.00800           0
      5293 MEMB     35       DOPC     C36      CTL2    -0.180000       12.0110           0
      5294 MEMB     35       DOPC     H6X      HAL2     0.900000E-01   1.00800           0
      5295 MEMB     35       DOPC     H6Y      HAL2     0.900000E-01   1.00800           0
      5296 MEMB     35       DOPC     C37      CTL2    -0.180000       12.0110           0
      5297 MEMB     35       DOPC     H7X      HAL2     0.900000E-01   1.00800           0
      5298 MEMB     35       DOPC     H7Y      HAL2     0.900000E-01   1.00800           0
      5299 MEMB     35       DOPC     C38      CTL2    -0.180000       12.0110           0
      5300 MEMB     35       DOPC     H8X      HAL2     0.900000E-01   1.00800           0
      5301 MEMB     35       DOPC     H8Y      HAL2     0.900000E-01   1.00800           0
      5302 MEMB     35       DOPC     C39      CEL1    -0.150000       12.0110           0
      5303 MEMB     35       DOPC     H9X      HEL1     0.150000       1.00800           0
      5304 MEMB     35       DOPC     C310     CEL1    -0.150000       12.0110           0
      5305 MEMB     35       DOPC     H10X     HEL1     0.150000       1.00800           0
      5306 MEMB     35       DOPC     C311     CTL2    -0.180000       12.0110           0
      5307 MEMB     35       DOPC     H11X     HAL2     0.900000E-01   1.00800           0
      5308 MEMB     35       DOPC     H11Y     HAL2     0.900000E-01   1.00800           0
      5309 MEMB     35       DOPC     C312     CTL2    -0.180000       12.0110           0
      5310 MEMB     35       DOPC     H12X     HAL2     0.900000E-01   1.00800           0
      5311 MEMB     35       DOPC     H12Y     HAL2     0.900000E-01   1.00800           0
      5312 MEMB     35       DOPC     C313     CTL2    -0.180000       12.0110           0
      5313 MEMB     35       DOPC     H13X     HAL2     0.900000E-01   1.00800           0
      5314 MEMB     35       DOPC     H13Y     HAL2     0.900000E-01   1.00800           0
      5315 MEMB     35       DOPC     C314     CTL2    -0.180000       12.0110           0
      5316 MEMB     35       DOPC     H14X     HAL2     0.900000E-01   1.00800           0
      5317 MEMB     35       DOPC     H14Y     HAL2     0.900000E-01   1.00800           0
      5318 MEMB     35       DOPC     C315     CTL2    -0.180000       12.0110           0
      5319 MEMB     35       DOPC     H15X     HAL2     0.900000E-01   1.00800           0
      5320 MEMB     35       DOPC     H15Y     HAL2     0.900000E-01   1.00800           0
      5321 MEMB     35       DOPC     C316     CTL2    -0.180000       12.0110           0
      5322 MEMB     35       DOPC     H16X     HAL2     0.900000E-01   1.00800           0
      5323 MEMB     35       DOPC     H16Y     HAL2     0.900000E-01   1.00800           0
      5324 MEMB     35       DOPC     C317     CTL2    -0.180000       12.0110           0
      5325 MEMB     35       DOPC     H17X     HAL2     0.900000E-01   1.00800           0
      5326 MEMB     35       DOPC     H17Y     HAL2     0.900000E-01   1.00800           0
      5327 MEMB     35       DOPC     C318     CTL3    -0.270000       12.0110           0
      5328 MEMB     35       DOPC     H18X     HAL3     0.900000E-01   1.00800           0
      5329 MEMB     35       DOPC     H18Y     HAL3     0.900000E-01   1.00800           0
      5330 MEMB     35       DOPC     H18Z     HAL3     0.900000E-01   1.00800           0
      5331 MEMB     36       DOPC     N        NTL     -0.600000       14.0070           0
      5332 MEMB     36       DOPC     C12      CTL2    -0.100000       12.0110           0
      5333 MEMB     36       DOPC     H12A     HL       0.250000       1.00800           0
      5334 MEMB     36       DOPC     H12B     HL       0.250000       1.00800           0
      5335 MEMB     36       DOPC     C13      CTL5    -0.350000       12.0110           0
      5336 MEMB     36       DOPC     H13A     HL       0.250000       1.00800           0
      5337 MEMB     36       DOPC     H13B     HL       0.250000       1.00800           0
      5338 MEMB     36       DOPC     H13C     HL       0.250000       1.00800           0
      5339 MEMB     36       DOPC     C14      CTL5    -0.350000       12.0110           0
      5340 MEMB     36       DOPC     H14A     HL       0.250000       1.00800           0
      5341 MEMB     36       DOPC     H14B     HL       0.250000       1.00800           0
      5342 MEMB     36       DOPC     H14C     HL       0.250000       1.00800           0
      5343 MEMB     36       DOPC     C15      CTL5    -0.350000       12.0110           0
      5344 MEMB     36       DOPC     H15A     HL       0.250000       1.00800           0
      5345 MEMB     36       DOPC     H15B     HL       0.250000       1.00800           0
      5346 MEMB     36       DOPC     H15C     HL       0.250000       1.00800           0
      5347 MEMB     36       DOPC     C11      CTL2    -0.800000E-01   12.0110           0
      5348 MEMB     36       DOPC     H11A     HAL2     0.900000E-01   1.00800           0
      5349 MEMB     36       DOPC     H11B     HAL2     0.900000E-01   1.00800           0
      5350 MEMB     36       DOPC     P        PL        1.50000       30.9740           0
      5351 MEMB     36       DOPC     O13      O2L     -0.780000       15.9994           0
      5352 MEMB     36       DOPC     O14      O2L     -0.780000       15.9994           0
      5353 MEMB     36       DOPC     O12      OSLP    -0.570000       15.9994           0
      5354 MEMB     36       DOPC     O11      OSLP    -0.570000       15.9994           0
      5355 MEMB     36       DOPC     C1       CTL2    -0.800000E-01   12.0110           0
      5356 MEMB     36       DOPC     HA       HAL2     0.900000E-01   1.00800           0
      5357 MEMB     36       DOPC     HB       HAL2     0.900000E-01   1.00800           0
      5358 MEMB     36       DOPC     C2       CTL1     0.170000       12.0110           0
      5359 MEMB     36       DOPC     HS       HAL1     0.900000E-01   1.00800           0
      5360 MEMB     36       DOPC     O21      OSL     -0.490000       15.9994           0
      5361 MEMB     36       DOPC     C21      CL       0.900000       12.0110           0
      5362 MEMB     36       DOPC     O22      OBL     -0.630000       15.9994           0
      5363 MEMB     36       DOPC     C22      CTL2    -0.220000       12.0110           0
      5364 MEMB     36       DOPC     H2R      HAL2     0.900000E-01   1.00800           0
      5365 MEMB     36       DOPC     H2S      HAL2     0.900000E-01   1.00800           0
      5366 MEMB     36       DOPC     C3       CTL2     0.800000E-01   12.0110           0
      5367 MEMB     36       DOPC     HX       HAL2     0.900000E-01   1.00800           0
      5368 MEMB     36       DOPC     HY       HAL2     0.900000E-01   1.00800           0
      5369 MEMB     36       DOPC     O31      OSL     -0.490000       15.9994           0
      5370 MEMB     36       DOPC     C31      CL       0.900000       12.0110           0
      5371 MEMB     36       DOPC     O32      OBL     -0.630000       15.9994           0
      5372 MEMB     36       DOPC     C32      CTL2    -0.220000       12.0110           0
      5373 MEMB     36       DOPC     H2X      HAL2     0.900000E-01   1.00800           0
      5374 MEMB     36       DOPC     H2Y      HAL2     0.900000E-01   1.00800           0
      5375 MEMB     36       DOPC     C23      CTL2    -0.180000       12.0110           0
      5376 MEMB     36       DOPC     H3R      HAL2     0.900000E-01   1.00800           0
      5377 MEMB     36       DOPC     H3S      HAL2     0.900000E-01   1.00800           0
      5378 MEMB     36       DOPC     C24      CTL2    -0.180000       12.0110           0
      5379 MEMB     36       DOPC     H4R      HAL2     0.900000E-01   1.00800           0
      5380 MEMB     36       DOPC     H4S      HAL2     0.900000E-01   1.00800           0
      5381 MEMB     36       DOPC     C25      CTL2    -0.180000       12.0110           0
      5382 MEMB     36       DOPC     H5R      HAL2     0.900000E-01   1.00800           0
      5383 MEMB     36       DOPC     H5S      HAL2     0.900000E-01   1.00800           0
      5384 MEMB     36       DOPC     C26      CTL2    -0.180000       12.0110           0
      5385 MEMB     36       DOPC     H6R      HAL2     0.900000E-01   1.00800           0
      5386 MEMB     36       DOPC     H6S      HAL2     0.900000E-01   1.00800           0
      5387 MEMB     36       DOPC     C27      CTL2    -0.180000       12.0110           0
      5388 MEMB     36       DOPC     H7R      HAL2     0.900000E-01   1.00800           0
      5389 MEMB     36       DOPC     H7S      HAL2     0.900000E-01   1.00800           0
      5390 MEMB     36       DOPC     C28      CTL2    -0.180000       12.0110           0
      5391 MEMB     36       DOPC     H8R      HAL2     0.900000E-01   1.00800           0
      5392 MEMB     36       DOPC     H8S      HAL2     0.900000E-01   1.00800           0
      5393 MEMB     36       DOPC     C29      CEL1    -0.150000       12.0110           0
      5394 MEMB     36       DOPC     H9R      HEL1     0.150000       1.00800           0
      5395 MEMB     36       DOPC     C210     CEL1    -0.150000       12.0110           0
      5396 MEMB     36       DOPC     H10R     HEL1     0.150000       1.00800           0
      5397 MEMB     36       DOPC     C211     CTL2    -0.180000       12.0110           0
      5398 MEMB     36       DOPC     H11R     HAL2     0.900000E-01   1.00800           0
      5399 MEMB     36       DOPC     H11S     HAL2     0.900000E-01   1.00800           0
      5400 MEMB     36       DOPC     C212     CTL2    -0.180000       12.0110           0
      5401 MEMB     36       DOPC     H12R     HAL2     0.900000E-01   1.00800           0
      5402 MEMB     36       DOPC     H12S     HAL2     0.900000E-01   1.00800           0
      5403 MEMB     36       DOPC     C213     CTL2    -0.180000       12.0110           0
      5404 MEMB     36       DOPC     H13R     HAL2     0.900000E-01   1.00800           0
      5405 MEMB     36       DOPC     H13S     HAL2     0.900000E-01   1.00800           0
      5406 MEMB     36       DOPC     C214     CTL2    -0.180000       12.0110           0
      5407 MEMB     36       DOPC     H14R     HAL2     0.900000E-01   1.00800           0
      5408 MEMB     36       DOPC     H14S     HAL2     0.900000E-01   1.00800           0
      5409 MEMB     36       DOPC     C215     CTL2    -0.180000       12.0110           0
      5410 MEMB     36       DOPC     H15R     HAL2     0.900000E-01   1.00800           0
      5411 MEMB     36       DOPC     H15S     HAL2     0.900000E-01   1.00800           0
      5412 MEMB     36       DOPC     C216     CTL2    -0.180000       12.0110           0
      5413 MEMB     36       DOPC     H16R     HAL2     0.900000E-01   1.00800           0
      5414 MEMB     36       DOPC     H16S     HAL2     0.900000E-01   1.00800           0
      5415 MEMB     36       DOPC     C217     CTL2    -0.180000       12.0110           0
      5416 MEMB     36       DOPC     H17R     HAL2     0.900000E-01   1.00800           0
      5417 MEMB     36       DOPC     H17S     HAL2     0.900000E-01   1.00800           0
      5418 MEMB     36       DOPC     C218     CTL3    -0.270000       12.0110           0
      5419 MEMB     36       DOPC     H18R     HAL3     0.900000E-01   1.00800           0
      5420 MEMB     36       DOPC     H18S     HAL3     0.900000E-01   1.00800           0
      5421 MEMB     36       DOPC     H18T     HAL3     0.900000E-01   1.00800           0
      5422 MEMB     36       DOPC     C33      CTL2    -0.180000       12.0110           0
      5423 MEMB     36       DOPC     H3X      HAL2     0.900000E-01   1.00800           0
      5424 MEMB     36       DOPC     H3Y      HAL2     0.900000E-01   1.00800           0
      5425 MEMB     36       DOPC     C34      CTL2    -0.180000       12.0110           0
      5426 MEMB     36       DOPC     H4X      HAL2     0.900000E-01   1.00800           0
      5427 MEMB     36       DOPC     H4Y      HAL2     0.900000E-01   1.00800           0
      5428 MEMB     36       DOPC     C35      CTL2    -0.180000       12.0110           0
      5429 MEMB     36       DOPC     H5X      HAL2     0.900000E-01   1.00800           0
      5430 MEMB     36       DOPC     H5Y      HAL2     0.900000E-01   1.00800           0
      5431 MEMB     36       DOPC     C36      CTL2    -0.180000       12.0110           0
      5432 MEMB     36       DOPC     H6X      HAL2     0.900000E-01   1.00800           0
      5433 MEMB     36       DOPC     H6Y      HAL2     0.900000E-01   1.00800           0
      5434 MEMB     36       DOPC     C37      CTL2    -0.180000       12.0110           0
      5435 MEMB     36       DOPC     H7X      HAL2     0.900000E-01   1.00800           0
      5436 MEMB     36       DOPC     H7Y      HAL2     0.900000E-01   1.00800           0
      5437 MEMB     36       DOPC     C38      CTL2    -0.180000       12.0110           0
      5438 MEMB     36       DOPC     H8X      HAL2     0.900000E-01   1.00800           0
      5439 MEMB     36       DOPC     H8Y      HAL2     0.900000E-01   1.00800           0
      5440 MEMB     36       DOPC     C39      CEL1    -0.150000       12.0110           0
      5441 MEMB     36       DOPC     H9X      HEL1     0.150000       1.00800           0
      5442 MEMB     36       DOPC     C310     CEL1    -0.150000       12.0110           0
      5443 MEMB     36       DOPC     H10X     HEL1     0.150000       1.00800           0
      5444 MEMB     36       DOPC     C311     CTL2    -0.180000       12.0110           0
      5445 MEMB     36       DOPC     H11X     HAL2     0.900000E-01   1.00800           0
      5446 MEMB     36       DOPC     H11Y     HAL2     0.900000E-01   1.00800           0
      5447 MEMB     36       DOPC     C312     CTL2    -0.180000       12.0110           0
      5448 MEMB     36       DOPC     H12X     HAL2     0.900000E-01   1.00800           0
      5449 MEMB     36       DOPC     H12Y     HAL2     0.900000E-01   1.00800           0
      5450 MEMB     36       DOPC     C313     CTL2    -0.180000       12.0110           0
      5451 MEMB     36       DOPC     H13X     HAL2     0.900000E-01   1.00800           0
      5452 MEMB     36       DOPC     H13Y     HAL2     0.900000E-01   1.00800           0
      5453 MEMB     36       DOPC     C314     CTL2    -0.180000       12.0110           0
      5454 MEMB     36       DOPC     H14X     HAL2     0.900000E-01   1.00800           0
      5455 MEMB     36       DOPC     H14Y     HAL2     0.900000E-01   1.00800           0
      5456 MEMB     36       DOPC     C315     CTL2    -0.180000       12.0110           0
      5457 MEMB     36       DOPC     H15X     HAL2     0.900000E-01   1.00800           0
      5458 MEMB     36       DOPC     H15Y     HAL2     0.900000E-01   1.00800           0
      5459 MEMB     36       DOPC     C316     CTL2    -0.180000       12.0110           0
      5460 MEMB     36       DOPC     H16X     HAL2     0.900000E-01   1.00800           0
      5461 MEMB     36       DOPC     H16Y     HAL2     0.900000E-01   1.00800           0
      5462 MEMB     36       DOPC     C317     CTL2    -0.180000       12.0110           0
      5463 MEMB     36       DOPC     H17X     HAL2     0.900000E-01   1.00800           0
      5464 MEMB     36       DOPC     H17Y     HAL2     0.900000E-01   1.00800           0
      5465 MEMB     36       DOPC     C318     CTL3    -0.270000       12.0110           0
      5466 MEMB     36       DOPC     H18X     HAL3     0.900000E-01   1.00800           0
      5467 MEMB     36       DOPC     H18Y     HAL3     0.900000E-01   1.00800           0
      5468 MEMB     36       DOPC     H18Z     HAL3     0.900000E-01   1.00800           0
      5469 MEMB     37       DOPC     N        NTL     -0.600000       14.0070           0
      5470 MEMB     37       DOPC     C12      CTL2    -0.100000       12.0110           0
      5471 MEMB     37       DOPC     H12A     HL       0.250000       1.00800           0
      5472 MEMB     37       DOPC     H12B     HL       0.250000       1.00800           0
      5473 MEMB     37       DOPC     C13      CTL5    -0.350000       12.0110           0
      5474 MEMB     37       DOPC     H13A     HL       0.250000       1.00800           0
      5475 MEMB     37       DOPC     H13B     HL       0.250000       1.00800           0
      5476 MEMB     37       DOPC     H13C     HL       0.250000       1.00800           0
      5477 MEMB     37       DOPC     C14      CTL5    -0.350000       12.0110           0
      5478 MEMB     37       DOPC     H14A     HL       0.250000       1.00800           0
      5479 MEMB     37       DOPC     H14B     HL       0.250000       1.00800           0
      5480 MEMB     37       DOPC     H14C     HL       0.250000       1.00800           0
      5481 MEMB     37       DOPC     C15      CTL5    -0.350000       12.0110           0
      5482 MEMB     37       DOPC     H15A     HL       0.250000       1.00800           0
      5483 MEMB     37       DOPC     H15B     HL       0.250000       1.00800           0
      5484 MEMB     37       DOPC     H15C     HL       0.250000       1.00800           0
      5485 MEMB     37       DOPC     C11      CTL2    -0.800000E-01   12.0110           0
      5486 MEMB     37       DOPC     H11A     HAL2     0.900000E-01   1.00800           0
      5487 MEMB     37       DOPC     H11B     HAL2     0.900000E-01   1.00800           0
      5488 MEMB     37       DOPC     P        PL        1.50000       30.9740           0
      5489 MEMB     37       DOPC     O13      O2L     -0.780000       15.9994           0
      5490 MEMB     37       DOPC     O14      O2L     -0.780000       15.9994           0
      5491 MEMB     37       DOPC     O12      OSLP    -0.570000       15.9994           0
      5492 MEMB     37       DOPC     O11      OSLP    -0.570000       15.9994           0
      5493 MEMB     37       DOPC     C1       CTL2    -0.800000E-01   12.0110           0
      5494 MEMB     37       DOPC     HA       HAL2     0.900000E-01   1.00800           0
      5495 MEMB     37       DOPC     HB       HAL2     0.900000E-01   1.00800           0
      5496 MEMB     37       DOPC     C2       CTL1     0.170000       12.0110           0
      5497 MEMB     37       DOPC     HS       HAL1     0.900000E-01   1.00800           0
      5498 MEMB     37       DOPC     O21      OSL     -0.490000       15.9994           0
      5499 MEMB     37       DOPC     C21      CL       0.900000       12.0110           0
      5500 MEMB     37       DOPC     O22      OBL     -0.630000       15.9994           0
      5501 MEMB     37       DOPC     C22      CTL2    -0.220000       12.0110           0
      5502 MEMB     37       DOPC     H2R      HAL2     0.900000E-01   1.00800           0
      5503 MEMB     37       DOPC     H2S      HAL2     0.900000E-01   1.00800           0
      5504 MEMB     37       DOPC     C3       CTL2     0.800000E-01   12.0110           0
      5505 MEMB     37       DOPC     HX       HAL2     0.900000E-01   1.00800           0
      5506 MEMB     37       DOPC     HY       HAL2     0.900000E-01   1.00800           0
      5507 MEMB     37       DOPC     O31      OSL     -0.490000       15.9994           0
      5508 MEMB     37       DOPC     C31      CL       0.900000       12.0110           0
      5509 MEMB     37       DOPC     O32      OBL     -0.630000       15.9994           0
      5510 MEMB     37       DOPC     C32      CTL2    -0.220000       12.0110           0
      5511 MEMB     37       DOPC     H2X      HAL2     0.900000E-01   1.00800           0
      5512 MEMB     37       DOPC     H2Y      HAL2     0.900000E-01   1.00800           0
      5513 MEMB     37       DOPC     C23      CTL2    -0.180000       12.0110           0
      5514 MEMB     37       DOPC     H3R      HAL2     0.900000E-01   1.00800           0
      5515 MEMB     37       DOPC     H3S      HAL2     0.900000E-01   1.00800           0
      5516 MEMB     37       DOPC     C24      CTL2    -0.180000       12.0110           0
      5517 MEMB     37       DOPC     H4R      HAL2     0.900000E-01   1.00800           0
      5518 MEMB     37       DOPC     H4S      HAL2     0.900000E-01   1.00800           0
      5519 MEMB     37       DOPC     C25      CTL2    -0.180000       12.0110           0
      5520 MEMB     37       DOPC     H5R      HAL2     0.900000E-01   1.00800           0
      5521 MEMB     37       DOPC     H5S      HAL2     0.900000E-01   1.00800           0
      5522 MEMB     37       DOPC     C26      CTL2    -0.180000       12.0110           0
      5523 MEMB     37       DOPC     H6R      HAL2     0.900000E-01   1.00800           0
      5524 MEMB     37       DOPC     H6S      HAL2     0.900000E-01   1.00800           0
      5525 MEMB     37       DOPC     C27      CTL2    -0.180000       12.0110           0
      5526 MEMB     37       DOPC     H7R      HAL2     0.900000E-01   1.00800           0
      5527 MEMB     37       DOPC     H7S      HAL2     0.900000E-01   1.00800           0
      5528 MEMB     37       DOPC     C28      CTL2    -0.180000       12.0110           0
      5529 MEMB     37       DOPC     H8R      HAL2     0.900000E-01   1.00800           0
      5530 MEMB     37       DOPC     H8S      HAL2     0.900000E-01   1.00800           0
      5531 MEMB     37       DOPC     C29      CEL1    -0.150000       12.0110           0
      5532 MEMB     37       DOPC     H9R      HEL1     0.150000       1.00800           0
      5533 MEMB     37       DOPC     C210     CEL1    -0.150000       12.0110           0
      5534 MEMB     37       DOPC     H10R     HEL1     0.150000       1.00800           0
      5535 MEMB     37       DOPC     C211     CTL2    -0.180000       12.0110           0
      5536 MEMB     37       DOPC     H11R     HAL2     0.900000E-01   1.00800           0
      5537 MEMB     37       DOPC     H11S     HAL2     0.900000E-01   1.00800           0
      5538 MEMB     37       DOPC     C212     CTL2    -0.180000       12.0110           0
      5539 MEMB     37       DOPC     H12R     HAL2     0.900000E-01   1.00800           0
      5540 MEMB     37       DOPC     H12S     HAL2     0.900000E-01   1.00800           0
      5541 MEMB     37       DOPC     C213     CTL2    -0.180000       12.0110           0
      5542 MEMB     37       DOPC     H13R     HAL2     0.900000E-01   1.00800           0
      5543 MEMB     37       DOPC     H13S     HAL2     0.900000E-01   1.00800           0
      5544 MEMB     37       DOPC     C214     CTL2    -0.180000       12.0110           0
      5545 MEMB     37       DOPC     H14R     HAL2     0.900000E-01   1.00800           0
      5546 MEMB     37       DOPC     H14S     HAL2     0.900000E-01   1.00800           0
      5547 MEMB     37       DOPC     C215     CTL2    -0.180000       12.0110           0
      5548 MEMB     37       DOPC     H15R     HAL2     0.900000E-01   1.00800           0
      5549 MEMB     37       DOPC     H15S     HAL2     0.900000E-01   1.00800           0
      5550 MEMB     37       DOPC     C216     CTL2    -0.180000       12.0110           0
      5551 MEMB     37       DOPC     H16R     HAL2     0.900000E-01   1.00800           0
      5552 MEMB     37       DOPC     H16S     HAL2     0.900000E-01   1.00800           0
      5553 MEMB     37       DOPC     C217     CTL2    -0.180000       12.0110           0
      5554 MEMB     37       DOPC     H17R     HAL2     0.900000E-01   1.00800           0
      5555 MEMB     37       DOPC     H17S     HAL2     0.900000E-01   1.00800           0
      5556 MEMB     37       DOPC     C218     CTL3    -0.270000       12.0110           0
      5557 MEMB     37       DOPC     H18R     HAL3     0.900000E-01   1.00800           0
      5558 MEMB     37       DOPC     H18S     HAL3     0.900000E-01   1.00800           0
      5559 MEMB     37       DOPC     H18T     HAL3     0.900000E-01   1.00800           0
      5560 MEMB     37       DOPC     C33      CTL2    -0.180000       12.0110           0
      5561 MEMB     37       DOPC     H3X      HAL2     0.900000E-01   1.00800           0
      5562 MEMB     37       DOPC     H3Y      HAL2     0.900000E-01   1.00800           0
      5563 MEMB     37       DOPC     C34      CTL2    -0.180000       12.0110           0
      5564 MEMB     37       DOPC     H4X      HAL2     0.900000E-01   1.00800           0
      5565 MEMB     37       DOPC     H4Y      HAL2     0.900000E-01   1.00800           0
      5566 MEMB     37       DOPC     C35      CTL2    -0.180000       12.0110           0
      5567 MEMB     37       DOPC     H5X      HAL2     0.900000E-01   1.00800           0
      5568 MEMB     37       DOPC     H5Y      HAL2     0.900000E-01   1.00800           0
      5569 MEMB     37       DOPC     C36      CTL2    -0.180000       12.0110           0
      5570 MEMB     37       DOPC     H6X      HAL2     0.900000E-01   1.00800           0
      5571 MEMB     37       DOPC     H6Y      HAL2     0.900000E-01   1.00800           0
      5572 MEMB     37       DOPC     C37      CTL2    -0.180000       12.0110           0
      5573 MEMB     37       DOPC     H7X      HAL2     0.900000E-01   1.00800           0
      5574 MEMB     37       DOPC     H7Y      HAL2     0.900000E-01   1.00800           0
      5575 MEMB     37       DOPC     C38      CTL2    -0.180000       12.0110           0
      5576 MEMB     37       DOPC     H8X      HAL2     0.900000E-01   1.00800           0
      5577 MEMB     37       DOPC     H8Y      HAL2     0.900000E-01   1.00800           0
      5578 MEMB     37       DOPC     C39      CEL1    -0.150000       12.0110           0
      5579 MEMB     37       DOPC     H9X      HEL1     0.150000       1.00800           0
      5580 MEMB     37       DOPC     C310     CEL1    -0.150000       12.0110           0
      5581 MEMB     37       DOPC     H10X     HEL1     0.150000       1.00800           0
      5582 MEMB     37       DOPC     C311     CTL2    -0.180000       12.0110           0
      5583 MEMB     37       DOPC     H11X     HAL2     0.900000E-01   1.00800           0
      5584 MEMB     37       DOPC     H11Y     HAL2     0.900000E-01   1.00800           0
      5585 MEMB     37       DOPC     C312     CTL2    -0.180000       12.0110           0
      5586 MEMB     37       DOPC     H12X     HAL2     0.900000E-01   1.00800           0
      5587 MEMB     37       DOPC     H12Y     HAL2     0.900000E-01   1.00800           0
      5588 MEMB     37       DOPC     C313     CTL2    -0.180000       12.0110           0
      5589 MEMB     37       DOPC     H13X     HAL2     0.900000E-01   1.00800           0
      5590 MEMB     37       DOPC     H13Y     HAL2     0.900000E-01   1.00800           0
      5591 MEMB     37       DOPC     C314     CTL2    -0.180000       12.0110           0
      5592 MEMB     37       DOPC     H14X     HAL2     0.900000E-01   1.00800           0
      5593 MEMB     37       DOPC     H14Y     HAL2     0.900000E-01   1.00800           0
      5594 MEMB     37       DOPC     C315     CTL2    -0.180000       12.0110           0
      5595 MEMB     37       DOPC     H15X     HAL2     0.900000E-01   1.00800           0
      5596 MEMB     37       DOPC     H15Y     HAL2     0.900000E-01   1.00800           0
      5597 MEMB     37       DOPC     C316     CTL2    -0.180000       12.0110           0
      5598 MEMB     37       DOPC     H16X     HAL2     0.900000E-01   1.00800           0
      5599 MEMB     37       DOPC     H16Y     HAL2     0.900000E-01   1.00800           0
      5600 MEMB     37       DOPC     C317     CTL2    -0.180000       12.0110           0
      5601 MEMB     37       DOPC     H17X     HAL2     0.900000E-01   1.00800           0
      5602 MEMB     37       DOPC     H17Y     HAL2     0.900000E-01   1.00800           0
      5603 MEMB     37       DOPC     C318     CTL3    -0.270000       12.0110           0
      5604 MEMB     37       DOPC     H18X     HAL3     0.900000E-01   1.00800           0
      5605 MEMB     37       DOPC     H18Y     HAL3     0.900000E-01   1.00800           0
      5606 MEMB     37       DOPC     H18Z     HAL3     0.900000E-01   1.00800           0
      5607 MEMB     38       DOPC     N        NTL     -0.600000       14.0070           0
      5608 MEMB     38       DOPC     C12      CTL2    -0.100000       12.0110           0
      5609 MEMB     38       DOPC     H12A     HL       0.250000       1.00800           0
      5610 MEMB     38       DOPC     H12B     HL       0.250000       1.00800           0
      5611 MEMB     38       DOPC     C13      CTL5    -0.350000       12.0110           0
      5612 MEMB     38       DOPC     H13A     HL       0.250000       1.00800           0
      5613 MEMB     38       DOPC     H13B     HL       0.250000       1.00800           0
      5614 MEMB     38       DOPC     H13C     HL       0.250000       1.00800           0
      5615 MEMB     38       DOPC     C14      CTL5    -0.350000       12.0110           0
      5616 MEMB     38       DOPC     H14A     HL       0.250000       1.00800           0
      5617 MEMB     38       DOPC     H14B     HL       0.250000       1.00800           0
      5618 MEMB     38       DOPC     H14C     HL       0.250000       1.00800           0
      5619 MEMB     38       DOPC     C15      CTL5    -0.350000       12.0110           0
      5620 MEMB     38       DOPC     H15A     HL       0.250000       1.00800           0
      5621 MEMB     38       DOPC     H15B     HL       0.250000       1.00800           0
      5622 MEMB     38       DOPC     H15C     HL       0.250000       1.00800           0
      5623 MEMB     38       DOPC     C11      CTL2    -0.800000E-01   12.0110           0
      5624 MEMB     38       DOPC     H11A     HAL2     0.900000E-01   1.00800           0
      5625 MEMB     38       DOPC     H11B     HAL2     0.900000E-01   1.00800           0
      5626 MEMB     38       DOPC     P        PL        1.50000       30.9740           0
      5627 MEMB     38       DOPC     O13      O2L     -0.780000       15.9994           0
      5628 MEMB     38       DOPC     O14      O2L     -0.780000       15.9994           0
      5629 MEMB     38       DOPC     O12      OSLP    -0.570000       15.9994           0
      5630 MEMB     38       DOPC     O11      OSLP    -0.570000       15.9994           0
      5631 MEMB     38       DOPC     C1       CTL2    -0.800000E-01   12.0110           0
      5632 MEMB     38       DOPC     HA       HAL2     0.900000E-01   1.00800           0
      5633 MEMB     38       DOPC     HB       HAL2     0.900000E-01   1.00800           0
      5634 MEMB     38       DOPC     C2       CTL1     0.170000       12.0110           0
      5635 MEMB     38       DOPC     HS       HAL1     0.900000E-01   1.00800           0
      5636 MEMB     38       DOPC     O21      OSL     -0.490000       15.9994           0
      5637 MEMB     38       DOPC     C21      CL       0.900000       12.0110           0
      5638 MEMB     38       DOPC     O22      OBL     -0.630000       15.9994           0
      5639 MEMB     38       DOPC     C22      CTL2    -0.220000       12.0110           0
      5640 MEMB     38       DOPC     H2R      HAL2     0.900000E-01   1.00800           0
      5641 MEMB     38       DOPC     H2S      HAL2     0.900000E-01   1.00800           0
      5642 MEMB     38       DOPC     C3       CTL2     0.800000E-01   12.0110           0
      5643 MEMB     38       DOPC     HX       HAL2     0.900000E-01   1.00800           0
      5644 MEMB     38       DOPC     HY       HAL2     0.900000E-01   1.00800           0
      5645 MEMB     38       DOPC     O31      OSL     -0.490000       15.9994           0
      5646 MEMB     38       DOPC     C31      CL       0.900000       12.0110           0
      5647 MEMB     38       DOPC     O32      OBL     -0.630000       15.9994           0
      5648 MEMB     38       DOPC     C32      CTL2    -0.220000       12.0110           0
      5649 MEMB     38       DOPC     H2X      HAL2     0.900000E-01   1.00800           0
      5650 MEMB     38       DOPC     H2Y      HAL2     0.900000E-01   1.00800           0
      5651 MEMB     38       DOPC     C23      CTL2    -0.180000       12.0110           0
      5652 MEMB     38       DOPC     H3R      HAL2     0.900000E-01   1.00800           0
      5653 MEMB     38       DOPC     H3S      HAL2     0.900000E-01   1.00800           0
      5654 MEMB     38       DOPC     C24      CTL2    -0.180000       12.0110           0
      5655 MEMB     38       DOPC     H4R      HAL2     0.900000E-01   1.00800           0
      5656 MEMB     38       DOPC     H4S      HAL2     0.900000E-01   1.00800           0
      5657 MEMB     38       DOPC     C25      CTL2    -0.180000       12.0110           0
      5658 MEMB     38       DOPC     H5R      HAL2     0.900000E-01   1.00800           0
      5659 MEMB     38       DOPC     H5S      HAL2     0.900000E-01   1.00800           0
      5660 MEMB     38       DOPC     C26      CTL2    -0.180000       12.0110           0
      5661 MEMB     38       DOPC     H6R      HAL2     0.900000E-01   1.00800           0
      5662 MEMB     38       DOPC     H6S      HAL2     0.900000E-01   1.00800           0
      5663 MEMB     38       DOPC     C27      CTL2    -0.180000       12.0110           0
      5664 MEMB     38       DOPC     H7R      HAL2     0.900000E-01   1.00800           0
      5665 MEMB     38       DOPC     H7S      HAL2     0.900000E-01   1.00800           0
      5666 MEMB     38       DOPC     C28      CTL2    -0.180000       12.0110           0
      5667 MEMB     38       DOPC     H8R      HAL2     0.900000E-01   1.00800           0
      5668 MEMB     38       DOPC     H8S      HAL2     0.900000E-01   1.00800           0
      5669 MEMB     38       DOPC     C29      CEL1    -0.150000       12.0110           0
      5670 MEMB     38       DOPC     H9R      HEL1     0.150000       1.00800           0
      5671 MEMB     38       DOPC     C210     CEL1    -0.150000       12.0110           0
      5672 MEMB     38       DOPC     H10R     HEL1     0.150000       1.00800           0
      5673 MEMB     38       DOPC     C211     CTL2    -0.180000       12.0110           0
      5674 MEMB     38       DOPC     H11R     HAL2     0.900000E-01   1.00800           0
      5675 MEMB     38       DOPC     H11S     HAL2     0.900000E-01   1.00800           0
      5676 MEMB     38       DOPC     C212     CTL2    -0.180000       12.0110           0
      5677 MEMB     38       DOPC     H12R     HAL2     0.900000E-01   1.00800           0
      5678 MEMB     38       DOPC     H12S     HAL2     0.900000E-01   1.00800           0
      5679 MEMB     38       DOPC     C213     CTL2    -0.180000       12.0110           0
      5680 MEMB     38       DOPC     H13R     HAL2     0.900000E-01   1.00800           0
      5681 MEMB     38       DOPC     H13S     HAL2     0.900000E-01   1.00800           0
      5682 MEMB     38       DOPC     C214     CTL2    -0.180000       12.0110           0
      5683 MEMB     38       DOPC     H14R     HAL2     0.900000E-01   1.00800           0
      5684 MEMB     38       DOPC     H14S     HAL2     0.900000E-01   1.00800           0
      5685 MEMB     38       DOPC     C215     CTL2    -0.180000       12.0110           0
      5686 MEMB     38       DOPC     H15R     HAL2     0.900000E-01   1.00800           0
      5687 MEMB     38       DOPC     H15S     HAL2     0.900000E-01   1.00800           0
      5688 MEMB     38       DOPC     C216     CTL2    -0.180000       12.0110           0
      5689 MEMB     38       DOPC     H16R     HAL2     0.900000E-01   1.00800           0
      5690 MEMB     38       DOPC     H16S     HAL2     0.900000E-01   1.00800           0
      5691 MEMB     38       DOPC     C217     CTL2    -0.180000       12.0110           0
      5692 MEMB     38       DOPC     H17R     HAL2     0.900000E-01   1.00800           0
      5693 MEMB     38       DOPC     H17S     HAL2     0.900000E-01   1.00800           0
      5694 MEMB     38       DOPC     C218     CTL3    -0.270000       12.0110           0
      5695 MEMB     38       DOPC     H18R     HAL3     0.900000E-01   1.00800           0
      5696 MEMB     38       DOPC     H18S     HAL3     0.900000E-01   1.00800           0
      5697 MEMB     38       DOPC     H18T     HAL3     0.900000E-01   1.00800           0
      5698 MEMB     38       DOPC     C33      CTL2    -0.180000       12.0110           0
      5699 MEMB     38       DOPC     H3X      HAL2     0.900000E-01   1.00800           0
      5700 MEMB     38       DOPC     H3Y      HAL2     0.900000E-01   1.00800           0
      5701 MEMB     38       DOPC     C34      CTL2    -0.180000       12.0110           0
      5702 MEMB     38       DOPC     H4X      HAL2     0.900000E-01   1.00800           0
      5703 MEMB     38       DOPC     H4Y      HAL2     0.900000E-01   1.00800           0
      5704 MEMB     38       DOPC     C35      CTL2    -0.180000       12.0110           0
      5705 MEMB     38       DOPC     H5X      HAL2     0.900000E-01   1.00800           0
      5706 MEMB     38       DOPC     H5Y      HAL2     0.900000E-01   1.00800           0
      5707 MEMB     38       DOPC     C36      CTL2    -0.180000       12.0110           0
      5708 MEMB     38       DOPC     H6X      HAL2     0.900000E-01   1.00800           0
      5709 MEMB     38       DOPC     H6Y      HAL2     0.900000E-01   1.00800           0
      5710 MEMB     38       DOPC     C37      CTL2    -0.180000       12.0110           0
      5711 MEMB     38       DOPC     H7X      HAL2     0.900000E-01   1.00800           0
      5712 MEMB     38       DOPC     H7Y      HAL2     0.900000E-01   1.00800           0
      5713 MEMB     38       DOPC     C38      CTL2    -0.180000       12.0110           0
      5714 MEMB     38       DOPC     H8X      HAL2     0.900000E-01   1.00800           0
      5715 MEMB     38       DOPC     H8Y      HAL2     0.900000E-01   1.00800           0
      5716 MEMB     38       DOPC     C39      CEL1    -0.150000       12.0110           0
      5717 MEMB     38       DOPC     H9X      HEL1     0.150000       1.00800           0
      5718 MEMB     38       DOPC     C310     CEL1    -0.150000       12.0110           0
      5719 MEMB     38       DOPC     H10X     HEL1     0.150000       1.00800           0
      5720 MEMB     38       DOPC     C311     CTL2    -0.180000       12.0110           0
      5721 MEMB     38       DOPC     H11X     HAL2     0.900000E-01   1.00800           0
      5722 MEMB     38       DOPC     H11Y     HAL2     0.900000E-01   1.00800           0
      5723 MEMB     38       DOPC     C312     CTL2    -0.180000       12.0110           0
      5724 MEMB     38       DOPC     H12X     HAL2     0.900000E-01   1.00800           0
      5725 MEMB     38       DOPC     H12Y     HAL2     0.900000E-01   1.00800           0
      5726 MEMB     38       DOPC     C313     CTL2    -0.180000       12.0110           0
      5727 MEMB     38       DOPC     H13X     HAL2     0.900000E-01   1.00800           0
      5728 MEMB     38       DOPC     H13Y     HAL2     0.900000E-01   1.00800           0
      5729 MEMB     38       DOPC     C314     CTL2    -0.180000       12.0110           0
      5730 MEMB     38       DOPC     H14X     HAL2     0.900000E-01   1.00800           0
      5731 MEMB     38       DOPC     H14Y     HAL2     0.900000E-01   1.00800           0
      5732 MEMB     38       DOPC     C315     CTL2    -0.180000       12.0110           0
      5733 MEMB     38       DOPC     H15X     HAL2     0.900000E-01   1.00800           0
      5734 MEMB     38       DOPC     H15Y     HAL2     0.900000E-01   1.00800           0
      5735 MEMB     38       DOPC     C316     CTL2    -0.180000       12.0110           0
      5736 MEMB     38       DOPC     H16X     HAL2     0.900000E-01   1.00800           0
      5737 MEMB     38       DOPC     H16Y     HAL2     0.900000E-01   1.00800           0
      5738 MEMB     38       DOPC     C317     CTL2    -0.180000       12.0110           0
      5739 MEMB     38       DOPC     H17X     HAL2     0.900000E-01   1.00800           0
      5740 MEMB     38       DOPC     H17Y     HAL2     0.900000E-01   1.00800           0
      5741 MEMB     38       DOPC     C318     CTL3    -0.270000       12.0110           0
      5742 MEMB     38       DOPC     H18X     HAL3     0.900000E-01   1.00800           0
      5743 MEMB     38       DOPC     H18Y     HAL3     0.900000E-01   1.00800           0
      5744 MEMB     38       DOPC     H18Z     HAL3     0.900000E-01   1.00800           0
      5745 MEMB     39       DOPC     N        NTL     -0.600000       14.0070           0
      5746 MEMB     39       DOPC     C12      CTL2    -0.100000       12.0110           0
      5747 MEMB     39       DOPC     H12A     HL       0.250000       1.00800           0
      5748 MEMB     39       DOPC     H12B     HL       0.250000       1.00800           0
      5749 MEMB     39       DOPC     C13      CTL5    -0.350000       12.0110           0
      5750 MEMB     39       DOPC     H13A     HL       0.250000       1.00800           0
      5751 MEMB     39       DOPC     H13B     HL       0.250000       1.00800           0
      5752 MEMB     39       DOPC     H13C     HL       0.250000       1.00800           0
      5753 MEMB     39       DOPC     C14      CTL5    -0.350000       12.0110           0
      5754 MEMB     39       DOPC     H14A     HL       0.250000       1.00800           0
      5755 MEMB     39       DOPC     H14B     HL       0.250000       1.00800           0
      5756 MEMB     39       DOPC     H14C     HL       0.250000       1.00800           0
      5757 MEMB     39       DOPC     C15      CTL5    -0.350000       12.0110           0
      5758 MEMB     39       DOPC     H15A     HL       0.250000       1.00800           0
      5759 MEMB     39       DOPC     H15B     HL       0.250000       1.00800           0
      5760 MEMB     39       DOPC     H15C     HL       0.250000       1.00800           0
      5761 MEMB     39       DOPC     C11      CTL2    -0.800000E-01   12.0110           0
      5762 MEMB     39       DOPC     H11A     HAL2     0.900000E-01   1.00800           0
      5763 MEMB     39       DOPC     H11B     HAL2     0.900000E-01   1.00800           0
      5764 MEMB     39       DOPC     P        PL        1.50000       30.9740           0
      5765 MEMB     39       DOPC     O13      O2L     -0.780000       15.9994           0
      5766 MEMB     39       DOPC     O14      O2L     -0.780000       15.9994           0
      5767 MEMB     39       DOPC     O12      OSLP    -0.570000       15.9994           0
      5768 MEMB     39       DOPC     O11      OSLP    -0.570000       15.9994           0
      5769 MEMB     39       DOPC     C1       CTL2    -0.800000E-01   12.0110           0
      5770 MEMB     39       DOPC     HA       HAL2     0.900000E-01   1.00800           0
      5771 MEMB     39       DOPC     HB       HAL2     0.900000E-01   1.00800           0
      5772 MEMB     39       DOPC     C2       CTL1     0.170000       12.0110           0
      5773 MEMB     39       DOPC     HS       HAL1     0.900000E-01   1.00800           0
      5774 MEMB     39       DOPC     O21      OSL     -0.490000       15.9994           0
      5775 MEMB     39       DOPC     C21      CL       0.900000       12.0110           0
      5776 MEMB     39       DOPC     O22      OBL     -0.630000       15.9994           0
      5777 MEMB     39       DOPC     C22      CTL2    -0.220000       12.0110           0
      5778 MEMB     39       DOPC     H2R      HAL2     0.900000E-01   1.00800           0
      5779 MEMB     39       DOPC     H2S      HAL2     0.900000E-01   1.00800           0
      5780 MEMB     39       DOPC     C3       CTL2     0.800000E-01   12.0110           0
      5781 MEMB     39       DOPC     HX       HAL2     0.900000E-01   1.00800           0
      5782 MEMB     39       DOPC     HY       HAL2     0.900000E-01   1.00800           0
      5783 MEMB     39       DOPC     O31      OSL     -0.490000       15.9994           0
      5784 MEMB     39       DOPC     C31      CL       0.900000       12.0110           0
      5785 MEMB     39       DOPC     O32      OBL     -0.630000       15.9994           0
      5786 MEMB     39       DOPC     C32      CTL2    -0.220000       12.0110           0
      5787 MEMB     39       DOPC     H2X      HAL2     0.900000E-01   1.00800           0
      5788 MEMB     39       DOPC     H2Y      HAL2     0.900000E-01   1.00800           0
      5789 MEMB     39       DOPC     C23      CTL2    -0.180000       12.0110           0
      5790 MEMB     39       DOPC     H3R      HAL2     0.900000E-01   1.00800           0
      5791 MEMB     39       DOPC     H3S      HAL2     0.900000E-01   1.00800           0
      5792 MEMB     39       DOPC     C24      CTL2    -0.180000       12.0110           0
      5793 MEMB     39       DOPC     H4R      HAL2     0.900000E-01   1.00800           0
      5794 MEMB     39       DOPC     H4S      HAL2     0.900000E-01   1.00800           0
      5795 MEMB     39       DOPC     C25      CTL2    -0.180000       12.0110           0
      5796 MEMB     39       DOPC     H5R      HAL2     0.900000E-01   1.00800           0
      5797 MEMB     39       DOPC     H5S      HAL2     0.900000E-01   1.00800           0
      5798 MEMB     39       DOPC     C26      CTL2    -0.180000       12.0110           0
      5799 MEMB     39       DOPC     H6R      HAL2     0.900000E-01   1.00800           0
      5800 MEMB     39       DOPC     H6S      HAL2     0.900000E-01   1.00800           0
      5801 MEMB     39       DOPC     C27      CTL2    -0.180000       12.0110           0
      5802 MEMB     39       DOPC     H7R      HAL2     0.900000E-01   1.00800           0
      5803 MEMB     39       DOPC     H7S      HAL2     0.900000E-01   1.00800           0
      5804 MEMB     39       DOPC     C28      CTL2    -0.180000       12.0110           0
      5805 MEMB     39       DOPC     H8R      HAL2     0.900000E-01   1.00800           0
      5806 MEMB     39       DOPC     H8S      HAL2     0.900000E-01   1.00800           0
      5807 MEMB     39       DOPC     C29      CEL1    -0.150000       12.0110           0
      5808 MEMB     39       DOPC     H9R      HEL1     0.150000       1.00800           0
      5809 MEMB     39       DOPC     C210     CEL1    -0.150000       12.0110           0
      5810 MEMB     39       DOPC     H10R     HEL1     0.150000       1.00800           0
      5811 MEMB     39       DOPC     C211     CTL2    -0.180000       12.0110           0
      5812 MEMB     39       DOPC     H11R     HAL2     0.900000E-01   1.00800           0
      5813 MEMB     39       DOPC     H11S     HAL2     0.900000E-01   1.00800           0
      5814 MEMB     39       DOPC     C212     CTL2    -0.180000       12.0110           0
      5815 MEMB     39       DOPC     H12R     HAL2     0.900000E-01   1.00800           0
      5816 MEMB     39       DOPC     H12S     HAL2     0.900000E-01   1.00800           0
      5817 MEMB     39       DOPC     C213     CTL2    -0.180000       12.0110           0
      5818 MEMB     39       DOPC     H13R     HAL2     0.900000E-01   1.00800           0
      5819 MEMB     39       DOPC     H13S     HAL2     0.900000E-01   1.00800           0
      5820 MEMB     39       DOPC     C214     CTL2    -0.180000       12.0110           0
      5821 MEMB     39       DOPC     H14R     HAL2     0.900000E-01   1.00800           0
      5822 MEMB     39       DOPC     H14S     HAL2     0.900000E-01   1.00800           0
      5823 MEMB     39       DOPC     C215     CTL2    -0.180000       12.0110           0
      5824 MEMB     39       DOPC     H15R     HAL2     0.900000E-01   1.00800           0
      5825 MEMB     39       DOPC     H15S     HAL2     0.900000E-01   1.00800           0
      5826 MEMB     39       DOPC     C216     CTL2    -0.180000       12.0110           0
      5827 MEMB     39       DOPC     H16R     HAL2     0.900000E-01   1.00800           0
      5828 MEMB     39       DOPC     H16S     HAL2     0.900000E-01   1.00800           0
      5829 MEMB     39       DOPC     C217     CTL2    -0.180000       12.0110           0
      5830 MEMB     39       DOPC     H17R     HAL2     0.900000E-01   1.00800           0
      5831 MEMB     39       DOPC     H17S     HAL2     0.900000E-01   1.00800           0
      5832 MEMB     39       DOPC     C218     CTL3    -0.270000       12.0110           0
      5833 MEMB     39       DOPC     H18R     HAL3     0.900000E-01   1.00800           0
      5834 MEMB     39       DOPC     H18S     HAL3     0.900000E-01   1.00800           0
      5835 MEMB     39       DOPC     H18T     HAL3     0.900000E-01   1.00800           0
      5836 MEMB     39       DOPC     C33      CTL2    -0.180000       12.0110           0
      5837 MEMB     39       DOPC     H3X      HAL2     0.900000E-01   1.00800           0
      5838 MEMB     39       DOPC     H3Y      HAL2     0.900000E-01   1.00800           0
      5839 MEMB     39       DOPC     C34      CTL2    -0.180000       12.0110           0
      5840 MEMB     39       DOPC     H4X      HAL2     0.900000E-01   1.00800           0
      5841 MEMB     39       DOPC     H4Y      HAL2     0.900000E-01   1.00800           0
      5842 MEMB     39       DOPC     C35      CTL2    -0.180000       12.0110           0
      5843 MEMB     39       DOPC     H5X      HAL2     0.900000E-01   1.00800           0
      5844 MEMB     39       DOPC     H5Y      HAL2     0.900000E-01   1.00800           0
      5845 MEMB     39       DOPC     C36      CTL2    -0.180000       12.0110           0
      5846 MEMB     39       DOPC     H6X      HAL2     0.900000E-01   1.00800           0
      5847 MEMB     39       DOPC     H6Y      HAL2     0.900000E-01   1.00800           0
      5848 MEMB     39       DOPC     C37      CTL2    -0.180000       12.0110           0
      5849 MEMB     39       DOPC     H7X      HAL2     0.900000E-01   1.00800           0
      5850 MEMB     39       DOPC     H7Y      HAL2     0.900000E-01   1.00800           0
      5851 MEMB     39       DOPC     C38      CTL2    -0.180000       12.0110           0
      5852 MEMB     39       DOPC     H8X      HAL2     0.900000E-01   1.00800           0
      5853 MEMB     39       DOPC     H8Y      HAL2     0.900000E-01   1.00800           0
      5854 MEMB     39       DOPC     C39      CEL1    -0.150000       12.0110           0
      5855 MEMB     39       DOPC     H9X      HEL1     0.150000       1.00800           0
      5856 MEMB     39       DOPC     C310     CEL1    -0.150000       12.0110           0
      5857 MEMB     39       DOPC     H10X     HEL1     0.150000       1.00800           0
      5858 MEMB     39       DOPC     C311     CTL2    -0.180000       12.0110           0
      5859 MEMB     39       DOPC     H11X     HAL2     0.900000E-01   1.00800           0
      5860 MEMB     39       DOPC     H11Y     HAL2     0.900000E-01   1.00800           0
      5861 MEMB     39       DOPC     C312     CTL2    -0.180000       12.0110           0
      5862 MEMB     39       DOPC     H12X     HAL2     0.900000E-01   1.00800           0
      5863 MEMB     39       DOPC     H12Y     HAL2     0.900000E-01   1.00800           0
      5864 MEMB     39       DOPC     C313     CTL2    -0.180000       12.0110           0
      5865 MEMB     39       DOPC     H13X     HAL2     0.900000E-01   1.00800           0
      5866 MEMB     39       DOPC     H13Y     HAL2     0.900000E-01   1.00800           0
      5867 MEMB     39       DOPC     C314     CTL2    -0.180000       12.0110           0
      5868 MEMB     39       DOPC     H14X     HAL2     0.900000E-01   1.00800           0
      5869 MEMB     39       DOPC     H14Y     HAL2     0.900000E-01   1.00800           0
      5870 MEMB     39       DOPC     C315     CTL2    -0.180000       12.0110           0
      5871 MEMB     39       DOPC     H15X     HAL2     0.900000E-01   1.00800           0
      5872 MEMB     39       DOPC     H15Y     HAL2     0.900000E-01   1.00800           0
      5873 MEMB     39       DOPC     C316     CTL2    -0.180000       12.0110           0
      5874 MEMB     39       DOPC     H16X     HAL2     0.900000E-01   1.00800           0
      5875 MEMB     39       DOPC     H16Y     HAL2     0.900000E-01   1.00800           0
      5876 MEMB     39       DOPC     C317     CTL2    -0.180000       12.0110           0
      5877 MEMB     39       DOPC     H17X     HAL2     0.900000E-01   1.00800           0
      5878 MEMB     39       DOPC     H17Y     HAL2     0.900000E-01   1.00800           0
      5879 MEMB     39       DOPC     C318     CTL3    -0.270000       12.0110           0
      5880 MEMB     39       DOPC     H18X     HAL3     0.900000E-01   1.00800           0
      5881 MEMB     39       DOPC     H18Y     HAL3     0.900000E-01   1.00800           0
      5882 MEMB     39       DOPC     H18Z     HAL3     0.900000E-01   1.00800           0
      5883 MEMB     40       DOPC     N        NTL     -0.600000       14.0070           0
      5884 MEMB     40       DOPC     C12      CTL2    -0.100000       12.0110           0
      5885 MEMB     40       DOPC     H12A     HL       0.250000       1.00800           0
      5886 MEMB     40       DOPC     H12B     HL       0.250000       1.00800           0
      5887 MEMB     40       DOPC     C13      CTL5    -0.350000       12.0110           0
      5888 MEMB     40       DOPC     H13A     HL       0.250000       1.00800           0
      5889 MEMB     40       DOPC     H13B     HL       0.250000       1.00800           0
      5890 MEMB     40       DOPC     H13C     HL       0.250000       1.00800           0
      5891 MEMB     40       DOPC     C14      CTL5    -0.350000       12.0110           0
      5892 MEMB     40       DOPC     H14A     HL       0.250000       1.00800           0
      5893 MEMB     40       DOPC     H14B     HL       0.250000       1.00800           0
      5894 MEMB     40       DOPC     H14C     HL       0.250000       1.00800           0
      5895 MEMB     40       DOPC     C15      CTL5    -0.350000       12.0110           0
      5896 MEMB     40       DOPC     H15A     HL       0.250000       1.00800           0
      5897 MEMB     40       DOPC     H15B     HL       0.250000       1.00800           0
      5898 MEMB     40       DOPC     H15C     HL       0.250000       1.00800           0
      5899 MEMB     40       DOPC     C11      CTL2    -0.800000E-01   12.0110           0
      5900 MEMB     40       DOPC     H11A     HAL2     0.900000E-01   1.00800           0
      5901 MEMB     40       DOPC     H11B     HAL2     0.900000E-01   1.00800           0
      5902 MEMB     40       DOPC     P        PL        1.50000       30.9740           0
      5903 MEMB     40       DOPC     O13      O2L     -0.780000       15.9994           0
      5904 MEMB     40       DOPC     O14      O2L     -0.780000       15.9994           0
      5905 MEMB     40       DOPC     O12      OSLP    -0.570000       15.9994           0
      5906 MEMB     40       DOPC     O11      OSLP    -0.570000       15.9994           0
      5907 MEMB     40       DOPC     C1       CTL2    -0.800000E-01   12.0110           0
      5908 MEMB     40       DOPC     HA       HAL2     0.900000E-01   1.00800           0
      5909 MEMB     40       DOPC     HB       HAL2     0.900000E-01   1.00800           0
      5910 MEMB     40       DOPC     C2       CTL1     0.170000       12.0110           0
      5911 MEMB     40       DOPC     HS       HAL1     0.900000E-01   1.00800           0
      5912 MEMB     40       DOPC     O21      OSL     -0.490000       15.9994           0
      5913 MEMB     40       DOPC     C21      CL       0.900000       12.0110           0
      5914 MEMB     40       DOPC     O22      OBL     -0.630000       15.9994           0
      5915 MEMB     40       DOPC     C22      CTL2    -0.220000       12.0110           0
      5916 MEMB     40       DOPC     H2R      HAL2     0.900000E-01   1.00800           0
      5917 MEMB     40       DOPC     H2S      HAL2     0.900000E-01   1.00800           0
      5918 MEMB     40       DOPC     C3       CTL2     0.800000E-01   12.0110           0
      5919 MEMB     40       DOPC     HX       HAL2     0.900000E-01   1.00800           0
      5920 MEMB     40       DOPC     HY       HAL2     0.900000E-01   1.00800           0
      5921 MEMB     40       DOPC     O31      OSL     -0.490000       15.9994           0
      5922 MEMB     40       DOPC     C31      CL       0.900000       12.0110           0
      5923 MEMB     40       DOPC     O32      OBL     -0.630000       15.9994           0
      5924 MEMB     40       DOPC     C32      CTL2    -0.220000       12.0110           0
      5925 MEMB     40       DOPC     H2X      HAL2     0.900000E-01   1.00800           0
      5926 MEMB     40       DOPC     H2Y      HAL2     0.900000E-01   1.00800           0
      5927 MEMB     40       DOPC     C23      CTL2    -0.180000       12.0110           0
      5928 MEMB     40       DOPC     H3R      HAL2     0.900000E-01   1.00800           0
      5929 MEMB     40       DOPC     H3S      HAL2     0.900000E-01   1.00800           0
      5930 MEMB     40       DOPC     C24      CTL2    -0.180000       12.0110           0
      5931 MEMB     40       DOPC     H4R      HAL2     0.900000E-01   1.00800           0
      5932 MEMB     40       DOPC     H4S      HAL2     0.900000E-01   1.00800           0
      5933 MEMB     40       DOPC     C25      CTL2    -0.180000       12.0110           0
      5934 MEMB     40       DOPC     H5R      HAL2     0.900000E-01   1.00800           0
      5935 MEMB     40       DOPC     H5S      HAL2     0.900000E-01   1.00800           0
      5936 MEMB     40       DOPC     C26      CTL2    -0.180000       12.0110           0
      5937 MEMB     40       DOPC     H6R      HAL2     0.900000E-01   1.00800           0
      5938 MEMB     40       DOPC     H6S      HAL2     0.900000E-01   1.00800           0
      5939 MEMB     40       DOPC     C27      CTL2    -0.180000       12.0110           0
      5940 MEMB     40       DOPC     H7R      HAL2     0.900000E-01   1.00800           0
      5941 MEMB     40       DOPC     H7S      HAL2     0.900000E-01   1.00800           0
      5942 MEMB     40       DOPC     C28      CTL2    -0.180000       12.0110           0
      5943 MEMB     40       DOPC     H8R      HAL2     0.900000E-01   1.00800           0
      5944 MEMB     40       DOPC     H8S      HAL2     0.900000E-01   1.00800           0
      5945 MEMB     40       DOPC     C29      CEL1    -0.150000       12.0110           0
      5946 MEMB     40       DOPC     H9R      HEL1     0.150000       1.00800           0
      5947 MEMB     40       DOPC     C210     CEL1    -0.150000       12.0110           0
      5948 MEMB     40       DOPC     H10R     HEL1     0.150000       1.00800           0
      5949 MEMB     40       DOPC     C211     CTL2    -0.180000       12.0110           0
      5950 MEMB     40       DOPC     H11R     HAL2     0.900000E-01   1.00800           0
      5951 MEMB     40       DOPC     H11S     HAL2     0.900000E-01   1.00800           0
      5952 MEMB     40       DOPC     C212     CTL2    -0.180000       12.0110           0
      5953 MEMB     40       DOPC     H12R     HAL2     0.900000E-01   1.00800           0
      5954 MEMB     40       DOPC     H12S     HAL2     0.900000E-01   1.00800           0
      5955 MEMB     40       DOPC     C213     CTL2    -0.180000       12.0110           0
      5956 MEMB     40       DOPC     H13R     HAL2     0.900000E-01   1.00800           0
      5957 MEMB     40       DOPC     H13S     HAL2     0.900000E-01   1.00800           0
      5958 MEMB     40       DOPC     C214     CTL2    -0.180000       12.0110           0
      5959 MEMB     40       DOPC     H14R     HAL2     0.900000E-01   1.00800           0
      5960 MEMB     40       DOPC     H14S     HAL2     0.900000E-01   1.00800           0
      5961 MEMB     40       DOPC     C215     CTL2    -0.180000       12.0110           0
      5962 MEMB     40       DOPC     H15R     HAL2     0.900000E-01   1.00800           0
      5963 MEMB     40       DOPC     H15S     HAL2     0.900000E-01   1.00800           0
      5964 MEMB     40       DOPC     C216     CTL2    -0.180000       12.0110           0
      5965 MEMB     40       DOPC     H16R     HAL2     0.900000E-01   1.00800           0
      5966 MEMB     40       DOPC     H16S     HAL2     0.900000E-01   1.00800           0
      5967 MEMB     40       DOPC     C217     CTL2    -0.180000       12.0110           0
      5968 MEMB     40       DOPC     H17R     HAL2     0.900000E-01   1.00800           0
      5969 MEMB     40       DOPC     H17S     HAL2     0.900000E-01   1.00800           0
      5970 MEMB     40       DOPC     C218     CTL3    -0.270000       12.0110           0
      5971 MEMB     40       DOPC     H18R     HAL3     0.900000E-01   1.00800           0
      5972 MEMB     40       DOPC     H18S     HAL3     0.900000E-01   1.00800           0
      5973 MEMB     40       DOPC     H18T     HAL3     0.900000E-01   1.00800           0
      5974 MEMB     40       DOPC     C33      CTL2    -0.180000       12.0110           0
      5975 MEMB     40       DOPC     H3X      HAL2     0.900000E-01   1.00800           0
      5976 MEMB     40       DOPC     H3Y      HAL2     0.900000E-01   1.00800           0
      5977 MEMB     40       DOPC     C34      CTL2    -0.180000       12.0110           0
      5978 MEMB     40       DOPC     H4X      HAL2     0.900000E-01   1.00800           0
      5979 MEMB     40       DOPC     H4Y      HAL2     0.900000E-01   1.00800           0
      5980 MEMB     40       DOPC     C35      CTL2    -0.180000       12.0110           0
      5981 MEMB     40       DOPC     H5X      HAL2     0.900000E-01   1.00800           0
      5982 MEMB     40       DOPC     H5Y      HAL2     0.900000E-01   1.00800           0
      5983 MEMB     40       DOPC     C36      CTL2    -0.180000       12.0110           0
      5984 MEMB     40       DOPC     H6X      HAL2     0.900000E-01   1.00800           0
      5985 MEMB     40       DOPC     H6Y      HAL2     0.900000E-01   1.00800           0
      5986 MEMB     40       DOPC     C37      CTL2    -0.180000       12.0110           0
      5987 MEMB     40       DOPC     H7X      HAL2     0.900000E-01   1.00800           0
      5988 MEMB     40       DOPC     H7Y      HAL2     0.900000E-01   1.00800           0
      5989 MEMB     40       DOPC     C38      CTL2    -0.180000       12.0110           0
      5990 MEMB     40       DOPC     H8X      HAL2     0.900000E-01   1.00800           0
      5991 MEMB     40       DOPC     H8Y      HAL2     0.900000E-01   1.00800           0
      5992 MEMB     40       DOPC     C39      CEL1    -0.150000       12.0110           0
      5993 MEMB     40       DOPC     H9X      HEL1     0.150000       1.00800           0
      5994 MEMB     40       DOPC     C310     CEL1    -0.150000       12.0110           0
      5995 MEMB     40       DOPC     H10X     HEL1     0.150000       1.00800           0
      5996 MEMB     40       DOPC     C311     CTL2    -0.180000       12.0110           0
      5997 MEMB     40       DOPC     H11X     HAL2     0.900000E-01   1.00800           0
      5998 MEMB     40       DOPC     H11Y     HAL2     0.900000E-01   1.00800           0
      5999 MEMB     40       DOPC     C312     CTL2    -0.180000       12.0110           0
      6000 MEMB     40       DOPC     H12X     HAL2     0.900000E-01   1.00800           0
      6001 MEMB     40       DOPC     H12Y     HAL2     0.900000E-01   1.00800           0
      6002 MEMB     40       DOPC     C313     CTL2    -0.180000       12.0110           0
      6003 MEMB     40       DOPC     H13X     HAL2     0.900000E-01   1.00800           0
      6004 MEMB     40       DOPC     H13Y     HAL2     0.900000E-01   1.00800           0
      6005 MEMB     40       DOPC     C314     CTL2    -0.180000       12.0110           0
      6006 MEMB     40       DOPC     H14X     HAL2     0.900000E-01   1.00800           0
      6007 MEMB     40       DOPC     H14Y     HAL2     0.900000E-01   1.00800           0
      6008 MEMB     40       DOPC     C315     CTL2    -0.180000       12.0110           0
      6009 MEMB     40       DOPC     H15X     HAL2     0.900000E-01   1.00800           0
      6010 MEMB     40       DOPC     H15Y     HAL2     0.900000E-01   1.00800           0
      6011 MEMB     40       DOPC     C316     CTL2    -0.180000       12.0110           0
      6012 MEMB     40       DOPC     H16X     HAL2     0.900000E-01   1.00800           0
      6013 MEMB     40       DOPC     H16Y     HAL2     0.900000E-01   1.00800           0
      6014 MEMB     40       DOPC     C317     CTL2    -0.180000       12.0110           0
      6015 MEMB     40       DOPC     H17X     HAL2     0.900000E-01   1.00800           0
      6016 MEMB     40       DOPC     H17Y     HAL2     0.900000E-01   1.00800           0
      6017 MEMB     40       DOPC     C318     CTL3    -0.270000       12.0110           0
      6018 MEMB     40       DOPC     H18X     HAL3     0.900000E-01   1.00800           0
      6019 MEMB     40       DOPC     H18Y     HAL3     0.900000E-01   1.00800           0
      6020 MEMB     40       DOPC     H18Z     HAL3     0.900000E-01   1.00800           0
      6021 MEMB     41       DOPC     N        NTL     -0.600000       14.0070           0
      6022 MEMB     41       DOPC     C12      CTL2    -0.100000       12.0110           0
      6023 MEMB     41       DOPC     H12A     HL       0.250000       1.00800           0
      6024 MEMB     41       DOPC     H12B     HL       0.250000       1.00800           0
      6025 MEMB     41       DOPC     C13      CTL5    -0.350000       12.0110           0
      6026 MEMB     41       DOPC     H13A     HL       0.250000       1.00800           0
      6027 MEMB     41       DOPC     H13B     HL       0.250000       1.00800           0
      6028 MEMB     41       DOPC     H13C     HL       0.250000       1.00800           0
      6029 MEMB     41       DOPC     C14      CTL5    -0.350000       12.0110           0
      6030 MEMB     41       DOPC     H14A     HL       0.250000       1.00800           0
      6031 MEMB     41       DOPC     H14B     HL       0.250000       1.00800           0
      6032 MEMB     41       DOPC     H14C     HL       0.250000       1.00800           0
      6033 MEMB     41       DOPC     C15      CTL5    -0.350000       12.0110           0
      6034 MEMB     41       DOPC     H15A     HL       0.250000       1.00800           0
      6035 MEMB     41       DOPC     H15B     HL       0.250000       1.00800           0
      6036 MEMB     41       DOPC     H15C     HL       0.250000       1.00800           0
      6037 MEMB     41       DOPC     C11      CTL2    -0.800000E-01   12.0110           0
      6038 MEMB     41       DOPC     H11A     HAL2     0.900000E-01   1.00800           0
      6039 MEMB     41       DOPC     H11B     HAL2     0.900000E-01   1.00800           0
      6040 MEMB     41       DOPC     P        PL        1.50000       30.9740           0
      6041 MEMB     41       DOPC     O13      O2L     -0.780000       15.9994           0
      6042 MEMB     41       DOPC     O14      O2L     -0.780000       15.9994           0
      6043 MEMB     41       DOPC     O12      OSLP    -0.570000       15.9994           0
      6044 MEMB     41       DOPC     O11      OSLP    -0.570000       15.9994           0
      6045 MEMB     41       DOPC     C1       CTL2    -0.800000E-01   12.0110           0
      6046 MEMB     41       DOPC     HA       HAL2     0.900000E-01   1.00800           0
      6047 MEMB     41       DOPC     HB       HAL2     0.900000E-01   1.00800           0
      6048 MEMB     41       DOPC     C2       CTL1     0.170000       12.0110           0
      6049 MEMB     41       DOPC     HS       HAL1     0.900000E-01   1.00800           0
      6050 MEMB     41       DOPC     O21      OSL     -0.490000       15.9994           0
      6051 MEMB     41       DOPC     C21      CL       0.900000       12.0110           0
      6052 MEMB     41       DOPC     O22      OBL     -0.630000       15.9994           0
      6053 MEMB     41       DOPC     C22      CTL2    -0.220000       12.0110           0
      6054 MEMB     41       DOPC     H2R      HAL2     0.900000E-01   1.00800           0
      6055 MEMB     41       DOPC     H2S      HAL2     0.900000E-01   1.00800           0
      6056 MEMB     41       DOPC     C3       CTL2     0.800000E-01   12.0110           0
      6057 MEMB     41       DOPC     HX       HAL2     0.900000E-01   1.00800           0
      6058 MEMB     41       DOPC     HY       HAL2     0.900000E-01   1.00800           0
      6059 MEMB     41       DOPC     O31      OSL     -0.490000       15.9994           0
      6060 MEMB     41       DOPC     C31      CL       0.900000       12.0110           0
      6061 MEMB     41       DOPC     O32      OBL     -0.630000       15.9994           0
      6062 MEMB     41       DOPC     C32      CTL2    -0.220000       12.0110           0
      6063 MEMB     41       DOPC     H2X      HAL2     0.900000E-01   1.00800           0
      6064 MEMB     41       DOPC     H2Y      HAL2     0.900000E-01   1.00800           0
      6065 MEMB     41       DOPC     C23      CTL2    -0.180000       12.0110           0
      6066 MEMB     41       DOPC     H3R      HAL2     0.900000E-01   1.00800           0
      6067 MEMB     41       DOPC     H3S      HAL2     0.900000E-01   1.00800           0
      6068 MEMB     41       DOPC     C24      CTL2    -0.180000       12.0110           0
      6069 MEMB     41       DOPC     H4R      HAL2     0.900000E-01   1.00800           0
      6070 MEMB     41       DOPC     H4S      HAL2     0.900000E-01   1.00800           0
      6071 MEMB     41       DOPC     C25      CTL2    -0.180000       12.0110           0
      6072 MEMB     41       DOPC     H5R      HAL2     0.900000E-01   1.00800           0
      6073 MEMB     41       DOPC     H5S      HAL2     0.900000E-01   1.00800           0
      6074 MEMB     41       DOPC     C26      CTL2    -0.180000       12.0110           0
      6075 MEMB     41       DOPC     H6R      HAL2     0.900000E-01   1.00800           0
      6076 MEMB     41       DOPC     H6S      HAL2     0.900000E-01   1.00800           0
      6077 MEMB     41       DOPC     C27      CTL2    -0.180000       12.0110           0
      6078 MEMB     41       DOPC     H7R      HAL2     0.900000E-01   1.00800           0
      6079 MEMB     41       DOPC     H7S      HAL2     0.900000E-01   1.00800           0
      6080 MEMB     41       DOPC     C28      CTL2    -0.180000       12.0110           0
      6081 MEMB     41       DOPC     H8R      HAL2     0.900000E-01   1.00800           0
      6082 MEMB     41       DOPC     H8S      HAL2     0.900000E-01   1.00800           0
      6083 MEMB     41       DOPC     C29      CEL1    -0.150000       12.0110           0
      6084 MEMB     41       DOPC     H9R      HEL1     0.150000       1.00800           0
      6085 MEMB     41       DOPC     C210     CEL1    -0.150000       12.0110           0
      6086 MEMB     41       DOPC     H10R     HEL1     0.150000       1.00800           0
      6087 MEMB     41       DOPC     C211     CTL2    -0.180000       12.0110           0
      6088 MEMB     41       DOPC     H11R     HAL2     0.900000E-01   1.00800           0
      6089 MEMB     41       DOPC     H11S     HAL2     0.900000E-01   1.00800           0
      6090 MEMB     41       DOPC     C212     CTL2    -0.180000       12.0110           0
      6091 MEMB     41       DOPC     H12R     HAL2     0.900000E-01   1.00800           0
      6092 MEMB     41       DOPC     H12S     HAL2     0.900000E-01   1.00800           0
      6093 MEMB     41       DOPC     C213     CTL2    -0.180000       12.0110           0
      6094 MEMB     41       DOPC     H13R     HAL2     0.900000E-01   1.00800           0
      6095 MEMB     41       DOPC     H13S     HAL2     0.900000E-01   1.00800           0
      6096 MEMB     41       DOPC     C214     CTL2    -0.180000       12.0110           0
      6097 MEMB     41       DOPC     H14R     HAL2     0.900000E-01   1.00800           0
      6098 MEMB     41       DOPC     H14S     HAL2     0.900000E-01   1.00800           0
      6099 MEMB     41       DOPC     C215     CTL2    -0.180000       12.0110           0
      6100 MEMB     41       DOPC     H15R     HAL2     0.900000E-01   1.00800           0
      6101 MEMB     41       DOPC     H15S     HAL2     0.900000E-01   1.00800           0
      6102 MEMB     41       DOPC     C216     CTL2    -0.180000       12.0110           0
      6103 MEMB     41       DOPC     H16R     HAL2     0.900000E-01   1.00800           0
      6104 MEMB     41       DOPC     H16S     HAL2     0.900000E-01   1.00800           0
      6105 MEMB     41       DOPC     C217     CTL2    -0.180000       12.0110           0
      6106 MEMB     41       DOPC     H17R     HAL2     0.900000E-01   1.00800           0
      6107 MEMB     41       DOPC     H17S     HAL2     0.900000E-01   1.00800           0
      6108 MEMB     41       DOPC     C218     CTL3    -0.270000       12.0110           0
      6109 MEMB     41       DOPC     H18R     HAL3     0.900000E-01   1.00800           0
      6110 MEMB     41       DOPC     H18S     HAL3     0.900000E-01   1.00800           0
      6111 MEMB     41       DOPC     H18T     HAL3     0.900000E-01   1.00800           0
      6112 MEMB     41       DOPC     C33      CTL2    -0.180000       12.0110           0
      6113 MEMB     41       DOPC     H3X      HAL2     0.900000E-01   1.00800           0
      6114 MEMB     41       DOPC     H3Y      HAL2     0.900000E-01   1.00800           0
      6115 MEMB     41       DOPC     C34      CTL2    -0.180000       12.0110           0
      6116 MEMB     41       DOPC     H4X      HAL2     0.900000E-01   1.00800           0
      6117 MEMB     41       DOPC     H4Y      HAL2     0.900000E-01   1.00800           0
      6118 MEMB     41       DOPC     C35      CTL2    -0.180000       12.0110           0
      6119 MEMB     41       DOPC     H5X      HAL2     0.900000E-01   1.00800           0
      6120 MEMB     41       DOPC     H5Y      HAL2     0.900000E-01   1.00800           0
      6121 MEMB     41       DOPC     C36      CTL2    -0.180000       12.0110           0
      6122 MEMB     41       DOPC     H6X      HAL2     0.900000E-01   1.00800           0
      6123 MEMB     41       DOPC     H6Y      HAL2     0.900000E-01   1.00800           0
      6124 MEMB     41       DOPC     C37      CTL2    -0.180000       12.0110           0
      6125 MEMB     41       DOPC     H7X      HAL2     0.900000E-01   1.00800           0
      6126 MEMB     41       DOPC     H7Y      HAL2     0.900000E-01   1.00800           0
      6127 MEMB     41       DOPC     C38      CTL2    -0.180000       12.0110           0
      6128 MEMB     41       DOPC     H8X      HAL2     0.900000E-01   1.00800           0
      6129 MEMB     41       DOPC     H8Y      HAL2     0.900000E-01   1.00800           0
      6130 MEMB     41       DOPC     C39      CEL1    -0.150000       12.0110           0
      6131 MEMB     41       DOPC     H9X      HEL1     0.150000       1.00800           0
      6132 MEMB     41       DOPC     C310     CEL1    -0.150000       12.0110           0
      6133 MEMB     41       DOPC     H10X     HEL1     0.150000       1.00800           0
      6134 MEMB     41       DOPC     C311     CTL2    -0.180000       12.0110           0
      6135 MEMB     41       DOPC     H11X     HAL2     0.900000E-01   1.00800           0
      6136 MEMB     41       DOPC     H11Y     HAL2     0.900000E-01   1.00800           0
      6137 MEMB     41       DOPC     C312     CTL2    -0.180000       12.0110           0
      6138 MEMB     41       DOPC     H12X     HAL2     0.900000E-01   1.00800           0
      6139 MEMB     41       DOPC     H12Y     HAL2     0.900000E-01   1.00800           0
      6140 MEMB     41       DOPC     C313     CTL2    -0.180000       12.0110           0
      6141 MEMB     41       DOPC     H13X     HAL2     0.900000E-01   1.00800           0
      6142 MEMB     41       DOPC     H13Y     HAL2     0.900000E-01   1.00800           0
      6143 MEMB     41       DOPC     C314     CTL2    -0.180000       12.0110           0
      6144 MEMB     41       DOPC     H14X     HAL2     0.900000E-01   1.00800           0
      6145 MEMB     41       DOPC     H14Y     HAL2     0.900000E-01   1.00800           0
      6146 MEMB     41       DOPC     C315     CTL2    -0.180000       12.0110           0
      6147 MEMB     41       DOPC     H15X     HAL2     0.900000E-01   1.00800           0
      6148 MEMB     41       DOPC     H15Y     HAL2     0.900000E-01   1.00800           0
      6149 MEMB     41       DOPC     C316     CTL2    -0.180000       12.0110           0
      6150 MEMB     41       DOPC     H16X     HAL2     0.900000E-01   1.00800           0
      6151 MEMB     41       DOPC     H16Y     HAL2     0.900000E-01   1.00800           0
      6152 MEMB     41       DOPC     C317     CTL2    -0.180000       12.0110           0
      6153 MEMB     41       DOPC     H17X     HAL2     0.900000E-01   1.00800           0
      6154 MEMB     41       DOPC     H17Y     HAL2     0.900000E-01   1.00800           0
      6155 MEMB     41       DOPC     C318     CTL3    -0.270000       12.0110           0
      6156 MEMB     41       DOPC     H18X     HAL3     0.900000E-01   1.00800           0
      6157 MEMB     41       DOPC     H18Y     HAL3     0.900000E-01   1.00800           0
      6158 MEMB     41       DOPC     H18Z     HAL3     0.900000E-01   1.00800           0
      6159 MEMB     42       DOPC     N        NTL     -0.600000       14.0070           0
      6160 MEMB     42       DOPC     C12      CTL2    -0.100000       12.0110           0
      6161 MEMB     42       DOPC     H12A     HL       0.250000       1.00800           0
      6162 MEMB     42       DOPC     H12B     HL       0.250000       1.00800           0
      6163 MEMB     42       DOPC     C13      CTL5    -0.350000       12.0110           0
      6164 MEMB     42       DOPC     H13A     HL       0.250000       1.00800           0
      6165 MEMB     42       DOPC     H13B     HL       0.250000       1.00800           0
      6166 MEMB     42       DOPC     H13C     HL       0.250000       1.00800           0
      6167 MEMB     42       DOPC     C14      CTL5    -0.350000       12.0110           0
      6168 MEMB     42       DOPC     H14A     HL       0.250000       1.00800           0
      6169 MEMB     42       DOPC     H14B     HL       0.250000       1.00800           0
      6170 MEMB     42       DOPC     H14C     HL       0.250000       1.00800           0
      6171 MEMB     42       DOPC     C15      CTL5    -0.350000       12.0110           0
      6172 MEMB     42       DOPC     H15A     HL       0.250000       1.00800           0
      6173 MEMB     42       DOPC     H15B     HL       0.250000       1.00800           0
      6174 MEMB     42       DOPC     H15C     HL       0.250000       1.00800           0
      6175 MEMB     42       DOPC     C11      CTL2    -0.800000E-01   12.0110           0
      6176 MEMB     42       DOPC     H11A     HAL2     0.900000E-01   1.00800           0
      6177 MEMB     42       DOPC     H11B     HAL2     0.900000E-01   1.00800           0
      6178 MEMB     42       DOPC     P        PL        1.50000       30.9740           0
      6179 MEMB     42       DOPC     O13      O2L     -0.780000       15.9994           0
      6180 MEMB     42       DOPC     O14      O2L     -0.780000       15.9994           0
      6181 MEMB     42       DOPC     O12      OSLP    -0.570000       15.9994           0
      6182 MEMB     42       DOPC     O11      OSLP    -0.570000       15.9994           0
      6183 MEMB     42       DOPC     C1       CTL2    -0.800000E-01   12.0110           0
      6184 MEMB     42       DOPC     HA       HAL2     0.900000E-01   1.00800           0
      6185 MEMB     42       DOPC     HB       HAL2     0.900000E-01   1.00800           0
      6186 MEMB     42       DOPC     C2       CTL1     0.170000       12.0110           0
      6187 MEMB     42       DOPC     HS       HAL1     0.900000E-01   1.00800           0
      6188 MEMB     42       DOPC     O21      OSL     -0.490000       15.9994           0
      6189 MEMB     42       DOPC     C21      CL       0.900000       12.0110           0
      6190 MEMB     42       DOPC     O22      OBL     -0.630000       15.9994           0
      6191 MEMB     42       DOPC     C22      CTL2    -0.220000       12.0110           0
      6192 MEMB     42       DOPC     H2R      HAL2     0.900000E-01   1.00800           0
      6193 MEMB     42       DOPC     H2S      HAL2     0.900000E-01   1.00800           0
      6194 MEMB     42       DOPC     C3       CTL2     0.800000E-01   12.0110           0
      6195 MEMB     42       DOPC     HX       HAL2     0.900000E-01   1.00800           0
      6196 MEMB     42       DOPC     HY       HAL2     0.900000E-01   1.00800           0
      6197 MEMB     42       DOPC     O31      OSL     -0.490000       15.9994           0
      6198 MEMB     42       DOPC     C31      CL       0.900000       12.0110           0
      6199 MEMB     42       DOPC     O32      OBL     -0.630000       15.9994           0
      6200 MEMB     42       DOPC     C32      CTL2    -0.220000       12.0110           0
      6201 MEMB     42       DOPC     H2X      HAL2     0.900000E-01   1.00800           0
      6202 MEMB     42       DOPC     H2Y      HAL2     0.900000E-01   1.00800           0
      6203 MEMB     42       DOPC     C23      CTL2    -0.180000       12.0110           0
      6204 MEMB     42       DOPC     H3R      HAL2     0.900000E-01   1.00800           0
      6205 MEMB     42       DOPC     H3S      HAL2     0.900000E-01   1.00800           0
      6206 MEMB     42       DOPC     C24      CTL2    -0.180000       12.0110           0
      6207 MEMB     42       DOPC     H4R      HAL2     0.900000E-01   1.00800           0
      6208 MEMB     42       DOPC     H4S      HAL2     0.900000E-01   1.00800           0
      6209 MEMB     42       DOPC     C25      CTL2    -0.180000       12.0110           0
      6210 MEMB     42       DOPC     H5R      HAL2     0.900000E-01   1.00800           0
      6211 MEMB     42       DOPC     H5S      HAL2     0.900000E-01   1.00800           0
      6212 MEMB     42       DOPC     C26      CTL2    -0.180000       12.0110           0
      6213 MEMB     42       DOPC     H6R      HAL2     0.900000E-01   1.00800           0
      6214 MEMB     42       DOPC     H6S      HAL2     0.900000E-01   1.00800           0
      6215 MEMB     42       DOPC     C27      CTL2    -0.180000       12.0110           0
      6216 MEMB     42       DOPC     H7R      HAL2     0.900000E-01   1.00800           0
      6217 MEMB     42       DOPC     H7S      HAL2     0.900000E-01   1.00800           0
      6218 MEMB     42       DOPC     C28      CTL2    -0.180000       12.0110           0
      6219 MEMB     42       DOPC     H8R      HAL2     0.900000E-01   1.00800           0
      6220 MEMB     42       DOPC     H8S      HAL2     0.900000E-01   1.00800           0
      6221 MEMB     42       DOPC     C29      CEL1    -0.150000       12.0110           0
      6222 MEMB     42       DOPC     H9R      HEL1     0.150000       1.00800           0
      6223 MEMB     42       DOPC     C210     CEL1    -0.150000       12.0110           0
      6224 MEMB     42       DOPC     H10R     HEL1     0.150000       1.00800           0
      6225 MEMB     42       DOPC     C211     CTL2    -0.180000       12.0110           0
      6226 MEMB     42       DOPC     H11R     HAL2     0.900000E-01   1.00800           0
      6227 MEMB     42       DOPC     H11S     HAL2     0.900000E-01   1.00800           0
      6228 MEMB     42       DOPC     C212     CTL2    -0.180000       12.0110           0
      6229 MEMB     42       DOPC     H12R     HAL2     0.900000E-01   1.00800           0
      6230 MEMB     42       DOPC     H12S     HAL2     0.900000E-01   1.00800           0
      6231 MEMB     42       DOPC     C213     CTL2    -0.180000       12.0110           0
      6232 MEMB     42       DOPC     H13R     HAL2     0.900000E-01   1.00800           0
      6233 MEMB     42       DOPC     H13S     HAL2     0.900000E-01   1.00800           0
      6234 MEMB     42       DOPC     C214     CTL2    -0.180000       12.0110           0
      6235 MEMB     42       DOPC     H14R     HAL2     0.900000E-01   1.00800           0
      6236 MEMB     42       DOPC     H14S     HAL2     0.900000E-01   1.00800           0
      6237 MEMB     42       DOPC     C215     CTL2    -0.180000       12.0110           0
      6238 MEMB     42       DOPC     H15R     HAL2     0.900000E-01   1.00800           0
      6239 MEMB     42       DOPC     H15S     HAL2     0.900000E-01   1.00800           0
      6240 MEMB     42       DOPC     C216     CTL2    -0.180000       12.0110           0
      6241 MEMB     42       DOPC     H16R     HAL2     0.900000E-01   1.00800           0
      6242 MEMB     42       DOPC     H16S     HAL2     0.900000E-01   1.00800           0
      6243 MEMB     42       DOPC     C217     CTL2    -0.180000       12.0110           0
      6244 MEMB     42       DOPC     H17R     HAL2     0.900000E-01   1.00800           0
      6245 MEMB     42       DOPC     H17S     HAL2     0.900000E-01   1.00800           0
      6246 MEMB     42       DOPC     C218     CTL3    -0.270000       12.0110           0
      6247 MEMB     42       DOPC     H18R     HAL3     0.900000E-01   1.00800           0
      6248 MEMB     42       DOPC     H18S     HAL3     0.900000E-01   1.00800           0
      6249 MEMB     42       DOPC     H18T     HAL3     0.900000E-01   1.00800           0
      6250 MEMB     42       DOPC     C33      CTL2    -0.180000       12.0110           0
      6251 MEMB     42       DOPC     H3X      HAL2     0.900000E-01   1.00800           0
      6252 MEMB     42       DOPC     H3Y      HAL2     0.900000E-01   1.00800           0
      6253 MEMB     42       DOPC     C34      CTL2    -0.180000       12.0110           0
      6254 MEMB     42       DOPC     H4X      HAL2     0.900000E-01   1.00800           0
      6255 MEMB     42       DOPC     H4Y      HAL2     0.900000E-01   1.00800           0
      6256 MEMB     42       DOPC     C35      CTL2    -0.180000       12.0110           0
      6257 MEMB     42       DOPC     H5X      HAL2     0.900000E-01   1.00800           0
      6258 MEMB     42       DOPC     H5Y      HAL2     0.900000E-01   1.00800           0
      6259 MEMB     42       DOPC     C36      CTL2    -0.180000       12.0110           0
      6260 MEMB     42       DOPC     H6X      HAL2     0.900000E-01   1.00800           0
      6261 MEMB     42       DOPC     H6Y      HAL2     0.900000E-01   1.00800           0
      6262 MEMB     42       DOPC     C37      CTL2    -0.180000       12.0110           0
      6263 MEMB     42       DOPC     H7X      HAL2     0.900000E-01   1.00800           0
      6264 MEMB     42       DOPC     H7Y      HAL2     0.900000E-01   1.00800           0
      6265 MEMB     42       DOPC     C38      CTL2    -0.180000       12.0110           0
      6266 MEMB     42       DOPC     H8X      HAL2     0.900000E-01   1.00800           0
      6267 MEMB     42       DOPC     H8Y      HAL2     0.900000E-01   1.00800           0
      6268 MEMB     42       DOPC     C39      CEL1    -0.150000       12.0110           0
      6269 MEMB     42       DOPC     H9X      HEL1     0.150000       1.00800           0
      6270 MEMB     42       DOPC     C310     CEL1    -0.150000       12.0110           0
      6271 MEMB     42       DOPC     H10X     HEL1     0.150000       1.00800           0
      6272 MEMB     42       DOPC     C311     CTL2    -0.180000       12.0110           0
      6273 MEMB     42       DOPC     H11X     HAL2     0.900000E-01   1.00800           0
      6274 MEMB     42       DOPC     H11Y     HAL2     0.900000E-01   1.00800           0
      6275 MEMB     42       DOPC     C312     CTL2    -0.180000       12.0110           0
      6276 MEMB     42       DOPC     H12X     HAL2     0.900000E-01   1.00800           0
      6277 MEMB     42       DOPC     H12Y     HAL2     0.900000E-01   1.00800           0
      6278 MEMB     42       DOPC     C313     CTL2    -0.180000       12.0110           0
      6279 MEMB     42       DOPC     H13X     HAL2     0.900000E-01   1.00800           0
      6280 MEMB     42       DOPC     H13Y     HAL2     0.900000E-01   1.00800           0
      6281 MEMB     42       DOPC     C314     CTL2    -0.180000       12.0110           0
      6282 MEMB     42       DOPC     H14X     HAL2     0.900000E-01   1.00800           0
      6283 MEMB     42       DOPC     H14Y     HAL2     0.900000E-01   1.00800           0
      6284 MEMB     42       DOPC     C315     CTL2    -0.180000       12.0110           0
      6285 MEMB     42       DOPC     H15X     HAL2     0.900000E-01   1.00800           0
      6286 MEMB     42       DOPC     H15Y     HAL2     0.900000E-01   1.00800           0
      6287 MEMB     42       DOPC     C316     CTL2    -0.180000       12.0110           0
      6288 MEMB     42       DOPC     H16X     HAL2     0.900000E-01   1.00800           0
      6289 MEMB     42       DOPC     H16Y     HAL2     0.900000E-01   1.00800           0
      6290 MEMB     42       DOPC     C317     CTL2    -0.180000       12.0110           0
      6291 MEMB     42       DOPC     H17X     HAL2     0.900000E-01   1.00800           0
      6292 MEMB     42       DOPC     H17Y     HAL2     0.900000E-01   1.00800           0
      6293 MEMB     42       DOPC     C318     CTL3    -0.270000       12.0110           0
      6294 MEMB     42       DOPC     H18X     HAL3     0.900000E-01   1.00800           0
      6295 MEMB     42       DOPC     H18Y     HAL3     0.900000E-01   1.00800           0
      6296 MEMB     42       DOPC     H18Z     HAL3     0.900000E-01   1.00800           0
      6297 MEMB     43       DOPC     N        NTL     -0.600000       14.0070           0
      6298 MEMB     43       DOPC     C12      CTL2    -0.100000       12.0110           0
      6299 MEMB     43       DOPC     H12A     HL       0.250000       1.00800           0
      6300 MEMB     43       DOPC     H12B     HL       0.250000       1.00800           0
      6301 MEMB     43       DOPC     C13      CTL5    -0.350000       12.0110           0
      6302 MEMB     43       DOPC     H13A     HL       0.250000       1.00800           0
      6303 MEMB     43       DOPC     H13B     HL       0.250000       1.00800           0
      6304 MEMB     43       DOPC     H13C     HL       0.250000       1.00800           0
      6305 MEMB     43       DOPC     C14      CTL5    -0.350000       12.0110           0
      6306 MEMB     43       DOPC     H14A     HL       0.250000       1.00800           0
      6307 MEMB     43       DOPC     H14B     HL       0.250000       1.00800           0
      6308 MEMB     43       DOPC     H14C     HL       0.250000       1.00800           0
      6309 MEMB     43       DOPC     C15      CTL5    -0.350000       12.0110           0
      6310 MEMB     43       DOPC     H15A     HL       0.250000       1.00800           0
      6311 MEMB     43       DOPC     H15B     HL       0.250000       1.00800           0
      6312 MEMB     43       DOPC     H15C     HL       0.250000       1.00800           0
      6313 MEMB     43       DOPC     C11      CTL2    -0.800000E-01   12.0110           0
      6314 MEMB     43       DOPC     H11A     HAL2     0.900000E-01   1.00800           0
      6315 MEMB     43       DOPC     H11B     HAL2     0.900000E-01   1.00800           0
      6316 MEMB     43       DOPC     P        PL        1.50000       30.9740           0
      6317 MEMB     43       DOPC     O13      O2L     -0.780000       15.9994           0
      6318 MEMB     43       DOPC     O14      O2L     -0.780000       15.9994           0
      6319 MEMB     43       DOPC     O12      OSLP    -0.570000       15.9994           0
      6320 MEMB     43       DOPC     O11      OSLP    -0.570000       15.9994           0
      6321 MEMB     43       DOPC     C1       CTL2    -0.800000E-01   12.0110           0
      6322 MEMB     43       DOPC     HA       HAL2     0.900000E-01   1.00800           0
      6323 MEMB     43       DOPC     HB       HAL2     0.900000E-01   1.00800           0
      6324 MEMB     43       DOPC     C2       CTL1     0.170000       12.0110           0
      6325 MEMB     43       DOPC     HS       HAL1     0.900000E-01   1.00800           0
      6326 MEMB     43       DOPC     O21      OSL     -0.490000       15.9994           0
      6327 MEMB     43       DOPC     C21      CL       0.900000       12.0110           0
      6328 MEMB     43       DOPC     O22      OBL     -0.630000       15.9994           0
      6329 MEMB     43       DOPC     C22      CTL2    -0.220000       12.0110           0
      6330 MEMB     43       DOPC     H2R      HAL2     0.900000E-01   1.00800           0
      6331 MEMB     43       DOPC     H2S      HAL2     0.900000E-01   1.00800           0
      6332 MEMB     43       DOPC     C3       CTL2     0.800000E-01   12.0110           0
      6333 MEMB     43       DOPC     HX       HAL2     0.900000E-01   1.00800           0
      6334 MEMB     43       DOPC     HY       HAL2     0.900000E-01   1.00800           0
      6335 MEMB     43       DOPC     O31      OSL     -0.490000       15.9994           0
      6336 MEMB     43       DOPC     C31      CL       0.900000       12.0110           0
      6337 MEMB     43       DOPC     O32      OBL     -0.630000       15.9994           0
      6338 MEMB     43       DOPC     C32      CTL2    -0.220000       12.0110           0
      6339 MEMB     43       DOPC     H2X      HAL2     0.900000E-01   1.00800           0
      6340 MEMB     43       DOPC     H2Y      HAL2     0.900000E-01   1.00800           0
      6341 MEMB     43       DOPC     C23      CTL2    -0.180000       12.0110           0
      6342 MEMB     43       DOPC     H3R      HAL2     0.900000E-01   1.00800           0
      6343 MEMB     43       DOPC     H3S      HAL2     0.900000E-01   1.00800           0
      6344 MEMB     43       DOPC     C24      CTL2    -0.180000       12.0110           0
      6345 MEMB     43       DOPC     H4R      HAL2     0.900000E-01   1.00800           0
      6346 MEMB     43       DOPC     H4S      HAL2     0.900000E-01   1.00800           0
      6347 MEMB     43       DOPC     C25      CTL2    -0.180000       12.0110           0
      6348 MEMB     43       DOPC     H5R      HAL2     0.900000E-01   1.00800           0
      6349 MEMB     43       DOPC     H5S      HAL2     0.900000E-01   1.00800           0
      6350 MEMB     43       DOPC     C26      CTL2    -0.180000       12.0110           0
      6351 MEMB     43       DOPC     H6R      HAL2     0.900000E-01   1.00800           0
      6352 MEMB     43       DOPC     H6S      HAL2     0.900000E-01   1.00800           0
      6353 MEMB     43       DOPC     C27      CTL2    -0.180000       12.0110           0
      6354 MEMB     43       DOPC     H7R      HAL2     0.900000E-01   1.00800           0
      6355 MEMB     43       DOPC     H7S      HAL2     0.900000E-01   1.00800           0
      6356 MEMB     43       DOPC     C28      CTL2    -0.180000       12.0110           0
      6357 MEMB     43       DOPC     H8R      HAL2     0.900000E-01   1.00800           0
      6358 MEMB     43       DOPC     H8S      HAL2     0.900000E-01   1.00800           0
      6359 MEMB     43       DOPC     C29      CEL1    -0.150000       12.0110           0
      6360 MEMB     43       DOPC     H9R      HEL1     0.150000       1.00800           0
      6361 MEMB     43       DOPC     C210     CEL1    -0.150000       12.0110           0
      6362 MEMB     43       DOPC     H10R     HEL1     0.150000       1.00800           0
      6363 MEMB     43       DOPC     C211     CTL2    -0.180000       12.0110           0
      6364 MEMB     43       DOPC     H11R     HAL2     0.900000E-01   1.00800           0
      6365 MEMB     43       DOPC     H11S     HAL2     0.900000E-01   1.00800           0
      6366 MEMB     43       DOPC     C212     CTL2    -0.180000       12.0110           0
      6367 MEMB     43       DOPC     H12R     HAL2     0.900000E-01   1.00800           0
      6368 MEMB     43       DOPC     H12S     HAL2     0.900000E-01   1.00800           0
      6369 MEMB     43       DOPC     C213     CTL2    -0.180000       12.0110           0
      6370 MEMB     43       DOPC     H13R     HAL2     0.900000E-01   1.00800           0
      6371 MEMB     43       DOPC     H13S     HAL2     0.900000E-01   1.00800           0
      6372 MEMB     43       DOPC     C214     CTL2    -0.180000       12.0110           0
      6373 MEMB     43       DOPC     H14R     HAL2     0.900000E-01   1.00800           0
      6374 MEMB     43       DOPC     H14S     HAL2     0.900000E-01   1.00800           0
      6375 MEMB     43       DOPC     C215     CTL2    -0.180000       12.0110           0
      6376 MEMB     43       DOPC     H15R     HAL2     0.900000E-01   1.00800           0
      6377 MEMB     43       DOPC     H15S     HAL2     0.900000E-01   1.00800           0
      6378 MEMB     43       DOPC     C216     CTL2    -0.180000       12.0110           0
      6379 MEMB     43       DOPC     H16R     HAL2     0.900000E-01   1.00800           0
      6380 MEMB     43       DOPC     H16S     HAL2     0.900000E-01   1.00800           0
      6381 MEMB     43       DOPC     C217     CTL2    -0.180000       12.0110           0
      6382 MEMB     43       DOPC     H17R     HAL2     0.900000E-01   1.00800           0
      6383 MEMB     43       DOPC     H17S     HAL2     0.900000E-01   1.00800           0
      6384 MEMB     43       DOPC     C218     CTL3    -0.270000       12.0110           0
      6385 MEMB     43       DOPC     H18R     HAL3     0.900000E-01   1.00800           0
      6386 MEMB     43       DOPC     H18S     HAL3     0.900000E-01   1.00800           0
      6387 MEMB     43       DOPC     H18T     HAL3     0.900000E-01   1.00800           0
      6388 MEMB     43       DOPC     C33      CTL2    -0.180000       12.0110           0
      6389 MEMB     43       DOPC     H3X      HAL2     0.900000E-01   1.00800           0
      6390 MEMB     43       DOPC     H3Y      HAL2     0.900000E-01   1.00800           0
      6391 MEMB     43       DOPC     C34      CTL2    -0.180000       12.0110           0
      6392 MEMB     43       DOPC     H4X      HAL2     0.900000E-01   1.00800           0
      6393 MEMB     43       DOPC     H4Y      HAL2     0.900000E-01   1.00800           0
      6394 MEMB     43       DOPC     C35      CTL2    -0.180000       12.0110           0
      6395 MEMB     43       DOPC     H5X      HAL2     0.900000E-01   1.00800           0
      6396 MEMB     43       DOPC     H5Y      HAL2     0.900000E-01   1.00800           0
      6397 MEMB     43       DOPC     C36      CTL2    -0.180000       12.0110           0
      6398 MEMB     43       DOPC     H6X      HAL2     0.900000E-01   1.00800           0
      6399 MEMB     43       DOPC     H6Y      HAL2     0.900000E-01   1.00800           0
      6400 MEMB     43       DOPC     C37      CTL2    -0.180000       12.0110           0
      6401 MEMB     43       DOPC     H7X      HAL2     0.900000E-01   1.00800           0
      6402 MEMB     43       DOPC     H7Y      HAL2     0.900000E-01   1.00800           0
      6403 MEMB     43       DOPC     C38      CTL2    -0.180000       12.0110           0
      6404 MEMB     43       DOPC     H8X      HAL2     0.900000E-01   1.00800           0
      6405 MEMB     43       DOPC     H8Y      HAL2     0.900000E-01   1.00800           0
      6406 MEMB     43       DOPC     C39      CEL1    -0.150000       12.0110           0
      6407 MEMB     43       DOPC     H9X      HEL1     0.150000       1.00800           0
      6408 MEMB     43       DOPC     C310     CEL1    -0.150000       12.0110           0
      6409 MEMB     43       DOPC     H10X     HEL1     0.150000       1.00800           0
      6410 MEMB     43       DOPC     C311     CTL2    -0.180000       12.0110           0
      6411 MEMB     43       DOPC     H11X     HAL2     0.900000E-01   1.00800           0
      6412 MEMB     43       DOPC     H11Y     HAL2     0.900000E-01   1.00800           0
      6413 MEMB     43       DOPC     C312     CTL2    -0.180000       12.0110           0
      6414 MEMB     43       DOPC     H12X     HAL2     0.900000E-01   1.00800           0
      6415 MEMB     43       DOPC     H12Y     HAL2     0.900000E-01   1.00800           0
      6416 MEMB     43       DOPC     C313     CTL2    -0.180000       12.0110           0
      6417 MEMB     43       DOPC     H13X     HAL2     0.900000E-01   1.00800           0
      6418 MEMB     43       DOPC     H13Y     HAL2     0.900000E-01   1.00800           0
      6419 MEMB     43       DOPC     C314     CTL2    -0.180000       12.0110           0
      6420 MEMB     43       DOPC     H14X     HAL2     0.900000E-01   1.00800           0
      6421 MEMB     43       DOPC     H14Y     HAL2     0.900000E-01   1.00800           0
      6422 MEMB     43       DOPC     C315     CTL2    -0.180000       12.0110           0
      6423 MEMB     43       DOPC     H15X     HAL2     0.900000E-01   1.00800           0
      6424 MEMB     43       DOPC     H15Y     HAL2     0.900000E-01   1.00800           0
      6425 MEMB     43       DOPC     C316     CTL2    -0.180000       12.0110           0
      6426 MEMB     43       DOPC     H16X     HAL2     0.900000E-01   1.00800           0
      6427 MEMB     43       DOPC     H16Y     HAL2     0.900000E-01   1.00800           0
      6428 MEMB     43       DOPC     C317     CTL2    -0.180000       12.0110           0
      6429 MEMB     43       DOPC     H17X     HAL2     0.900000E-01   1.00800           0
      6430 MEMB     43       DOPC     H17Y     HAL2     0.900000E-01   1.00800           0
      6431 MEMB     43       DOPC     C318     CTL3    -0.270000       12.0110           0
      6432 MEMB     43       DOPC     H18X     HAL3     0.900000E-01   1.00800           0
      6433 MEMB     43       DOPC     H18Y     HAL3     0.900000E-01   1.00800           0
      6434 MEMB     43       DOPC     H18Z     HAL3     0.900000E-01   1.00800           0
      6435 MEMB     44       DOPC     N        NTL     -0.600000       14.0070           0
      6436 MEMB     44       DOPC     C12      CTL2    -0.100000       12.0110           0
      6437 MEMB     44       DOPC     H12A     HL       0.250000       1.00800           0
      6438 MEMB     44       DOPC     H12B     HL       0.250000       1.00800           0
      6439 MEMB     44       DOPC     C13      CTL5    -0.350000       12.0110           0
      6440 MEMB     44       DOPC     H13A     HL       0.250000       1.00800           0
      6441 MEMB     44       DOPC     H13B     HL       0.250000       1.00800           0
      6442 MEMB     44       DOPC     H13C     HL       0.250000       1.00800           0
      6443 MEMB     44       DOPC     C14      CTL5    -0.350000       12.0110           0
      6444 MEMB     44       DOPC     H14A     HL       0.250000       1.00800           0
      6445 MEMB     44       DOPC     H14B     HL       0.250000       1.00800           0
      6446 MEMB     44       DOPC     H14C     HL       0.250000       1.00800           0
      6447 MEMB     44       DOPC     C15      CTL5    -0.350000       12.0110           0
      6448 MEMB     44       DOPC     H15A     HL       0.250000       1.00800           0
      6449 MEMB     44       DOPC     H15B     HL       0.250000       1.00800           0
      6450 MEMB     44       DOPC     H15C     HL       0.250000       1.00800           0
      6451 MEMB     44       DOPC     C11      CTL2    -0.800000E-01   12.0110           0
      6452 MEMB     44       DOPC     H11A     HAL2     0.900000E-01   1.00800           0
      6453 MEMB     44       DOPC     H11B     HAL2     0.900000E-01   1.00800           0
      6454 MEMB     44       DOPC     P        PL        1.50000       30.9740           0
      6455 MEMB     44       DOPC     O13      O2L     -0.780000       15.9994           0
      6456 MEMB     44       DOPC     O14      O2L     -0.780000       15.9994           0
      6457 MEMB     44       DOPC     O12      OSLP    -0.570000       15.9994           0
      6458 MEMB     44       DOPC     O11      OSLP    -0.570000       15.9994           0
      6459 MEMB     44       DOPC     C1       CTL2    -0.800000E-01   12.0110           0
      6460 MEMB     44       DOPC     HA       HAL2     0.900000E-01   1.00800           0
      6461 MEMB     44       DOPC     HB       HAL2     0.900000E-01   1.00800           0
      6462 MEMB     44       DOPC     C2       CTL1     0.170000       12.0110           0
      6463 MEMB     44       DOPC     HS       HAL1     0.900000E-01   1.00800           0
      6464 MEMB     44       DOPC     O21      OSL     -0.490000       15.9994           0
      6465 MEMB     44       DOPC     C21      CL       0.900000       12.0110           0
      6466 MEMB     44       DOPC     O22      OBL     -0.630000       15.9994           0
      6467 MEMB     44       DOPC     C22      CTL2    -0.220000       12.0110           0
      6468 MEMB     44       DOPC     H2R      HAL2     0.900000E-01   1.00800           0
      6469 MEMB     44       DOPC     H2S      HAL2     0.900000E-01   1.00800           0
      6470 MEMB     44       DOPC     C3       CTL2     0.800000E-01   12.0110           0
      6471 MEMB     44       DOPC     HX       HAL2     0.900000E-01   1.00800           0
      6472 MEMB     44       DOPC     HY       HAL2     0.900000E-01   1.00800           0
      6473 MEMB     44       DOPC     O31      OSL     -0.490000       15.9994           0
      6474 MEMB     44       DOPC     C31      CL       0.900000       12.0110           0
      6475 MEMB     44       DOPC     O32      OBL     -0.630000       15.9994           0
      6476 MEMB     44       DOPC     C32      CTL2    -0.220000       12.0110           0
      6477 MEMB     44       DOPC     H2X      HAL2     0.900000E-01   1.00800           0
      6478 MEMB     44       DOPC     H2Y      HAL2     0.900000E-01   1.00800           0
      6479 MEMB     44       DOPC     C23      CTL2    -0.180000       12.0110           0
      6480 MEMB     44       DOPC     H3R      HAL2     0.900000E-01   1.00800           0
      6481 MEMB     44       DOPC     H3S      HAL2     0.900000E-01   1.00800           0
      6482 MEMB     44       DOPC     C24      CTL2    -0.180000       12.0110           0
      6483 MEMB     44       DOPC     H4R      HAL2     0.900000E-01   1.00800           0
      6484 MEMB     44       DOPC     H4S      HAL2     0.900000E-01   1.00800           0
      6485 MEMB     44       DOPC     C25      CTL2    -0.180000       12.0110           0
      6486 MEMB     44       DOPC     H5R      HAL2     0.900000E-01   1.00800           0
      6487 MEMB     44       DOPC     H5S      HAL2     0.900000E-01   1.00800           0
      6488 MEMB     44       DOPC     C26      CTL2    -0.180000       12.0110           0
      6489 MEMB     44       DOPC     H6R      HAL2     0.900000E-01   1.00800           0
      6490 MEMB     44       DOPC     H6S      HAL2     0.900000E-01   1.00800           0
      6491 MEMB     44       DOPC     C27      CTL2    -0.180000       12.0110           0
      6492 MEMB     44       DOPC     H7R      HAL2     0.900000E-01   1.00800           0
      6493 MEMB     44       DOPC     H7S      HAL2     0.900000E-01   1.00800           0
      6494 MEMB     44       DOPC     C28      CTL2    -0.180000       12.0110           0
      6495 MEMB     44       DOPC     H8R      HAL2     0.900000E-01   1.00800           0
      6496 MEMB     44       DOPC     H8S      HAL2     0.900000E-01   1.00800           0
      6497 MEMB     44       DOPC     C29      CEL1    -0.150000       12.0110           0
      6498 MEMB     44       DOPC     H9R      HEL1     0.150000       1.00800           0
      6499 MEMB     44       DOPC     C210     CEL1    -0.150000       12.0110           0
      6500 MEMB     44       DOPC     H10R     HEL1     0.150000       1.00800           0
      6501 MEMB     44       DOPC     C211     CTL2    -0.180000       12.0110           0
      6502 MEMB     44       DOPC     H11R     HAL2     0.900000E-01   1.00800           0
      6503 MEMB     44       DOPC     H11S     HAL2     0.900000E-01   1.00800           0
      6504 MEMB     44       DOPC     C212     CTL2    -0.180000       12.0110           0
      6505 MEMB     44       DOPC     H12R     HAL2     0.900000E-01   1.00800           0
      6506 MEMB     44       DOPC     H12S     HAL2     0.900000E-01   1.00800           0
      6507 MEMB     44       DOPC     C213     CTL2    -0.180000       12.0110           0
      6508 MEMB     44       DOPC     H13R     HAL2     0.900000E-01   1.00800           0
      6509 MEMB     44       DOPC     H13S     HAL2     0.900000E-01   1.00800           0
      6510 MEMB     44       DOPC     C214     CTL2    -0.180000       12.0110           0
      6511 MEMB     44       DOPC     H14R     HAL2     0.900000E-01   1.00800           0
      6512 MEMB     44       DOPC     H14S     HAL2     0.900000E-01   1.00800           0
      6513 MEMB     44       DOPC     C215     CTL2    -0.180000       12.0110           0
      6514 MEMB     44       DOPC     H15R     HAL2     0.900000E-01   1.00800           0
      6515 MEMB     44       DOPC     H15S     HAL2     0.900000E-01   1.00800           0
      6516 MEMB     44       DOPC     C216     CTL2    -0.180000       12.0110           0
      6517 MEMB     44       DOPC     H16R     HAL2     0.900000E-01   1.00800           0
      6518 MEMB     44       DOPC     H16S     HAL2     0.900000E-01   1.00800           0
      6519 MEMB     44       DOPC     C217     CTL2    -0.180000       12.0110           0
      6520 MEMB     44       DOPC     H17R     HAL2     0.900000E-01   1.00800           0
      6521 MEMB     44       DOPC     H17S     HAL2     0.900000E-01   1.00800           0
      6522 MEMB     44       DOPC     C218     CTL3    -0.270000       12.0110           0
      6523 MEMB     44       DOPC     H18R     HAL3     0.900000E-01   1.00800           0
      6524 MEMB     44       DOPC     H18S     HAL3     0.900000E-01   1.00800           0
      6525 MEMB     44       DOPC     H18T     HAL3     0.900000E-01   1.00800           0
      6526 MEMB     44       DOPC     C33      CTL2    -0.180000       12.0110           0
      6527 MEMB     44       DOPC     H3X      HAL2     0.900000E-01   1.00800           0
      6528 MEMB     44       DOPC     H3Y      HAL2     0.900000E-01   1.00800           0
      6529 MEMB     44       DOPC     C34      CTL2    -0.180000       12.0110           0
      6530 MEMB     44       DOPC     H4X      HAL2     0.900000E-01   1.00800           0
      6531 MEMB     44       DOPC     H4Y      HAL2     0.900000E-01   1.00800           0
      6532 MEMB     44       DOPC     C35      CTL2    -0.180000       12.0110           0
      6533 MEMB     44       DOPC     H5X      HAL2     0.900000E-01   1.00800           0
      6534 MEMB     44       DOPC     H5Y      HAL2     0.900000E-01   1.00800           0
      6535 MEMB     44       DOPC     C36      CTL2    -0.180000       12.0110           0
      6536 MEMB     44       DOPC     H6X      HAL2     0.900000E-01   1.00800           0
      6537 MEMB     44       DOPC     H6Y      HAL2     0.900000E-01   1.00800           0
      6538 MEMB     44       DOPC     C37      CTL2    -0.180000       12.0110           0
      6539 MEMB     44       DOPC     H7X      HAL2     0.900000E-01   1.00800           0
      6540 MEMB     44       DOPC     H7Y      HAL2     0.900000E-01   1.00800           0
      6541 MEMB     44       DOPC     C38      CTL2    -0.180000       12.0110           0
      6542 MEMB     44       DOPC     H8X      HAL2     0.900000E-01   1.00800           0
      6543 MEMB     44       DOPC     H8Y      HAL2     0.900000E-01   1.00800           0
      6544 MEMB     44       DOPC     C39      CEL1    -0.150000       12.0110           0
      6545 MEMB     44       DOPC     H9X      HEL1     0.150000       1.00800           0
      6546 MEMB     44       DOPC     C310     CEL1    -0.150000       12.0110           0
      6547 MEMB     44       DOPC     H10X     HEL1     0.150000       1.00800           0
      6548 MEMB     44       DOPC     C311     CTL2    -0.180000       12.0110           0
      6549 MEMB     44       DOPC     H11X     HAL2     0.900000E-01   1.00800           0
      6550 MEMB     44       DOPC     H11Y     HAL2     0.900000E-01   1.00800           0
      6551 MEMB     44       DOPC     C312     CTL2    -0.180000       12.0110           0
      6552 MEMB     44       DOPC     H12X     HAL2     0.900000E-01   1.00800           0
      6553 MEMB     44       DOPC     H12Y     HAL2     0.900000E-01   1.00800           0
      6554 MEMB     44       DOPC     C313     CTL2    -0.180000       12.0110           0
      6555 MEMB     44       DOPC     H13X     HAL2     0.900000E-01   1.00800           0
      6556 MEMB     44       DOPC     H13Y     HAL2     0.900000E-01   1.00800           0
      6557 MEMB     44       DOPC     C314     CTL2    -0.180000       12.0110           0
      6558 MEMB     44       DOPC     H14X     HAL2     0.900000E-01   1.00800           0
      6559 MEMB     44       DOPC     H14Y     HAL2     0.900000E-01   1.00800           0
      6560 MEMB     44       DOPC     C315     CTL2    -0.180000       12.0110           0
      6561 MEMB     44       DOPC     H15X     HAL2     0.900000E-01   1.00800           0
      6562 MEMB     44       DOPC     H15Y     HAL2     0.900000E-01   1.00800           0
      6563 MEMB     44       DOPC     C316     CTL2    -0.180000       12.0110           0
      6564 MEMB     44       DOPC     H16X     HAL2     0.900000E-01   1.00800           0
      6565 MEMB     44       DOPC     H16Y     HAL2     0.900000E-01   1.00800           0
      6566 MEMB     44       DOPC     C317     CTL2    -0.180000       12.0110           0
      6567 MEMB     44       DOPC     H17X     HAL2     0.900000E-01   1.00800           0
      6568 MEMB     44       DOPC     H17Y     HAL2     0.900000E-01   1.00800           0
      6569 MEMB     44       DOPC     C318     CTL3    -0.270000       12.0110           0
      6570 MEMB     44       DOPC     H18X     HAL3     0.900000E-01   1.00800           0
      6571 MEMB     44       DOPC     H18Y     HAL3     0.900000E-01   1.00800           0
      6572 MEMB     44       DOPC     H18Z     HAL3     0.900000E-01   1.00800           0
      6573 MEMB     45       DOPC     N        NTL     -0.600000       14.0070           0
      6574 MEMB     45       DOPC     C12      CTL2    -0.100000       12.0110           0
      6575 MEMB     45       DOPC     H12A     HL       0.250000       1.00800           0
      6576 MEMB     45       DOPC     H12B     HL       0.250000       1.00800           0
      6577 MEMB     45       DOPC     C13      CTL5    -0.350000       12.0110           0
      6578 MEMB     45       DOPC     H13A     HL       0.250000       1.00800           0
      6579 MEMB     45       DOPC     H13B     HL       0.250000       1.00800           0
      6580 MEMB     45       DOPC     H13C     HL       0.250000       1.00800           0
      6581 MEMB     45       DOPC     C14      CTL5    -0.350000       12.0110           0
      6582 MEMB     45       DOPC     H14A     HL       0.250000       1.00800           0
      6583 MEMB     45       DOPC     H14B     HL       0.250000       1.00800           0
      6584 MEMB     45       DOPC     H14C     HL       0.250000       1.00800           0
      6585 MEMB     45       DOPC     C15      CTL5    -0.350000       12.0110           0
      6586 MEMB     45       DOPC     H15A     HL       0.250000       1.00800           0
      6587 MEMB     45       DOPC     H15B     HL       0.250000       1.00800           0
      6588 MEMB     45       DOPC     H15C     HL       0.250000       1.00800           0
      6589 MEMB     45       DOPC     C11      CTL2    -0.800000E-01   12.0110           0
      6590 MEMB     45       DOPC     H11A     HAL2     0.900000E-01   1.00800           0
      6591 MEMB     45       DOPC     H11B     HAL2     0.900000E-01   1.00800           0
      6592 MEMB     45       DOPC     P        PL        1.50000       30.9740           0
      6593 MEMB     45       DOPC     O13      O2L     -0.780000       15.9994           0
      6594 MEMB     45       DOPC     O14      O2L     -0.780000       15.9994           0
      6595 MEMB     45       DOPC     O12      OSLP    -0.570000       15.9994           0
      6596 MEMB     45       DOPC     O11      OSLP    -0.570000       15.9994           0
      6597 MEMB     45       DOPC     C1       CTL2    -0.800000E-01   12.0110           0
      6598 MEMB     45       DOPC     HA       HAL2     0.900000E-01   1.00800           0
      6599 MEMB     45       DOPC     HB       HAL2     0.900000E-01   1.00800           0
      6600 MEMB     45       DOPC     C2       CTL1     0.170000       12.0110           0
      6601 MEMB     45       DOPC     HS       HAL1     0.900000E-01   1.00800           0
      6602 MEMB     45       DOPC     O21      OSL     -0.490000       15.9994           0
      6603 MEMB     45       DOPC     C21      CL       0.900000       12.0110           0
      6604 MEMB     45       DOPC     O22      OBL     -0.630000       15.9994           0
      6605 MEMB     45       DOPC     C22      CTL2    -0.220000       12.0110           0
      6606 MEMB     45       DOPC     H2R      HAL2     0.900000E-01   1.00800           0
      6607 MEMB     45       DOPC     H2S      HAL2     0.900000E-01   1.00800           0
      6608 MEMB     45       DOPC     C3       CTL2     0.800000E-01   12.0110           0
      6609 MEMB     45       DOPC     HX       HAL2     0.900000E-01   1.00800           0
      6610 MEMB     45       DOPC     HY       HAL2     0.900000E-01   1.00800           0
      6611 MEMB     45       DOPC     O31      OSL     -0.490000       15.9994           0
      6612 MEMB     45       DOPC     C31      CL       0.900000       12.0110           0
      6613 MEMB     45       DOPC     O32      OBL     -0.630000       15.9994           0
      6614 MEMB     45       DOPC     C32      CTL2    -0.220000       12.0110           0
      6615 MEMB     45       DOPC     H2X      HAL2     0.900000E-01   1.00800           0
      6616 MEMB     45       DOPC     H2Y      HAL2     0.900000E-01   1.00800           0
      6617 MEMB     45       DOPC     C23      CTL2    -0.180000       12.0110           0
      6618 MEMB     45       DOPC     H3R      HAL2     0.900000E-01   1.00800           0
      6619 MEMB     45       DOPC     H3S      HAL2     0.900000E-01   1.00800           0
      6620 MEMB     45       DOPC     C24      CTL2    -0.180000       12.0110           0
      6621 MEMB     45       DOPC     H4R      HAL2     0.900000E-01   1.00800           0
      6622 MEMB     45       DOPC     H4S      HAL2     0.900000E-01   1.00800           0
      6623 MEMB     45       DOPC     C25      CTL2    -0.180000       12.0110           0
      6624 MEMB     45       DOPC     H5R      HAL2     0.900000E-01   1.00800           0
      6625 MEMB     45       DOPC     H5S      HAL2     0.900000E-01   1.00800           0
      6626 MEMB     45       DOPC     C26      CTL2    -0.180000       12.0110           0
      6627 MEMB     45       DOPC     H6R      HAL2     0.900000E-01   1.00800           0
      6628 MEMB     45       DOPC     H6S      HAL2     0.900000E-01   1.00800           0
      6629 MEMB     45       DOPC     C27      CTL2    -0.180000       12.0110           0
      6630 MEMB     45       DOPC     H7R      HAL2     0.900000E-01   1.00800           0
      6631 MEMB     45       DOPC     H7S      HAL2     0.900000E-01   1.00800           0
      6632 MEMB     45       DOPC     C28      CTL2    -0.180000       12.0110           0
      6633 MEMB     45       DOPC     H8R      HAL2     0.900000E-01   1.00800           0
      6634 MEMB     45       DOPC     H8S      HAL2     0.900000E-01   1.00800           0
      6635 MEMB     45       DOPC     C29      CEL1    -0.150000       12.0110           0
      6636 MEMB     45       DOPC     H9R      HEL1     0.150000       1.00800           0
      6637 MEMB     45       DOPC     C210     CEL1    -0.150000       12.0110           0
      6638 MEMB     45       DOPC     H10R     HEL1     0.150000       1.00800           0
      6639 MEMB     45       DOPC     C211     CTL2    -0.180000       12.0110           0
      6640 MEMB     45       DOPC     H11R     HAL2     0.900000E-01   1.00800           0
      6641 MEMB     45       DOPC     H11S     HAL2     0.900000E-01   1.00800           0
      6642 MEMB     45       DOPC     C212     CTL2    -0.180000       12.0110           0
      6643 MEMB     45       DOPC     H12R     HAL2     0.900000E-01   1.00800           0
      6644 MEMB     45       DOPC     H12S     HAL2     0.900000E-01   1.00800           0
      6645 MEMB     45       DOPC     C213     CTL2    -0.180000       12.0110           0
      6646 MEMB     45       DOPC     H13R     HAL2     0.900000E-01   1.00800           0
      6647 MEMB     45       DOPC     H13S     HAL2     0.900000E-01   1.00800           0
      6648 MEMB     45       DOPC     C214     CTL2    -0.180000       12.0110           0
      6649 MEMB     45       DOPC     H14R     HAL2     0.900000E-01   1.00800           0
      6650 MEMB     45       DOPC     H14S     HAL2     0.900000E-01   1.00800           0
      6651 MEMB     45       DOPC     C215     CTL2    -0.180000       12.0110           0
      6652 MEMB     45       DOPC     H15R     HAL2     0.900000E-01   1.00800           0
      6653 MEMB     45       DOPC     H15S     HAL2     0.900000E-01   1.00800           0
      6654 MEMB     45       DOPC     C216     CTL2    -0.180000       12.0110           0
      6655 MEMB     45       DOPC     H16R     HAL2     0.900000E-01   1.00800           0
      6656 MEMB     45       DOPC     H16S     HAL2     0.900000E-01   1.00800           0
      6657 MEMB     45       DOPC     C217     CTL2    -0.180000       12.0110           0
      6658 MEMB     45       DOPC     H17R     HAL2     0.900000E-01   1.00800           0
      6659 MEMB     45       DOPC     H17S     HAL2     0.900000E-01   1.00800           0
      6660 MEMB     45       DOPC     C218     CTL3    -0.270000       12.0110           0
      6661 MEMB     45       DOPC     H18R     HAL3     0.900000E-01   1.00800           0
      6662 MEMB     45       DOPC     H18S     HAL3     0.900000E-01   1.00800           0
      6663 MEMB     45       DOPC     H18T     HAL3     0.900000E-01   1.00800           0
      6664 MEMB     45       DOPC     C33      CTL2    -0.180000       12.0110           0
      6665 MEMB     45       DOPC     H3X      HAL2     0.900000E-01   1.00800           0
      6666 MEMB     45       DOPC     H3Y      HAL2     0.900000E-01   1.00800           0
      6667 MEMB     45       DOPC     C34      CTL2    -0.180000       12.0110           0
      6668 MEMB     45       DOPC     H4X      HAL2     0.900000E-01   1.00800           0
      6669 MEMB     45       DOPC     H4Y      HAL2     0.900000E-01   1.00800           0
      6670 MEMB     45       DOPC     C35      CTL2    -0.180000       12.0110           0
      6671 MEMB     45       DOPC     H5X      HAL2     0.900000E-01   1.00800           0
      6672 MEMB     45       DOPC     H5Y      HAL2     0.900000E-01   1.00800           0
      6673 MEMB     45       DOPC     C36      CTL2    -0.180000       12.0110           0
      6674 MEMB     45       DOPC     H6X      HAL2     0.900000E-01   1.00800           0
      6675 MEMB     45       DOPC     H6Y      HAL2     0.900000E-01   1.00800           0
      6676 MEMB     45       DOPC     C37      CTL2    -0.180000       12.0110           0
      6677 MEMB     45       DOPC     H7X      HAL2     0.900000E-01   1.00800           0
      6678 MEMB     45       DOPC     H7Y      HAL2     0.900000E-01   1.00800           0
      6679 MEMB     45       DOPC     C38      CTL2    -0.180000       12.0110           0
      6680 MEMB     45       DOPC     H8X      HAL2     0.900000E-01   1.00800           0
      6681 MEMB     45       DOPC     H8Y      HAL2     0.900000E-01   1.00800           0
      6682 MEMB     45       DOPC     C39      CEL1    -0.150000       12.0110           0
      6683 MEMB     45       DOPC     H9X      HEL1     0.150000       1.00800           0
      6684 MEMB     45       DOPC     C310     CEL1    -0.150000       12.0110           0
      6685 MEMB     45       DOPC     H10X     HEL1     0.150000       1.00800           0
      6686 MEMB     45       DOPC     C311     CTL2    -0.180000       12.0110           0
      6687 MEMB     45       DOPC     H11X     HAL2     0.900000E-01   1.00800           0
      6688 MEMB     45       DOPC     H11Y     HAL2     0.900000E-01   1.00800           0
      6689 MEMB     45       DOPC     C312     CTL2    -0.180000       12.0110           0
      6690 MEMB     45       DOPC     H12X     HAL2     0.900000E-01   1.00800           0
      6691 MEMB     45       DOPC     H12Y     HAL2     0.900000E-01   1.00800           0
      6692 MEMB     45       DOPC     C313     CTL2    -0.180000       12.0110           0
      6693 MEMB     45       DOPC     H13X     HAL2     0.900000E-01   1.00800           0
      6694 MEMB     45       DOPC     H13Y     HAL2     0.900000E-01   1.00800           0
      6695 MEMB     45       DOPC     C314     CTL2    -0.180000       12.0110           0
      6696 MEMB     45       DOPC     H14X     HAL2     0.900000E-01   1.00800           0
      6697 MEMB     45       DOPC     H14Y     HAL2     0.900000E-01   1.00800           0
      6698 MEMB     45       DOPC     C315     CTL2    -0.180000       12.0110           0
      6699 MEMB     45       DOPC     H15X     HAL2     0.900000E-01   1.00800           0
      6700 MEMB     45       DOPC     H15Y     HAL2     0.900000E-01   1.00800           0
      6701 MEMB     45       DOPC     C316     CTL2    -0.180000       12.0110           0
      6702 MEMB     45       DOPC     H16X     HAL2     0.900000E-01   1.00800           0
      6703 MEMB     45       DOPC     H16Y     HAL2     0.900000E-01   1.00800           0
      6704 MEMB     45       DOPC     C317     CTL2    -0.180000       12.0110           0
      6705 MEMB     45       DOPC     H17X     HAL2     0.900000E-01   1.00800           0
      6706 MEMB     45       DOPC     H17Y     HAL2     0.900000E-01   1.00800           0
      6707 MEMB     45       DOPC     C318     CTL3    -0.270000       12.0110           0
      6708 MEMB     45       DOPC     H18X     HAL3     0.900000E-01   1.00800           0
      6709 MEMB     45       DOPC     H18Y     HAL3     0.900000E-01   1.00800           0
      6710 MEMB     45       DOPC     H18Z     HAL3     0.900000E-01   1.00800           0
      6711 MEMB     46       DOPC     N        NTL     -0.600000       14.0070           0
      6712 MEMB     46       DOPC     C12      CTL2    -0.100000       12.0110           0
      6713 MEMB     46       DOPC     H12A     HL       0.250000       1.00800           0
      6714 MEMB     46       DOPC     H12B     HL       0.250000       1.00800           0
      6715 MEMB     46       DOPC     C13      CTL5    -0.350000       12.0110           0
      6716 MEMB     46       DOPC     H13A     HL       0.250000       1.00800           0
      6717 MEMB     46       DOPC     H13B     HL       0.250000       1.00800           0
      6718 MEMB     46       DOPC     H13C     HL       0.250000       1.00800           0
      6719 MEMB     46       DOPC     C14      CTL5    -0.350000       12.0110           0
      6720 MEMB     46       DOPC     H14A     HL       0.250000       1.00800           0
      6721 MEMB     46       DOPC     H14B     HL       0.250000       1.00800           0
      6722 MEMB     46       DOPC     H14C     HL       0.250000       1.00800           0
      6723 MEMB     46       DOPC     C15      CTL5    -0.350000       12.0110           0
      6724 MEMB     46       DOPC     H15A     HL       0.250000       1.00800           0
      6725 MEMB     46       DOPC     H15B     HL       0.250000       1.00800           0
      6726 MEMB     46       DOPC     H15C     HL       0.250000       1.00800           0
      6727 MEMB     46       DOPC     C11      CTL2    -0.800000E-01   12.0110           0
      6728 MEMB     46       DOPC     H11A     HAL2     0.900000E-01   1.00800           0
      6729 MEMB     46       DOPC     H11B     HAL2     0.900000E-01   1.00800           0
      6730 MEMB     46       DOPC     P        PL        1.50000       30.9740           0
      6731 MEMB     46       DOPC     O13      O2L     -0.780000       15.9994           0
      6732 MEMB     46       DOPC     O14      O2L     -0.780000       15.9994           0
      6733 MEMB     46       DOPC     O12      OSLP    -0.570000       15.9994           0
      6734 MEMB     46       DOPC     O11      OSLP    -0.570000       15.9994           0
      6735 MEMB     46       DOPC     C1       CTL2    -0.800000E-01   12.0110           0
      6736 MEMB     46       DOPC     HA       HAL2     0.900000E-01   1.00800           0
      6737 MEMB     46       DOPC     HB       HAL2     0.900000E-01   1.00800           0
      6738 MEMB     46       DOPC     C2       CTL1     0.170000       12.0110           0
      6739 MEMB     46       DOPC     HS       HAL1     0.900000E-01   1.00800           0
      6740 MEMB     46       DOPC     O21      OSL     -0.490000       15.9994           0
      6741 MEMB     46       DOPC     C21      CL       0.900000       12.0110           0
      6742 MEMB     46       DOPC     O22      OBL     -0.630000       15.9994           0
      6743 MEMB     46       DOPC     C22      CTL2    -0.220000       12.0110           0
      6744 MEMB     46       DOPC     H2R      HAL2     0.900000E-01   1.00800           0
      6745 MEMB     46       DOPC     H2S      HAL2     0.900000E-01   1.00800           0
      6746 MEMB     46       DOPC     C3       CTL2     0.800000E-01   12.0110           0
      6747 MEMB     46       DOPC     HX       HAL2     0.900000E-01   1.00800           0
      6748 MEMB     46       DOPC     HY       HAL2     0.900000E-01   1.00800           0
      6749 MEMB     46       DOPC     O31      OSL     -0.490000       15.9994           0
      6750 MEMB     46       DOPC     C31      CL       0.900000       12.0110           0
      6751 MEMB     46       DOPC     O32      OBL     -0.630000       15.9994           0
      6752 MEMB     46       DOPC     C32      CTL2    -0.220000       12.0110           0
      6753 MEMB     46       DOPC     H2X      HAL2     0.900000E-01   1.00800           0
      6754 MEMB     46       DOPC     H2Y      HAL2     0.900000E-01   1.00800           0
      6755 MEMB     46       DOPC     C23      CTL2    -0.180000       12.0110           0
      6756 MEMB     46       DOPC     H3R      HAL2     0.900000E-01   1.00800           0
      6757 MEMB     46       DOPC     H3S      HAL2     0.900000E-01   1.00800           0
      6758 MEMB     46       DOPC     C24      CTL2    -0.180000       12.0110           0
      6759 MEMB     46       DOPC     H4R      HAL2     0.900000E-01   1.00800           0
      6760 MEMB     46       DOPC     H4S      HAL2     0.900000E-01   1.00800           0
      6761 MEMB     46       DOPC     C25      CTL2    -0.180000       12.0110           0
      6762 MEMB     46       DOPC     H5R      HAL2     0.900000E-01   1.00800           0
      6763 MEMB     46       DOPC     H5S      HAL2     0.900000E-01   1.00800           0
      6764 MEMB     46       DOPC     C26      CTL2    -0.180000       12.0110           0
      6765 MEMB     46       DOPC     H6R      HAL2     0.900000E-01   1.00800           0
      6766 MEMB     46       DOPC     H6S      HAL2     0.900000E-01   1.00800           0
      6767 MEMB     46       DOPC     C27      CTL2    -0.180000       12.0110           0
      6768 MEMB     46       DOPC     H7R      HAL2     0.900000E-01   1.00800           0
      6769 MEMB     46       DOPC     H7S      HAL2     0.900000E-01   1.00800           0
      6770 MEMB     46       DOPC     C28      CTL2    -0.180000       12.0110           0
      6771 MEMB     46       DOPC     H8R      HAL2     0.900000E-01   1.00800           0
      6772 MEMB     46       DOPC     H8S      HAL2     0.900000E-01   1.00800           0
      6773 MEMB     46       DOPC     C29      CEL1    -0.150000       12.0110           0
      6774 MEMB     46       DOPC     H9R      HEL1     0.150000       1.00800           0
      6775 MEMB     46       DOPC     C210     CEL1    -0.150000       12.0110           0
      6776 MEMB     46       DOPC     H10R     HEL1     0.150000       1.00800           0
      6777 MEMB     46       DOPC     C211     CTL2    -0.180000       12.0110           0
      6778 MEMB     46       DOPC     H11R     HAL2     0.900000E-01   1.00800           0
      6779 MEMB     46       DOPC     H11S     HAL2     0.900000E-01   1.00800           0
      6780 MEMB     46       DOPC     C212     CTL2    -0.180000       12.0110           0
      6781 MEMB     46       DOPC     H12R     HAL2     0.900000E-01   1.00800           0
      6782 MEMB     46       DOPC     H12S     HAL2     0.900000E-01   1.00800           0
      6783 MEMB     46       DOPC     C213     CTL2    -0.180000       12.0110           0
      6784 MEMB     46       DOPC     H13R     HAL2     0.900000E-01   1.00800           0
      6785 MEMB     46       DOPC     H13S     HAL2     0.900000E-01   1.00800           0
      6786 MEMB     46       DOPC     C214     CTL2    -0.180000       12.0110           0
      6787 MEMB     46       DOPC     H14R     HAL2     0.900000E-01   1.00800           0
      6788 MEMB     46       DOPC     H14S     HAL2     0.900000E-01   1.00800           0
      6789 MEMB     46       DOPC     C215     CTL2    -0.180000       12.0110           0
      6790 MEMB     46       DOPC     H15R     HAL2     0.900000E-01   1.00800           0
      6791 MEMB     46       DOPC     H15S     HAL2     0.900000E-01   1.00800           0
      6792 MEMB     46       DOPC     C216     CTL2    -0.180000       12.0110           0
      6793 MEMB     46       DOPC     H16R     HAL2     0.900000E-01   1.00800           0
      6794 MEMB     46       DOPC     H16S     HAL2     0.900000E-01   1.00800           0
      6795 MEMB     46       DOPC     C217     CTL2    -0.180000       12.0110           0
      6796 MEMB     46       DOPC     H17R     HAL2     0.900000E-01   1.00800           0
      6797 MEMB     46       DOPC     H17S     HAL2     0.900000E-01   1.00800           0
      6798 MEMB     46       DOPC     C218     CTL3    -0.270000       12.0110           0
      6799 MEMB     46       DOPC     H18R     HAL3     0.900000E-01   1.00800           0
      6800 MEMB     46       DOPC     H18S     HAL3     0.900000E-01   1.00800           0
      6801 MEMB     46       DOPC     H18T     HAL3     0.900000E-01   1.00800           0
      6802 MEMB     46       DOPC     C33      CTL2    -0.180000       12.0110           0
      6803 MEMB     46       DOPC     H3X      HAL2     0.900000E-01   1.00800           0
      6804 MEMB     46       DOPC     H3Y      HAL2     0.900000E-01   1.00800           0
      6805 MEMB     46       DOPC     C34      CTL2    -0.180000       12.0110           0
      6806 MEMB     46       DOPC     H4X      HAL2     0.900000E-01   1.00800           0
      6807 MEMB     46       DOPC     H4Y      HAL2     0.900000E-01   1.00800           0
      6808 MEMB     46       DOPC     C35      CTL2    -0.180000       12.0110           0
      6809 MEMB     46       DOPC     H5X      HAL2     0.900000E-01   1.00800           0
      6810 MEMB     46       DOPC     H5Y      HAL2     0.900000E-01   1.00800           0
      6811 MEMB     46       DOPC     C36      CTL2    -0.180000       12.0110           0
      6812 MEMB     46       DOPC     H6X      HAL2     0.900000E-01   1.00800           0
      6813 MEMB     46       DOPC     H6Y      HAL2     0.900000E-01   1.00800           0
      6814 MEMB     46       DOPC     C37      CTL2    -0.180000       12.0110           0
      6815 MEMB     46       DOPC     H7X      HAL2     0.900000E-01   1.00800           0
      6816 MEMB     46       DOPC     H7Y      HAL2     0.900000E-01   1.00800           0
      6817 MEMB     46       DOPC     C38      CTL2    -0.180000       12.0110           0
      6818 MEMB     46       DOPC     H8X      HAL2     0.900000E-01   1.00800           0
      6819 MEMB     46       DOPC     H8Y      HAL2     0.900000E-01   1.00800           0
      6820 MEMB     46       DOPC     C39      CEL1    -0.150000       12.0110           0
      6821 MEMB     46       DOPC     H9X      HEL1     0.150000       1.00800           0
      6822 MEMB     46       DOPC     C310     CEL1    -0.150000       12.0110           0
      6823 MEMB     46       DOPC     H10X     HEL1     0.150000       1.00800           0
      6824 MEMB     46       DOPC     C311     CTL2    -0.180000       12.0110           0
      6825 MEMB     46       DOPC     H11X     HAL2     0.900000E-01   1.00800           0
      6826 MEMB     46       DOPC     H11Y     HAL2     0.900000E-01   1.00800           0
      6827 MEMB     46       DOPC     C312     CTL2    -0.180000       12.0110           0
      6828 MEMB     46       DOPC     H12X     HAL2     0.900000E-01   1.00800           0
      6829 MEMB     46       DOPC     H12Y     HAL2     0.900000E-01   1.00800           0
      6830 MEMB     46       DOPC     C313     CTL2    -0.180000       12.0110           0
      6831 MEMB     46       DOPC     H13X     HAL2     0.900000E-01   1.00800           0
      6832 MEMB     46       DOPC     H13Y     HAL2     0.900000E-01   1.00800           0
      6833 MEMB     46       DOPC     C314     CTL2    -0.180000       12.0110           0
      6834 MEMB     46       DOPC     H14X     HAL2     0.900000E-01   1.00800           0
      6835 MEMB     46       DOPC     H14Y     HAL2     0.900000E-01   1.00800           0
      6836 MEMB     46       DOPC     C315     CTL2    -0.180000       12.0110           0
      6837 MEMB     46       DOPC     H15X     HAL2     0.900000E-01   1.00800           0
      6838 MEMB     46       DOPC     H15Y     HAL2     0.900000E-01   1.00800           0
      6839 MEMB     46       DOPC     C316     CTL2    -0.180000       12.0110           0
      6840 MEMB     46       DOPC     H16X     HAL2     0.900000E-01   1.00800           0
      6841 MEMB     46       DOPC     H16Y     HAL2     0.900000E-01   1.00800           0
      6842 MEMB     46       DOPC     C317     CTL2    -0.180000       12.0110           0
      6843 MEMB     46       DOPC     H17X     HAL2     0.900000E-01   1.00800           0
      6844 MEMB     46       DOPC     H17Y     HAL2     0.900000E-01   1.00800           0
      6845 MEMB     46       DOPC     C318     CTL3    -0.270000       12.0110           0
      6846 MEMB     46       DOPC     H18X     HAL3     0.900000E-01   1.00800           0
      6847 MEMB     46       DOPC     H18Y     HAL3     0.900000E-01   1.00800           0
      6848 MEMB     46       DOPC     H18Z     HAL3     0.900000E-01   1.00800           0
      6849 MEMB     47       DOPC     N        NTL     -0.600000       14.0070           0
      6850 MEMB     47       DOPC     C12      CTL2    -0.100000       12.0110           0
      6851 MEMB     47       DOPC     H12A     HL       0.250000       1.00800           0
      6852 MEMB     47       DOPC     H12B     HL       0.250000       1.00800           0
      6853 MEMB     47       DOPC     C13      CTL5    -0.350000       12.0110           0
      6854 MEMB     47       DOPC     H13A     HL       0.250000       1.00800           0
      6855 MEMB     47       DOPC     H13B     HL       0.250000       1.00800           0
      6856 MEMB     47       DOPC     H13C     HL       0.250000       1.00800           0
      6857 MEMB     47       DOPC     C14      CTL5    -0.350000       12.0110           0
      6858 MEMB     47       DOPC     H14A     HL       0.250000       1.00800           0
      6859 MEMB     47       DOPC     H14B     HL       0.250000       1.00800           0
      6860 MEMB     47       DOPC     H14C     HL       0.250000       1.00800           0
      6861 MEMB     47       DOPC     C15      CTL5    -0.350000       12.0110           0
      6862 MEMB     47       DOPC     H15A     HL       0.250000       1.00800           0
      6863 MEMB     47       DOPC     H15B     HL       0.250000       1.00800           0
      6864 MEMB     47       DOPC     H15C     HL       0.250000       1.00800           0
      6865 MEMB     47       DOPC     C11      CTL2    -0.800000E-01   12.0110           0
      6866 MEMB     47       DOPC     H11A     HAL2     0.900000E-01   1.00800           0
      6867 MEMB     47       DOPC     H11B     HAL2     0.900000E-01   1.00800           0
      6868 MEMB     47       DOPC     P        PL        1.50000       30.9740           0
      6869 MEMB     47       DOPC     O13      O2L     -0.780000       15.9994           0
      6870 MEMB     47       DOPC     O14      O2L     -0.780000       15.9994           0
      6871 MEMB     47       DOPC     O12      OSLP    -0.570000       15.9994           0
      6872 MEMB     47       DOPC     O11      OSLP    -0.570000       15.9994           0
      6873 MEMB     47       DOPC     C1       CTL2    -0.800000E-01   12.0110           0
      6874 MEMB     47       DOPC     HA       HAL2     0.900000E-01   1.00800           0
      6875 MEMB     47       DOPC     HB       HAL2     0.900000E-01   1.00800           0
      6876 MEMB     47       DOPC     C2       CTL1     0.170000       12.0110           0
      6877 MEMB     47       DOPC     HS       HAL1     0.900000E-01   1.00800           0
      6878 MEMB     47       DOPC     O21      OSL     -0.490000       15.9994           0
      6879 MEMB     47       DOPC     C21      CL       0.900000       12.0110           0
      6880 MEMB     47       DOPC     O22      OBL     -0.630000       15.9994           0
      6881 MEMB     47       DOPC     C22      CTL2    -0.220000       12.0110           0
      6882 MEMB     47       DOPC     H2R      HAL2     0.900000E-01   1.00800           0
      6883 MEMB     47       DOPC     H2S      HAL2     0.900000E-01   1.00800           0
      6884 MEMB     47       DOPC     C3       CTL2     0.800000E-01   12.0110           0
      6885 MEMB     47       DOPC     HX       HAL2     0.900000E-01   1.00800           0
      6886 MEMB     47       DOPC     HY       HAL2     0.900000E-01   1.00800           0
      6887 MEMB     47       DOPC     O31      OSL     -0.490000       15.9994           0
      6888 MEMB     47       DOPC     C31      CL       0.900000       12.0110           0
      6889 MEMB     47       DOPC     O32      OBL     -0.630000       15.9994           0
      6890 MEMB     47       DOPC     C32      CTL2    -0.220000       12.0110           0
      6891 MEMB     47       DOPC     H2X      HAL2     0.900000E-01   1.00800           0
      6892 MEMB     47       DOPC     H2Y      HAL2     0.900000E-01   1.00800           0
      6893 MEMB     47       DOPC     C23      CTL2    -0.180000       12.0110           0
      6894 MEMB     47       DOPC     H3R      HAL2     0.900000E-01   1.00800           0
      6895 MEMB     47       DOPC     H3S      HAL2     0.900000E-01   1.00800           0
      6896 MEMB     47       DOPC     C24      CTL2    -0.180000       12.0110           0
      6897 MEMB     47       DOPC     H4R      HAL2     0.900000E-01   1.00800           0
      6898 MEMB     47       DOPC     H4S      HAL2     0.900000E-01   1.00800           0
      6899 MEMB     47       DOPC     C25      CTL2    -0.180000       12.0110           0
      6900 MEMB     47       DOPC     H5R      HAL2     0.900000E-01   1.00800           0
      6901 MEMB     47       DOPC     H5S      HAL2     0.900000E-01   1.00800           0
      6902 MEMB     47       DOPC     C26      CTL2    -0.180000       12.0110           0
      6903 MEMB     47       DOPC     H6R      HAL2     0.900000E-01   1.00800           0
      6904 MEMB     47       DOPC     H6S      HAL2     0.900000E-01   1.00800           0
      6905 MEMB     47       DOPC     C27      CTL2    -0.180000       12.0110           0
      6906 MEMB     47       DOPC     H7R      HAL2     0.900000E-01   1.00800           0
      6907 MEMB     47       DOPC     H7S      HAL2     0.900000E-01   1.00800           0
      6908 MEMB     47       DOPC     C28      CTL2    -0.180000       12.0110           0
      6909 MEMB     47       DOPC     H8R      HAL2     0.900000E-01   1.00800           0
      6910 MEMB     47       DOPC     H8S      HAL2     0.900000E-01   1.00800           0
      6911 MEMB     47       DOPC     C29      CEL1    -0.150000       12.0110           0
      6912 MEMB     47       DOPC     H9R      HEL1     0.150000       1.00800           0
      6913 MEMB     47       DOPC     C210     CEL1    -0.150000       12.0110           0
      6914 MEMB     47       DOPC     H10R     HEL1     0.150000       1.00800           0
      6915 MEMB     47       DOPC     C211     CTL2    -0.180000       12.0110           0
      6916 MEMB     47       DOPC     H11R     HAL2     0.900000E-01   1.00800           0
      6917 MEMB     47       DOPC     H11S     HAL2     0.900000E-01   1.00800           0
      6918 MEMB     47       DOPC     C212     CTL2    -0.180000       12.0110           0
      6919 MEMB     47       DOPC     H12R     HAL2     0.900000E-01   1.00800           0
      6920 MEMB     47       DOPC     H12S     HAL2     0.900000E-01   1.00800           0
      6921 MEMB     47       DOPC     C213     CTL2    -0.180000       12.0110           0
      6922 MEMB     47       DOPC     H13R     HAL2     0.900000E-01   1.00800           0
      6923 MEMB     47       DOPC     H13S     HAL2     0.900000E-01   1.00800           0
      6924 MEMB     47       DOPC     C214     CTL2    -0.180000       12.0110           0
      6925 MEMB     47       DOPC     H14R     HAL2     0.900000E-01   1.00800           0
      6926 MEMB     47       DOPC     H14S     HAL2     0.900000E-01   1.00800           0
      6927 MEMB     47       DOPC     C215     CTL2    -0.180000       12.0110           0
      6928 MEMB     47       DOPC     H15R     HAL2     0.900000E-01   1.00800           0
      6929 MEMB     47       DOPC     H15S     HAL2     0.900000E-01   1.00800           0
      6930 MEMB     47       DOPC     C216     CTL2    -0.180000       12.0110           0
      6931 MEMB     47       DOPC     H16R     HAL2     0.900000E-01   1.00800           0
      6932 MEMB     47       DOPC     H16S     HAL2     0.900000E-01   1.00800           0
      6933 MEMB     47       DOPC     C217     CTL2    -0.180000       12.0110           0
      6934 MEMB     47       DOPC     H17R     HAL2     0.900000E-01   1.00800           0
      6935 MEMB     47       DOPC     H17S     HAL2     0.900000E-01   1.00800           0
      6936 MEMB     47       DOPC     C218     CTL3    -0.270000       12.0110           0
      6937 MEMB     47       DOPC     H18R     HAL3     0.900000E-01   1.00800           0
      6938 MEMB     47       DOPC     H18S     HAL3     0.900000E-01   1.00800           0
      6939 MEMB     47       DOPC     H18T     HAL3     0.900000E-01   1.00800           0
      6940 MEMB     47       DOPC     C33      CTL2    -0.180000       12.0110           0
      6941 MEMB     47       DOPC     H3X      HAL2     0.900000E-01   1.00800           0
      6942 MEMB     47       DOPC     H3Y      HAL2     0.900000E-01   1.00800           0
      6943 MEMB     47       DOPC     C34      CTL2    -0.180000       12.0110           0
      6944 MEMB     47       DOPC     H4X      HAL2     0.900000E-01   1.00800           0
      6945 MEMB     47       DOPC     H4Y      HAL2     0.900000E-01   1.00800           0
      6946 MEMB     47       DOPC     C35      CTL2    -0.180000       12.0110           0
      6947 MEMB     47       DOPC     H5X      HAL2     0.900000E-01   1.00800           0
      6948 MEMB     47       DOPC     H5Y      HAL2     0.900000E-01   1.00800           0
      6949 MEMB     47       DOPC     C36      CTL2    -0.180000       12.0110           0
      6950 MEMB     47       DOPC     H6X      HAL2     0.900000E-01   1.00800           0
      6951 MEMB     47       DOPC     H6Y      HAL2     0.900000E-01   1.00800           0
      6952 MEMB     47       DOPC     C37      CTL2    -0.180000       12.0110           0
      6953 MEMB     47       DOPC     H7X      HAL2     0.900000E-01   1.00800           0
      6954 MEMB     47       DOPC     H7Y      HAL2     0.900000E-01   1.00800           0
      6955 MEMB     47       DOPC     C38      CTL2    -0.180000       12.0110           0
      6956 MEMB     47       DOPC     H8X      HAL2     0.900000E-01   1.00800           0
      6957 MEMB     47       DOPC     H8Y      HAL2     0.900000E-01   1.00800           0
      6958 MEMB     47       DOPC     C39      CEL1    -0.150000       12.0110           0
      6959 MEMB     47       DOPC     H9X      HEL1     0.150000       1.00800           0
      6960 MEMB     47       DOPC     C310     CEL1    -0.150000       12.0110           0
      6961 MEMB     47       DOPC     H10X     HEL1     0.150000       1.00800           0
      6962 MEMB     47       DOPC     C311     CTL2    -0.180000       12.0110           0
      6963 MEMB     47       DOPC     H11X     HAL2     0.900000E-01   1.00800           0
      6964 MEMB     47       DOPC     H11Y     HAL2     0.900000E-01   1.00800           0
      6965 MEMB     47       DOPC     C312     CTL2    -0.180000       12.0110           0
      6966 MEMB     47       DOPC     H12X     HAL2     0.900000E-01   1.00800           0
      6967 MEMB     47       DOPC     H12Y     HAL2     0.900000E-01   1.00800           0
      6968 MEMB     47       DOPC     C313     CTL2    -0.180000       12.0110           0
      6969 MEMB     47       DOPC     H13X     HAL2     0.900000E-01   1.00800           0
      6970 MEMB     47       DOPC     H13Y     HAL2     0.900000E-01   1.00800           0
      6971 MEMB     47       DOPC     C314     CTL2    -0.180000       12.0110           0
      6972 MEMB     47       DOPC     H14X     HAL2     0.900000E-01   1.00800           0
      6973 MEMB     47       DOPC     H14Y     HAL2     0.900000E-01   1.00800           0
      6974 MEMB     47       DOPC     C315     CTL2    -0.180000       12.0110           0
      6975 MEMB     47       DOPC     H15X     HAL2     0.900000E-01   1.00800           0
      6976 MEMB     47       DOPC     H15Y     HAL2     0.900000E-01   1.00800           0
      6977 MEMB     47       DOPC     C316     CTL2    -0.180000       12.0110           0
      6978 MEMB     47       DOPC     H16X     HAL2     0.900000E-01   1.00800           0
      6979 MEMB     47       DOPC     H16Y     HAL2     0.900000E-01   1.00800           0
      6980 MEMB     47       DOPC     C317     CTL2    -0.180000       12.0110           0
      6981 MEMB     47       DOPC     H17X     HAL2     0.900000E-01   1.00800           0
      6982 MEMB     47       DOPC     H17Y     HAL2     0.900000E-01   1.00800           0
      6983 MEMB     47       DOPC     C318     CTL3    -0.270000       12.0110           0
      6984 MEMB     47       DOPC     H18X     HAL3     0.900000E-01   1.00800           0
      6985 MEMB     47       DOPC     H18Y     HAL3     0.900000E-01   1.00800           0
      6986 MEMB     47       DOPC     H18Z     HAL3     0.900000E-01   1.00800           0
      6987 MEMB     48       DOPC     N        NTL     -0.600000       14.0070           0
      6988 MEMB     48       DOPC     C12      CTL2    -0.100000       12.0110           0
      6989 MEMB     48       DOPC     H12A     HL       0.250000       1.00800           0
      6990 MEMB     48       DOPC     H12B     HL       0.250000       1.00800           0
      6991 MEMB     48       DOPC     C13      CTL5    -0.350000       12.0110           0
      6992 MEMB     48       DOPC     H13A     HL       0.250000       1.00800           0
      6993 MEMB     48       DOPC     H13B     HL       0.250000       1.00800           0
      6994 MEMB     48       DOPC     H13C     HL       0.250000       1.00800           0
      6995 MEMB     48       DOPC     C14      CTL5    -0.350000       12.0110           0
      6996 MEMB     48       DOPC     H14A     HL       0.250000       1.00800           0
      6997 MEMB     48       DOPC     H14B     HL       0.250000       1.00800           0
      6998 MEMB     48       DOPC     H14C     HL       0.250000       1.00800           0
      6999 MEMB     48       DOPC     C15      CTL5    -0.350000       12.0110           0
      7000 MEMB     48       DOPC     H15A     HL       0.250000       1.00800           0
      7001 MEMB     48       DOPC     H15B     HL       0.250000       1.00800           0
      7002 MEMB     48       DOPC     H15C     HL       0.250000       1.00800           0
      7003 MEMB     48       DOPC     C11      CTL2    -0.800000E-01   12.0110           0
      7004 MEMB     48       DOPC     H11A     HAL2     0.900000E-01   1.00800           0
      7005 MEMB     48       DOPC     H11B     HAL2     0.900000E-01   1.00800           0
      7006 MEMB     48       DOPC     P        PL        1.50000       30.9740           0
      7007 MEMB     48       DOPC     O13      O2L     -0.780000       15.9994           0
      7008 MEMB     48       DOPC     O14      O2L     -0.780000       15.9994           0
      7009 MEMB     48       DOPC     O12      OSLP    -0.570000       15.9994           0
      7010 MEMB     48       DOPC     O11      OSLP    -0.570000       15.9994           0
      7011 MEMB     48       DOPC     C1       CTL2    -0.800000E-01   12.0110           0
      7012 MEMB     48       DOPC     HA       HAL2     0.900000E-01   1.00800           0
      7013 MEMB     48       DOPC     HB       HAL2     0.900000E-01   1.00800           0
      7014 MEMB     48       DOPC     C2       CTL1     0.170000       12.0110           0
      7015 MEMB     48       DOPC     HS       HAL1     0.900000E-01   1.00800           0
      7016 MEMB     48       DOPC     O21      OSL     -0.490000       15.9994           0
      7017 MEMB     48       DOPC     C21      CL       0.900000       12.0110           0
      7018 MEMB     48       DOPC     O22      OBL     -0.630000       15.9994           0
      7019 MEMB     48       DOPC     C22      CTL2    -0.220000       12.0110           0
      7020 MEMB     48       DOPC     H2R      HAL2     0.900000E-01   1.00800           0
      7021 MEMB     48       DOPC     H2S      HAL2     0.900000E-01   1.00800           0
      7022 MEMB     48       DOPC     C3       CTL2     0.800000E-01   12.0110           0
      7023 MEMB     48       DOPC     HX       HAL2     0.900000E-01   1.00800           0
      7024 MEMB     48       DOPC     HY       HAL2     0.900000E-01   1.00800           0
      7025 MEMB     48       DOPC     O31      OSL     -0.490000       15.9994           0
      7026 MEMB     48       DOPC     C31      CL       0.900000       12.0110           0
      7027 MEMB     48       DOPC     O32      OBL     -0.630000       15.9994           0
      7028 MEMB     48       DOPC     C32      CTL2    -0.220000       12.0110           0
      7029 MEMB     48       DOPC     H2X      HAL2     0.900000E-01   1.00800           0
      7030 MEMB     48       DOPC     H2Y      HAL2     0.900000E-01   1.00800           0
      7031 MEMB     48       DOPC     C23      CTL2    -0.180000       12.0110           0
      7032 MEMB     48       DOPC     H3R      HAL2     0.900000E-01   1.00800           0
      7033 MEMB     48       DOPC     H3S      HAL2     0.900000E-01   1.00800           0
      7034 MEMB     48       DOPC     C24      CTL2    -0.180000       12.0110           0
      7035 MEMB     48       DOPC     H4R      HAL2     0.900000E-01   1.00800           0
      7036 MEMB     48       DOPC     H4S      HAL2     0.900000E-01   1.00800           0
      7037 MEMB     48       DOPC     C25      CTL2    -0.180000       12.0110           0
      7038 MEMB     48       DOPC     H5R      HAL2     0.900000E-01   1.00800           0
      7039 MEMB     48       DOPC     H5S      HAL2     0.900000E-01   1.00800           0
      7040 MEMB     48       DOPC     C26      CTL2    -0.180000       12.0110           0
      7041 MEMB     48       DOPC     H6R      HAL2     0.900000E-01   1.00800           0
      7042 MEMB     48       DOPC     H6S      HAL2     0.900000E-01   1.00800           0
      7043 MEMB     48       DOPC     C27      CTL2    -0.180000       12.0110           0
      7044 MEMB     48       DOPC     H7R      HAL2     0.900000E-01   1.00800           0
      7045 MEMB     48       DOPC     H7S      HAL2     0.900000E-01   1.00800           0
      7046 MEMB     48       DOPC     C28      CTL2    -0.180000       12.0110           0
      7047 MEMB     48       DOPC     H8R      HAL2     0.900000E-01   1.00800           0
      7048 MEMB     48       DOPC     H8S      HAL2     0.900000E-01   1.00800           0
      7049 MEMB     48       DOPC     C29      CEL1    -0.150000       12.0110           0
      7050 MEMB     48       DOPC     H9R      HEL1     0.150000       1.00800           0
      7051 MEMB     48       DOPC     C210     CEL1    -0.150000       12.0110           0
      7052 MEMB     48       DOPC     H10R     HEL1     0.150000       1.00800           0
      7053 MEMB     48       DOPC     C211     CTL2    -0.180000       12.0110           0
      7054 MEMB     48       DOPC     H11R     HAL2     0.900000E-01   1.00800           0
      7055 MEMB     48       DOPC     H11S     HAL2     0.900000E-01   1.00800           0
      7056 MEMB     48       DOPC     C212     CTL2    -0.180000       12.0110           0
      7057 MEMB     48       DOPC     H12R     HAL2     0.900000E-01   1.00800           0
      7058 MEMB     48       DOPC     H12S     HAL2     0.900000E-01   1.00800           0
      7059 MEMB     48       DOPC     C213     CTL2    -0.180000       12.0110           0
      7060 MEMB     48       DOPC     H13R     HAL2     0.900000E-01   1.00800           0
      7061 MEMB     48       DOPC     H13S     HAL2     0.900000E-01   1.00800           0
      7062 MEMB     48       DOPC     C214     CTL2    -0.180000       12.0110           0
      7063 MEMB     48       DOPC     H14R     HAL2     0.900000E-01   1.00800           0
      7064 MEMB     48       DOPC     H14S     HAL2     0.900000E-01   1.00800           0
      7065 MEMB     48       DOPC     C215     CTL2    -0.180000       12.0110           0
      7066 MEMB     48       DOPC     H15R     HAL2     0.900000E-01   1.00800           0
      7067 MEMB     48       DOPC     H15S     HAL2     0.900000E-01   1.00800           0
      7068 MEMB     48       DOPC     C216     CTL2    -0.180000       12.0110           0
      7069 MEMB     48       DOPC     H16R     HAL2     0.900000E-01   1.00800           0
      7070 MEMB     48       DOPC     H16S     HAL2     0.900000E-01   1.00800           0
      7071 MEMB     48       DOPC     C217     CTL2    -0.180000       12.0110           0
      7072 MEMB     48       DOPC     H17R     HAL2     0.900000E-01   1.00800           0
      7073 MEMB     48       DOPC     H17S     HAL2     0.900000E-01   1.00800           0
      7074 MEMB     48       DOPC     C218     CTL3    -0.270000       12.0110           0
      7075 MEMB     48       DOPC     H18R     HAL3     0.900000E-01   1.00800           0
      7076 MEMB     48       DOPC     H18S     HAL3     0.900000E-01   1.00800           0
      7077 MEMB     48       DOPC     H18T     HAL3     0.900000E-01   1.00800           0
      7078 MEMB     48       DOPC     C33      CTL2    -0.180000       12.0110           0
      7079 MEMB     48       DOPC     H3X      HAL2     0.900000E-01   1.00800           0
      7080 MEMB     48       DOPC     H3Y      HAL2     0.900000E-01   1.00800           0
      7081 MEMB     48       DOPC     C34      CTL2    -0.180000       12.0110           0
      7082 MEMB     48       DOPC     H4X      HAL2     0.900000E-01   1.00800           0
      7083 MEMB     48       DOPC     H4Y      HAL2     0.900000E-01   1.00800           0
      7084 MEMB     48       DOPC     C35      CTL2    -0.180000       12.0110           0
      7085 MEMB     48       DOPC     H5X      HAL2     0.900000E-01   1.00800           0
      7086 MEMB     48       DOPC     H5Y      HAL2     0.900000E-01   1.00800           0
      7087 MEMB     48       DOPC     C36      CTL2    -0.180000       12.0110           0
      7088 MEMB     48       DOPC     H6X      HAL2     0.900000E-01   1.00800           0
      7089 MEMB     48       DOPC     H6Y      HAL2     0.900000E-01   1.00800           0
      7090 MEMB     48       DOPC     C37      CTL2    -0.180000       12.0110           0
      7091 MEMB     48       DOPC     H7X      HAL2     0.900000E-01   1.00800           0
      7092 MEMB     48       DOPC     H7Y      HAL2     0.900000E-01   1.00800           0
      7093 MEMB     48       DOPC     C38      CTL2    -0.180000       12.0110           0
      7094 MEMB     48       DOPC     H8X      HAL2     0.900000E-01   1.00800           0
      7095 MEMB     48       DOPC     H8Y      HAL2     0.900000E-01   1.00800           0
      7096 MEMB     48       DOPC     C39      CEL1    -0.150000       12.0110           0
      7097 MEMB     48       DOPC     H9X      HEL1     0.150000       1.00800           0
      7098 MEMB     48       DOPC     C310     CEL1    -0.150000       12.0110           0
      7099 MEMB     48       DOPC     H10X     HEL1     0.150000       1.00800           0
      7100 MEMB     48       DOPC     C311     CTL2    -0.180000       12.0110           0
      7101 MEMB     48       DOPC     H11X     HAL2     0.900000E-01   1.00800           0
      7102 MEMB     48       DOPC     H11Y     HAL2     0.900000E-01   1.00800           0
      7103 MEMB     48       DOPC     C312     CTL2    -0.180000       12.0110           0
      7104 MEMB     48       DOPC     H12X     HAL2     0.900000E-01   1.00800           0
      7105 MEMB     48       DOPC     H12Y     HAL2     0.900000E-01   1.00800           0
      7106 MEMB     48       DOPC     C313     CTL2    -0.180000       12.0110           0
      7107 MEMB     48       DOPC     H13X     HAL2     0.900000E-01   1.00800           0
      7108 MEMB     48       DOPC     H13Y     HAL2     0.900000E-01   1.00800           0
      7109 MEMB     48       DOPC     C314     CTL2    -0.180000       12.0110           0
      7110 MEMB     48       DOPC     H14X     HAL2     0.900000E-01   1.00800           0
      7111 MEMB     48       DOPC     H14Y     HAL2     0.900000E-01   1.00800           0
      7112 MEMB     48       DOPC     C315     CTL2    -0.180000       12.0110           0
      7113 MEMB     48       DOPC     H15X     HAL2     0.900000E-01   1.00800           0
      7114 MEMB     48       DOPC     H15Y     HAL2     0.900000E-01   1.00800           0
      7115 MEMB     48       DOPC     C316     CTL2    -0.180000       12.0110           0
      7116 MEMB     48       DOPC     H16X     HAL2     0.900000E-01   1.00800           0
      7117 MEMB     48       DOPC     H16Y     HAL2     0.900000E-01   1.00800           0
      7118 MEMB     48       DOPC     C317     CTL2    -0.180000       12.0110           0
      7119 MEMB     48       DOPC     H17X     HAL2     0.900000E-01   1.00800           0
      7120 MEMB     48       DOPC     H17Y     HAL2     0.900000E-01   1.00800           0
      7121 MEMB     48       DOPC     C318     CTL3    -0.270000       12.0110           0
      7122 MEMB     48       DOPC     H18X     HAL3     0.900000E-01   1.00800           0
      7123 MEMB     48       DOPC     H18Y     HAL3     0.900000E-01   1.00800           0
      7124 MEMB     48       DOPC     H18Z     HAL3     0.900000E-01   1.00800           0
      7125 MEMB     49       DOPC     N        NTL     -0.600000       14.0070           0
      7126 MEMB     49       DOPC     C12      CTL2    -0.100000       12.0110           0
      7127 MEMB     49       DOPC     H12A     HL       0.250000       1.00800           0
      7128 MEMB     49       DOPC     H12B     HL       0.250000       1.00800           0
      7129 MEMB     49       DOPC     C13      CTL5    -0.350000       12.0110           0
      7130 MEMB     49       DOPC     H13A     HL       0.250000       1.00800           0
      7131 MEMB     49       DOPC     H13B     HL       0.250000       1.00800           0
      7132 MEMB     49       DOPC     H13C     HL       0.250000       1.00800           0
      7133 MEMB     49       DOPC     C14      CTL5    -0.350000       12.0110           0
      7134 MEMB     49       DOPC     H14A     HL       0.250000       1.00800           0
      7135 MEMB     49       DOPC     H14B     HL       0.250000       1.00800           0
      7136 MEMB     49       DOPC     H14C     HL       0.250000       1.00800           0
      7137 MEMB     49       DOPC     C15      CTL5    -0.350000       12.0110           0
      7138 MEMB     49       DOPC     H15A     HL       0.250000       1.00800           0
      7139 MEMB     49       DOPC     H15B     HL       0.250000       1.00800           0
      7140 MEMB     49       DOPC     H15C     HL       0.250000       1.00800           0
      7141 MEMB     49       DOPC     C11      CTL2    -0.800000E-01   12.0110           0
      7142 MEMB     49       DOPC     H11A     HAL2     0.900000E-01   1.00800           0
      7143 MEMB     49       DOPC     H11B     HAL2     0.900000E-01   1.00800           0
      7144 MEMB     49       DOPC     P        PL        1.50000       30.9740           0
      7145 MEMB     49       DOPC     O13      O2L     -0.780000       15.9994           0
      7146 MEMB     49       DOPC     O14      O2L     -0.780000       15.9994           0
      7147 MEMB     49       DOPC     O12      OSLP    -0.570000       15.9994           0
      7148 MEMB     49       DOPC     O11      OSLP    -0.570000       15.9994           0
      7149 MEMB     49       DOPC     C1       CTL2    -0.800000E-01   12.0110           0
      7150 MEMB     49       DOPC     HA       HAL2     0.900000E-01   1.00800           0
      7151 MEMB     49       DOPC     HB       HAL2     0.900000E-01   1.00800           0
      7152 MEMB     49       DOPC     C2       CTL1     0.170000       12.0110           0
      7153 MEMB     49       DOPC     HS       HAL1     0.900000E-01   1.00800           0
      7154 MEMB     49       DOPC     O21      OSL     -0.490000       15.9994           0
      7155 MEMB     49       DOPC     C21      CL       0.900000       12.0110           0
      7156 MEMB     49       DOPC     O22      OBL     -0.630000       15.9994           0
      7157 MEMB     49       DOPC     C22      CTL2    -0.220000       12.0110           0
      7158 MEMB     49       DOPC     H2R      HAL2     0.900000E-01   1.00800           0
      7159 MEMB     49       DOPC     H2S      HAL2     0.900000E-01   1.00800           0
      7160 MEMB     49       DOPC     C3       CTL2     0.800000E-01   12.0110           0
      7161 MEMB     49       DOPC     HX       HAL2     0.900000E-01   1.00800           0
      7162 MEMB     49       DOPC     HY       HAL2     0.900000E-01   1.00800           0
      7163 MEMB     49       DOPC     O31      OSL     -0.490000       15.9994           0
      7164 MEMB     49       DOPC     C31      CL       0.900000       12.0110           0
      7165 MEMB     49       DOPC     O32      OBL     -0.630000       15.9994           0
      7166 MEMB     49       DOPC     C32      CTL2    -0.220000       12.0110           0
      7167 MEMB     49       DOPC     H2X      HAL2     0.900000E-01   1.00800           0
      7168 MEMB     49       DOPC     H2Y      HAL2     0.900000E-01   1.00800           0
      7169 MEMB     49       DOPC     C23      CTL2    -0.180000       12.0110           0
      7170 MEMB     49       DOPC     H3R      HAL2     0.900000E-01   1.00800           0
      7171 MEMB     49       DOPC     H3S      HAL2     0.900000E-01   1.00800           0
      7172 MEMB     49       DOPC     C24      CTL2    -0.180000       12.0110           0
      7173 MEMB     49       DOPC     H4R      HAL2     0.900000E-01   1.00800           0
      7174 MEMB     49       DOPC     H4S      HAL2     0.900000E-01   1.00800           0
      7175 MEMB     49       DOPC     C25      CTL2    -0.180000       12.0110           0
      7176 MEMB     49       DOPC     H5R      HAL2     0.900000E-01   1.00800           0
      7177 MEMB     49       DOPC     H5S      HAL2     0.900000E-01   1.00800           0
      7178 MEMB     49       DOPC     C26      CTL2    -0.180000       12.0110           0
      7179 MEMB     49       DOPC     H6R      HAL2     0.900000E-01   1.00800           0
      7180 MEMB     49       DOPC     H6S      HAL2     0.900000E-01   1.00800           0
      7181 MEMB     49       DOPC     C27      CTL2    -0.180000       12.0110           0
      7182 MEMB     49       DOPC     H7R      HAL2     0.900000E-01   1.00800           0
      7183 MEMB     49       DOPC     H7S      HAL2     0.900000E-01   1.00800           0
      7184 MEMB     49       DOPC     C28      CTL2    -0.180000       12.0110           0
      7185 MEMB     49       DOPC     H8R      HAL2     0.900000E-01   1.00800           0
      7186 MEMB     49       DOPC     H8S      HAL2     0.900000E-01   1.00800           0
      7187 MEMB     49       DOPC     C29      CEL1    -0.150000       12.0110           0
      7188 MEMB     49       DOPC     H9R      HEL1     0.150000       1.00800           0
      7189 MEMB     49       DOPC     C210     CEL1    -0.150000       12.0110           0
      7190 MEMB     49       DOPC     H10R     HEL1     0.150000       1.00800           0
      7191 MEMB     49       DOPC     C211     CTL2    -0.180000       12.0110           0
      7192 MEMB     49       DOPC     H11R     HAL2     0.900000E-01   1.00800           0
      7193 MEMB     49       DOPC     H11S     HAL2     0.900000E-01   1.00800           0
      7194 MEMB     49       DOPC     C212     CTL2    -0.180000       12.0110           0
      7195 MEMB     49       DOPC     H12R     HAL2     0.900000E-01   1.00800           0
      7196 MEMB     49       DOPC     H12S     HAL2     0.900000E-01   1.00800           0
      7197 MEMB     49       DOPC     C213     CTL2    -0.180000       12.0110           0
      7198 MEMB     49       DOPC     H13R     HAL2     0.900000E-01   1.00800           0
      7199 MEMB     49       DOPC     H13S     HAL2     0.900000E-01   1.00800           0
      7200 MEMB     49       DOPC     C214     CTL2    -0.180000       12.0110           0
      7201 MEMB     49       DOPC     H14R     HAL2     0.900000E-01   1.00800           0
      7202 MEMB     49       DOPC     H14S     HAL2     0.900000E-01   1.00800           0
      7203 MEMB     49       DOPC     C215     CTL2    -0.180000       12.0110           0
      7204 MEMB     49       DOPC     H15R     HAL2     0.900000E-01   1.00800           0
      7205 MEMB     49       DOPC     H15S     HAL2     0.900000E-01   1.00800           0
      7206 MEMB     49       DOPC     C216     CTL2    -0.180000       12.0110           0
      7207 MEMB     49       DOPC     H16R     HAL2     0.900000E-01   1.00800           0
      7208 MEMB     49       DOPC     H16S     HAL2     0.900000E-01   1.00800           0
      7209 MEMB     49       DOPC     C217     CTL2    -0.180000       12.0110           0
      7210 MEMB     49       DOPC     H17R     HAL2     0.900000E-01   1.00800           0
      7211 MEMB     49       DOPC     H17S     HAL2     0.900000E-01   1.00800           0
      7212 MEMB     49       DOPC     C218     CTL3    -0.270000       12.0110           0
      7213 MEMB     49       DOPC     H18R     HAL3     0.900000E-01   1.00800           0
      7214 MEMB     49       DOPC     H18S     HAL3     0.900000E-01   1.00800           0
      7215 MEMB     49       DOPC     H18T     HAL3     0.900000E-01   1.00800           0
      7216 MEMB     49       DOPC     C33      CTL2    -0.180000       12.0110           0
      7217 MEMB     49       DOPC     H3X      HAL2     0.900000E-01   1.00800           0
      7218 MEMB     49       DOPC     H3Y      HAL2     0.900000E-01   1.00800           0
      7219 MEMB     49       DOPC     C34      CTL2    -0.180000       12.0110           0
      7220 MEMB     49       DOPC     H4X      HAL2     0.900000E-01   1.00800           0
      7221 MEMB     49       DOPC     H4Y      HAL2     0.900000E-01   1.00800           0
      7222 MEMB     49       DOPC     C35      CTL2    -0.180000       12.0110           0
      7223 MEMB     49       DOPC     H5X      HAL2     0.900000E-01   1.00800           0
      7224 MEMB     49       DOPC     H5Y      HAL2     0.900000E-01   1.00800           0
      7225 MEMB     49       DOPC     C36      CTL2    -0.180000       12.0110           0
      7226 MEMB     49       DOPC     H6X      HAL2     0.900000E-01   1.00800           0
      7227 MEMB     49       DOPC     H6Y      HAL2     0.900000E-01   1.00800           0
      7228 MEMB     49       DOPC     C37      CTL2    -0.180000       12.0110           0
      7229 MEMB     49       DOPC     H7X      HAL2     0.900000E-01   1.00800           0
      7230 MEMB     49       DOPC     H7Y      HAL2     0.900000E-01   1.00800           0
      7231 MEMB     49       DOPC     C38      CTL2    -0.180000       12.0110           0
      7232 MEMB     49       DOPC     H8X      HAL2     0.900000E-01   1.00800           0
      7233 MEMB     49       DOPC     H8Y      HAL2     0.900000E-01   1.00800           0
      7234 MEMB     49       DOPC     C39      CEL1    -0.150000       12.0110           0
      7235 MEMB     49       DOPC     H9X      HEL1     0.150000       1.00800           0
      7236 MEMB     49       DOPC     C310     CEL1    -0.150000       12.0110           0
      7237 MEMB     49       DOPC     H10X     HEL1     0.150000       1.00800           0
      7238 MEMB     49       DOPC     C311     CTL2    -0.180000       12.0110           0
      7239 MEMB     49       DOPC     H11X     HAL2     0.900000E-01   1.00800           0
      7240 MEMB     49       DOPC     H11Y     HAL2     0.900000E-01   1.00800           0
      7241 MEMB     49       DOPC     C312     CTL2    -0.180000       12.0110           0
      7242 MEMB     49       DOPC     H12X     HAL2     0.900000E-01   1.00800           0
      7243 MEMB     49       DOPC     H12Y     HAL2     0.900000E-01   1.00800           0
      7244 MEMB     49       DOPC     C313     CTL2    -0.180000       12.0110           0
      7245 MEMB     49       DOPC     H13X     HAL2     0.900000E-01   1.00800           0
      7246 MEMB     49       DOPC     H13Y     HAL2     0.900000E-01   1.00800           0
      7247 MEMB     49       DOPC     C314     CTL2    -0.180000       12.0110           0
      7248 MEMB     49       DOPC     H14X     HAL2     0.900000E-01   1.00800           0
      7249 MEMB     49       DOPC     H14Y     HAL2     0.900000E-01   1.00800           0
      7250 MEMB     49       DOPC     C315     CTL2    -0.180000       12.0110           0
      7251 MEMB     49       DOPC     H15X     HAL2     0.900000E-01   1.00800           0
      7252 MEMB     49       DOPC     H15Y     HAL2     0.900000E-01   1.00800           0
      7253 MEMB     49       DOPC     C316     CTL2    -0.180000       12.0110           0
      7254 MEMB     49       DOPC     H16X     HAL2     0.900000E-01   1.00800           0
      7255 MEMB     49       DOPC     H16Y     HAL2     0.900000E-01   1.00800           0
      7256 MEMB     49       DOPC     C317     CTL2    -0.180000       12.0110           0
      7257 MEMB     49       DOPC     H17X     HAL2     0.900000E-01   1.00800           0
      7258 MEMB     49       DOPC     H17Y     HAL2     0.900000E-01   1.00800           0
      7259 MEMB     49       DOPC     C318     CTL3    -0.270000       12.0110           0
      7260 MEMB     49       DOPC     H18X     HAL3     0.900000E-01   1.00800           0
      7261 MEMB     49       DOPC     H18Y     HAL3     0.900000E-01   1.00800           0
      7262 MEMB     49       DOPC     H18Z     HAL3     0.900000E-01   1.00800           0
      7263 MEMB     50       DOPC     N        NTL     -0.600000       14.0070           0
      7264 MEMB     50       DOPC     C12      CTL2    -0.100000       12.0110           0
      7265 MEMB     50       DOPC     H12A     HL       0.250000       1.00800           0
      7266 MEMB     50       DOPC     H12B     HL       0.250000       1.00800           0
      7267 MEMB     50       DOPC     C13      CTL5    -0.350000       12.0110           0
      7268 MEMB     50       DOPC     H13A     HL       0.250000       1.00800           0
      7269 MEMB     50       DOPC     H13B     HL       0.250000       1.00800           0
      7270 MEMB     50       DOPC     H13C     HL       0.250000       1.00800           0
      7271 MEMB     50       DOPC     C14      CTL5    -0.350000       12.0110           0
      7272 MEMB     50       DOPC     H14A     HL       0.250000       1.00800           0
      7273 MEMB     50       DOPC     H14B     HL       0.250000       1.00800           0
      7274 MEMB     50       DOPC     H14C     HL       0.250000       1.00800           0
      7275 MEMB     50       DOPC     C15      CTL5    -0.350000       12.0110           0
      7276 MEMB     50       DOPC     H15A     HL       0.250000       1.00800           0
      7277 MEMB     50       DOPC     H15B     HL       0.250000       1.00800           0
      7278 MEMB     50       DOPC     H15C     HL       0.250000       1.00800           0
      7279 MEMB     50       DOPC     C11      CTL2    -0.800000E-01   12.0110           0
      7280 MEMB     50       DOPC     H11A     HAL2     0.900000E-01   1.00800           0
      7281 MEMB     50       DOPC     H11B     HAL2     0.900000E-01   1.00800           0
      7282 MEMB     50       DOPC     P        PL        1.50000       30.9740           0
      7283 MEMB     50       DOPC     O13      O2L     -0.780000       15.9994           0
      7284 MEMB     50       DOPC     O14      O2L     -0.780000       15.9994           0
      7285 MEMB     50       DOPC     O12      OSLP    -0.570000       15.9994           0
      7286 MEMB     50       DOPC     O11      OSLP    -0.570000       15.9994           0
      7287 MEMB     50       DOPC     C1       CTL2    -0.800000E-01   12.0110           0
      7288 MEMB     50       DOPC     HA       HAL2     0.900000E-01   1.00800           0
      7289 MEMB     50       DOPC     HB       HAL2     0.900000E-01   1.00800           0
      7290 MEMB     50       DOPC     C2       CTL1     0.170000       12.0110           0
      7291 MEMB     50       DOPC     HS       HAL1     0.900000E-01   1.00800           0
      7292 MEMB     50       DOPC     O21      OSL     -0.490000       15.9994           0
      7293 MEMB     50       DOPC     C21      CL       0.900000       12.0110           0
      7294 MEMB     50       DOPC     O22      OBL     -0.630000       15.9994           0
      7295 MEMB     50       DOPC     C22      CTL2    -0.220000       12.0110           0
      7296 MEMB     50       DOPC     H2R      HAL2     0.900000E-01   1.00800           0
      7297 MEMB     50       DOPC     H2S      HAL2     0.900000E-01   1.00800           0
      7298 MEMB     50       DOPC     C3       CTL2     0.800000E-01   12.0110           0
      7299 MEMB     50       DOPC     HX       HAL2     0.900000E-01   1.00800           0
      7300 MEMB     50       DOPC     HY       HAL2     0.900000E-01   1.00800           0
      7301 MEMB     50       DOPC     O31      OSL     -0.490000       15.9994           0
      7302 MEMB     50       DOPC     C31      CL       0.900000       12.0110           0
      7303 MEMB     50       DOPC     O32      OBL     -0.630000       15.9994           0
      7304 MEMB     50       DOPC     C32      CTL2    -0.220000       12.0110           0
      7305 MEMB     50       DOPC     H2X      HAL2     0.900000E-01   1.00800           0
      7306 MEMB     50       DOPC     H2Y      HAL2     0.900000E-01   1.00800           0
      7307 MEMB     50       DOPC     C23      CTL2    -0.180000       12.0110           0
      7308 MEMB     50       DOPC     H3R      HAL2     0.900000E-01   1.00800           0
      7309 MEMB     50       DOPC     H3S      HAL2     0.900000E-01   1.00800           0
      7310 MEMB     50       DOPC     C24      CTL2    -0.180000       12.0110           0
      7311 MEMB     50       DOPC     H4R      HAL2     0.900000E-01   1.00800           0
      7312 MEMB     50       DOPC     H4S      HAL2     0.900000E-01   1.00800           0
      7313 MEMB     50       DOPC     C25      CTL2    -0.180000       12.0110           0
      7314 MEMB     50       DOPC     H5R      HAL2     0.900000E-01   1.00800           0
      7315 MEMB     50       DOPC     H5S      HAL2     0.900000E-01   1.00800           0
      7316 MEMB     50       DOPC     C26      CTL2    -0.180000       12.0110           0
      7317 MEMB     50       DOPC     H6R      HAL2     0.900000E-01   1.00800           0
      7318 MEMB     50       DOPC     H6S      HAL2     0.900000E-01   1.00800           0
      7319 MEMB     50       DOPC     C27      CTL2    -0.180000       12.0110           0
      7320 MEMB     50       DOPC     H7R      HAL2     0.900000E-01   1.00800           0
      7321 MEMB     50       DOPC     H7S      HAL2     0.900000E-01   1.00800           0
      7322 MEMB     50       DOPC     C28      CTL2    -0.180000       12.0110           0
      7323 MEMB     50       DOPC     H8R      HAL2     0.900000E-01   1.00800           0
      7324 MEMB     50       DOPC     H8S      HAL2     0.900000E-01   1.00800           0
      7325 MEMB     50       DOPC     C29      CEL1    -0.150000       12.0110           0
      7326 MEMB     50       DOPC     H9R      HEL1     0.150000       1.00800           0
      7327 MEMB     50       DOPC     C210     CEL1    -0.150000       12.0110           0
      7328 MEMB     50       DOPC     H10R     HEL1     0.150000       1.00800           0
      7329 MEMB     50       DOPC     C211     CTL2    -0.180000       12.0110           0
      7330 MEMB     50       DOPC     H11R     HAL2     0.900000E-01   1.00800           0
      7331 MEMB     50       DOPC     H11S     HAL2     0.900000E-01   1.00800           0
      7332 MEMB     50       DOPC     C212     CTL2    -0.180000       12.0110           0
      7333 MEMB     50       DOPC     H12R     HAL2     0.900000E-01   1.00800           0
      7334 MEMB     50       DOPC     H12S     HAL2     0.900000E-01   1.00800           0
      7335 MEMB     50       DOPC     C213     CTL2    -0.180000       12.0110           0
      7336 MEMB     50       DOPC     H13R     HAL2     0.900000E-01   1.00800           0
      7337 MEMB     50       DOPC     H13S     HAL2     0.900000E-01   1.00800           0
      7338 MEMB     50       DOPC     C214     CTL2    -0.180000       12.0110           0
      7339 MEMB     50       DOPC     H14R     HAL2     0.900000E-01   1.00800           0
      7340 MEMB     50       DOPC     H14S     HAL2     0.900000E-01   1.00800           0
      7341 MEMB     50       DOPC     C215     CTL2    -0.180000       12.0110           0
      7342 MEMB     50       DOPC     H15R     HAL2     0.900000E-01   1.00800           0
      7343 MEMB     50       DOPC     H15S     HAL2     0.900000E-01   1.00800           0
      7344 MEMB     50       DOPC     C216     CTL2    -0.180000       12.0110           0
      7345 MEMB     50       DOPC     H16R     HAL2     0.900000E-01   1.00800           0
      7346 MEMB     50       DOPC     H16S     HAL2     0.900000E-01   1.00800           0
      7347 MEMB     50       DOPC     C217     CTL2    -0.180000       12.0110           0
      7348 MEMB     50       DOPC     H17R     HAL2     0.900000E-01   1.00800           0
      7349 MEMB     50       DOPC     H17S     HAL2     0.900000E-01   1.00800           0
      7350 MEMB     50       DOPC     C218     CTL3    -0.270000       12.0110           0
      7351 MEMB     50       DOPC     H18R     HAL3     0.900000E-01   1.00800           0
      7352 MEMB     50       DOPC     H18S     HAL3     0.900000E-01   1.00800           0
      7353 MEMB     50       DOPC     H18T     HAL3     0.900000E-01   1.00800           0
      7354 MEMB     50       DOPC     C33      CTL2    -0.180000       12.0110           0
      7355 MEMB     50       DOPC     H3X      HAL2     0.900000E-01   1.00800           0
      7356 MEMB     50       DOPC     H3Y      HAL2     0.900000E-01   1.00800           0
      7357 MEMB     50       DOPC     C34      CTL2    -0.180000       12.0110           0
      7358 MEMB     50       DOPC     H4X      HAL2     0.900000E-01   1.00800           0
      7359 MEMB     50       DOPC     H4Y      HAL2     0.900000E-01   1.00800           0
      7360 MEMB     50       DOPC     C35      CTL2    -0.180000       12.0110           0
      7361 MEMB     50       DOPC     H5X      HAL2     0.900000E-01   1.00800           0
      7362 MEMB     50       DOPC     H5Y      HAL2     0.900000E-01   1.00800           0
      7363 MEMB     50       DOPC     C36      CTL2    -0.180000       12.0110           0
      7364 MEMB     50       DOPC     H6X      HAL2     0.900000E-01   1.00800           0
      7365 MEMB     50       DOPC     H6Y      HAL2     0.900000E-01   1.00800           0
      7366 MEMB     50       DOPC     C37      CTL2    -0.180000       12.0110           0
      7367 MEMB     50       DOPC     H7X      HAL2     0.900000E-01   1.00800           0
      7368 MEMB     50       DOPC     H7Y      HAL2     0.900000E-01   1.00800           0
      7369 MEMB     50       DOPC     C38      CTL2    -0.180000       12.0110           0
      7370 MEMB     50       DOPC     H8X      HAL2     0.900000E-01   1.00800           0
      7371 MEMB     50       DOPC     H8Y      HAL2     0.900000E-01   1.00800           0
      7372 MEMB     50       DOPC     C39      CEL1    -0.150000       12.0110           0
      7373 MEMB     50       DOPC     H9X      HEL1     0.150000       1.00800           0
      7374 MEMB     50       DOPC     C310     CEL1    -0.150000       12.0110           0
      7375 MEMB     50       DOPC     H10X     HEL1     0.150000       1.00800           0
      7376 MEMB     50       DOPC     C311     CTL2    -0.180000       12.0110           0
      7377 MEMB     50       DOPC     H11X     HAL2     0.900000E-01   1.00800           0
      7378 MEMB     50       DOPC     H11Y     HAL2     0.900000E-01   1.00800           0
      7379 MEMB     50       DOPC     C312     CTL2    -0.180000       12.0110           0
      7380 MEMB     50       DOPC     H12X     HAL2     0.900000E-01   1.00800           0
      7381 MEMB     50       DOPC     H12Y     HAL2     0.900000E-01   1.00800           0
      7382 MEMB     50       DOPC     C313     CTL2    -0.180000       12.0110           0
      7383 MEMB     50       DOPC     H13X     HAL2     0.900000E-01   1.00800           0
      7384 MEMB     50       DOPC     H13Y     HAL2     0.900000E-01   1.00800           0
      7385 MEMB     50       DOPC     C314     CTL2    -0.180000       12.0110           0
      7386 MEMB     50       DOPC     H14X     HAL2     0.900000E-01   1.00800           0
      7387 MEMB     50       DOPC     H14Y     HAL2     0.900000E-01   1.00800           0
      7388 MEMB     50       DOPC     C315     CTL2    -0.180000       12.0110           0
      7389 MEMB     50       DOPC     H15X     HAL2     0.900000E-01   1.00800           0
      7390 MEMB     50       DOPC     H15Y     HAL2     0.900000E-01   1.00800           0
      7391 MEMB     50       DOPC     C316     CTL2    -0.180000       12.0110           0
      7392 MEMB     50       DOPC     H16X     HAL2     0.900000E-01   1.00800           0
      7393 MEMB     50       DOPC     H16Y     HAL2     0.900000E-01   1.00800           0
      7394 MEMB     50       DOPC     C317     CTL2    -0.180000       12.0110           0
      7395 MEMB     50       DOPC     H17X     HAL2     0.900000E-01   1.00800           0
      7396 MEMB     50       DOPC     H17Y     HAL2     0.900000E-01   1.00800           0
      7397 MEMB     50       DOPC     C318     CTL3    -0.270000       12.0110           0
      7398 MEMB     50       DOPC     H18X     HAL3     0.900000E-01   1.00800           0
      7399 MEMB     50       DOPC     H18Y     HAL3     0.900000E-01   1.00800           0
      7400 MEMB     50       DOPC     H18Z     HAL3     0.900000E-01   1.00800           0
      7401 MEMB     51       DOPC     N        NTL     -0.600000       14.0070           0
      7402 MEMB     51       DOPC     C12      CTL2    -0.100000       12.0110           0
      7403 MEMB     51       DOPC     H12A     HL       0.250000       1.00800           0
      7404 MEMB     51       DOPC     H12B     HL       0.250000       1.00800           0
      7405 MEMB     51       DOPC     C13      CTL5    -0.350000       12.0110           0
      7406 MEMB     51       DOPC     H13A     HL       0.250000       1.00800           0
      7407 MEMB     51       DOPC     H13B     HL       0.250000       1.00800           0
      7408 MEMB     51       DOPC     H13C     HL       0.250000       1.00800           0
      7409 MEMB     51       DOPC     C14      CTL5    -0.350000       12.0110           0
      7410 MEMB     51       DOPC     H14A     HL       0.250000       1.00800           0
      7411 MEMB     51       DOPC     H14B     HL       0.250000       1.00800           0
      7412 MEMB     51       DOPC     H14C     HL       0.250000       1.00800           0
      7413 MEMB     51       DOPC     C15      CTL5    -0.350000       12.0110           0
      7414 MEMB     51       DOPC     H15A     HL       0.250000       1.00800           0
      7415 MEMB     51       DOPC     H15B     HL       0.250000       1.00800           0
      7416 MEMB     51       DOPC     H15C     HL       0.250000       1.00800           0
      7417 MEMB     51       DOPC     C11      CTL2    -0.800000E-01   12.0110           0
      7418 MEMB     51       DOPC     H11A     HAL2     0.900000E-01   1.00800           0
      7419 MEMB     51       DOPC     H11B     HAL2     0.900000E-01   1.00800           0
      7420 MEMB     51       DOPC     P        PL        1.50000       30.9740           0
      7421 MEMB     51       DOPC     O13      O2L     -0.780000       15.9994           0
      7422 MEMB     51       DOPC     O14      O2L     -0.780000       15.9994           0
      7423 MEMB     51       DOPC     O12      OSLP    -0.570000       15.9994           0
      7424 MEMB     51       DOPC     O11      OSLP    -0.570000       15.9994           0
      7425 MEMB     51       DOPC     C1       CTL2    -0.800000E-01   12.0110           0
      7426 MEMB     51       DOPC     HA       HAL2     0.900000E-01   1.00800           0
      7427 MEMB     51       DOPC     HB       HAL2     0.900000E-01   1.00800           0
      7428 MEMB     51       DOPC     C2       CTL1     0.170000       12.0110           0
      7429 MEMB     51       DOPC     HS       HAL1     0.900000E-01   1.00800           0
      7430 MEMB     51       DOPC     O21      OSL     -0.490000       15.9994           0
      7431 MEMB     51       DOPC     C21      CL       0.900000       12.0110           0
      7432 MEMB     51       DOPC     O22      OBL     -0.630000       15.9994           0
      7433 MEMB     51       DOPC     C22      CTL2    -0.220000       12.0110           0
      7434 MEMB     51       DOPC     H2R      HAL2     0.900000E-01   1.00800           0
      7435 MEMB     51       DOPC     H2S      HAL2     0.900000E-01   1.00800           0
      7436 MEMB     51       DOPC     C3       CTL2     0.800000E-01   12.0110           0
      7437 MEMB     51       DOPC     HX       HAL2     0.900000E-01   1.00800           0
      7438 MEMB     51       DOPC     HY       HAL2     0.900000E-01   1.00800           0
      7439 MEMB     51       DOPC     O31      OSL     -0.490000       15.9994           0
      7440 MEMB     51       DOPC     C31      CL       0.900000       12.0110           0
      7441 MEMB     51       DOPC     O32      OBL     -0.630000       15.9994           0
      7442 MEMB     51       DOPC     C32      CTL2    -0.220000       12.0110           0
      7443 MEMB     51       DOPC     H2X      HAL2     0.900000E-01   1.00800           0
      7444 MEMB     51       DOPC     H2Y      HAL2     0.900000E-01   1.00800           0
      7445 MEMB     51       DOPC     C23      CTL2    -0.180000       12.0110           0
      7446 MEMB     51       DOPC     H3R      HAL2     0.900000E-01   1.00800           0
      7447 MEMB     51       DOPC     H3S      HAL2     0.900000E-01   1.00800           0
      7448 MEMB     51       DOPC     C24      CTL2    -0.180000       12.0110           0
      7449 MEMB     51       DOPC     H4R      HAL2     0.900000E-01   1.00800           0
      7450 MEMB     51       DOPC     H4S      HAL2     0.900000E-01   1.00800           0
      7451 MEMB     51       DOPC     C25      CTL2    -0.180000       12.0110           0
      7452 MEMB     51       DOPC     H5R      HAL2     0.900000E-01   1.00800           0
      7453 MEMB     51       DOPC     H5S      HAL2     0.900000E-01   1.00800           0
      7454 MEMB     51       DOPC     C26      CTL2    -0.180000       12.0110           0
      7455 MEMB     51       DOPC     H6R      HAL2     0.900000E-01   1.00800           0
      7456 MEMB     51       DOPC     H6S      HAL2     0.900000E-01   1.00800           0
      7457 MEMB     51       DOPC     C27      CTL2    -0.180000       12.0110           0
      7458 MEMB     51       DOPC     H7R      HAL2     0.900000E-01   1.00800           0
      7459 MEMB     51       DOPC     H7S      HAL2     0.900000E-01   1.00800           0
      7460 MEMB     51       DOPC     C28      CTL2    -0.180000       12.0110           0
      7461 MEMB     51       DOPC     H8R      HAL2     0.900000E-01   1.00800           0
      7462 MEMB     51       DOPC     H8S      HAL2     0.900000E-01   1.00800           0
      7463 MEMB     51       DOPC     C29      CEL1    -0.150000       12.0110           0
      7464 MEMB     51       DOPC     H9R      HEL1     0.150000       1.00800           0
      7465 MEMB     51       DOPC     C210     CEL1    -0.150000       12.0110           0
      7466 MEMB     51       DOPC     H10R     HEL1     0.150000       1.00800           0
      7467 MEMB     51       DOPC     C211     CTL2    -0.180000       12.0110           0
      7468 MEMB     51       DOPC     H11R     HAL2     0.900000E-01   1.00800           0
      7469 MEMB     51       DOPC     H11S     HAL2     0.900000E-01   1.00800           0
      7470 MEMB     51       DOPC     C212     CTL2    -0.180000       12.0110           0
      7471 MEMB     51       DOPC     H12R     HAL2     0.900000E-01   1.00800           0
      7472 MEMB     51       DOPC     H12S     HAL2     0.900000E-01   1.00800           0
      7473 MEMB     51       DOPC     C213     CTL2    -0.180000       12.0110           0
      7474 MEMB     51       DOPC     H13R     HAL2     0.900000E-01   1.00800           0
      7475 MEMB     51       DOPC     H13S     HAL2     0.900000E-01   1.00800           0
      7476 MEMB     51       DOPC     C214     CTL2    -0.180000       12.0110           0
      7477 MEMB     51       DOPC     H14R     HAL2     0.900000E-01   1.00800           0
      7478 MEMB     51       DOPC     H14S     HAL2     0.900000E-01   1.00800           0
      7479 MEMB     51       DOPC     C215     CTL2    -0.180000       12.0110           0
      7480 MEMB     51       DOPC     H15R     HAL2     0.900000E-01   1.00800           0
      7481 MEMB     51       DOPC     H15S     HAL2     0.900000E-01   1.00800           0
      7482 MEMB     51       DOPC     C216     CTL2    -0.180000       12.0110           0
      7483 MEMB     51       DOPC     H16R     HAL2     0.900000E-01   1.00800           0
      7484 MEMB     51       DOPC     H16S     HAL2     0.900000E-01   1.00800           0
      7485 MEMB     51       DOPC     C217     CTL2    -0.180000       12.0110           0
      7486 MEMB     51       DOPC     H17R     HAL2     0.900000E-01   1.00800           0
      7487 MEMB     51       DOPC     H17S     HAL2     0.900000E-01   1.00800           0
      7488 MEMB     51       DOPC     C218     CTL3    -0.270000       12.0110           0
      7489 MEMB     51       DOPC     H18R     HAL3     0.900000E-01   1.00800           0
      7490 MEMB     51       DOPC     H18S     HAL3     0.900000E-01   1.00800           0
      7491 MEMB     51       DOPC     H18T     HAL3     0.900000E-01   1.00800           0
      7492 MEMB     51       DOPC     C33      CTL2    -0.180000       12.0110           0
      7493 MEMB     51       DOPC     H3X      HAL2     0.900000E-01   1.00800           0
      7494 MEMB     51       DOPC     H3Y      HAL2     0.900000E-01   1.00800           0
      7495 MEMB     51       DOPC     C34      CTL2    -0.180000       12.0110           0
      7496 MEMB     51       DOPC     H4X      HAL2     0.900000E-01   1.00800           0
      7497 MEMB     51       DOPC     H4Y      HAL2     0.900000E-01   1.00800           0
      7498 MEMB     51       DOPC     C35      CTL2    -0.180000       12.0110           0
      7499 MEMB     51       DOPC     H5X      HAL2     0.900000E-01   1.00800           0
      7500 MEMB     51       DOPC     H5Y      HAL2     0.900000E-01   1.00800           0
      7501 MEMB     51       DOPC     C36      CTL2    -0.180000       12.0110           0
      7502 MEMB     51       DOPC     H6X      HAL2     0.900000E-01   1.00800           0
      7503 MEMB     51       DOPC     H6Y      HAL2     0.900000E-01   1.00800           0
      7504 MEMB     51       DOPC     C37      CTL2    -0.180000       12.0110           0
      7505 MEMB     51       DOPC     H7X      HAL2     0.900000E-01   1.00800           0
      7506 MEMB     51       DOPC     H7Y      HAL2     0.900000E-01   1.00800           0
      7507 MEMB     51       DOPC     C38      CTL2    -0.180000       12.0110           0
      7508 MEMB     51       DOPC     H8X      HAL2     0.900000E-01   1.00800           0
      7509 MEMB     51       DOPC     H8Y      HAL2     0.900000E-01   1.00800           0
      7510 MEMB     51       DOPC     C39      CEL1    -0.150000       12.0110           0
      7511 MEMB     51       DOPC     H9X      HEL1     0.150000       1.00800           0
      7512 MEMB     51       DOPC     C310     CEL1    -0.150000       12.0110           0
      7513 MEMB     51       DOPC     H10X     HEL1     0.150000       1.00800           0
      7514 MEMB     51       DOPC     C311     CTL2    -0.180000       12.0110           0
      7515 MEMB     51       DOPC     H11X     HAL2     0.900000E-01   1.00800           0
      7516 MEMB     51       DOPC     H11Y     HAL2     0.900000E-01   1.00800           0
      7517 MEMB     51       DOPC     C312     CTL2    -0.180000       12.0110           0
      7518 MEMB     51       DOPC     H12X     HAL2     0.900000E-01   1.00800           0
      7519 MEMB     51       DOPC     H12Y     HAL2     0.900000E-01   1.00800           0
      7520 MEMB     51       DOPC     C313     CTL2    -0.180000       12.0110           0
      7521 MEMB     51       DOPC     H13X     HAL2     0.900000E-01   1.00800           0
      7522 MEMB     51       DOPC     H13Y     HAL2     0.900000E-01   1.00800           0
      7523 MEMB     51       DOPC     C314     CTL2    -0.180000       12.0110           0
      7524 MEMB     51       DOPC     H14X     HAL2     0.900000E-01   1.00800           0
      7525 MEMB     51       DOPC     H14Y     HAL2     0.900000E-01   1.00800           0
      7526 MEMB     51       DOPC     C315     CTL2    -0.180000       12.0110           0
      7527 MEMB     51       DOPC     H15X     HAL2     0.900000E-01   1.00800           0
      7528 MEMB     51       DOPC     H15Y     HAL2     0.900000E-01   1.00800           0
      7529 MEMB     51       DOPC     C316     CTL2    -0.180000       12.0110           0
      7530 MEMB     51       DOPC     H16X     HAL2     0.900000E-01   1.00800           0
      7531 MEMB     51       DOPC     H16Y     HAL2     0.900000E-01   1.00800           0
      7532 MEMB     51       DOPC     C317     CTL2    -0.180000       12.0110           0
      7533 MEMB     51       DOPC     H17X     HAL2     0.900000E-01   1.00800           0
      7534 MEMB     51       DOPC     H17Y     HAL2     0.900000E-01   1.00800           0
      7535 MEMB     51       DOPC     C318     CTL3    -0.270000       12.0110           0
      7536 MEMB     51       DOPC     H18X     HAL3     0.900000E-01   1.00800           0
      7537 MEMB     51       DOPC     H18Y     HAL3     0.900000E-01   1.00800           0
      7538 MEMB     51       DOPC     H18Z     HAL3     0.900000E-01   1.00800           0
      7539 MEMB     52       DOPC     N        NTL     -0.600000       14.0070           0
      7540 MEMB     52       DOPC     C12      CTL2    -0.100000       12.0110           0
      7541 MEMB     52       DOPC     H12A     HL       0.250000       1.00800           0
      7542 MEMB     52       DOPC     H12B     HL       0.250000       1.00800           0
      7543 MEMB     52       DOPC     C13      CTL5    -0.350000       12.0110           0
      7544 MEMB     52       DOPC     H13A     HL       0.250000       1.00800           0
      7545 MEMB     52       DOPC     H13B     HL       0.250000       1.00800           0
      7546 MEMB     52       DOPC     H13C     HL       0.250000       1.00800           0
      7547 MEMB     52       DOPC     C14      CTL5    -0.350000       12.0110           0
      7548 MEMB     52       DOPC     H14A     HL       0.250000       1.00800           0
      7549 MEMB     52       DOPC     H14B     HL       0.250000       1.00800           0
      7550 MEMB     52       DOPC     H14C     HL       0.250000       1.00800           0
      7551 MEMB     52       DOPC     C15      CTL5    -0.350000       12.0110           0
      7552 MEMB     52       DOPC     H15A     HL       0.250000       1.00800           0
      7553 MEMB     52       DOPC     H15B     HL       0.250000       1.00800           0
      7554 MEMB     52       DOPC     H15C     HL       0.250000       1.00800           0
      7555 MEMB     52       DOPC     C11      CTL2    -0.800000E-01   12.0110           0
      7556 MEMB     52       DOPC     H11A     HAL2     0.900000E-01   1.00800           0
      7557 MEMB     52       DOPC     H11B     HAL2     0.900000E-01   1.00800           0
      7558 MEMB     52       DOPC     P        PL        1.50000       30.9740           0
      7559 MEMB     52       DOPC     O13      O2L     -0.780000       15.9994           0
      7560 MEMB     52       DOPC     O14      O2L     -0.780000       15.9994           0
      7561 MEMB     52       DOPC     O12      OSLP    -0.570000       15.9994           0
      7562 MEMB     52       DOPC     O11      OSLP    -0.570000       15.9994           0
      7563 MEMB     52       DOPC     C1       CTL2    -0.800000E-01   12.0110           0
      7564 MEMB     52       DOPC     HA       HAL2     0.900000E-01   1.00800           0
      7565 MEMB     52       DOPC     HB       HAL2     0.900000E-01   1.00800           0
      7566 MEMB     52       DOPC     C2       CTL1     0.170000       12.0110           0
      7567 MEMB     52       DOPC     HS       HAL1     0.900000E-01   1.00800           0
      7568 MEMB     52       DOPC     O21      OSL     -0.490000       15.9994           0
      7569 MEMB     52       DOPC     C21      CL       0.900000       12.0110           0
      7570 MEMB     52       DOPC     O22      OBL     -0.630000       15.9994           0
      7571 MEMB     52       DOPC     C22      CTL2    -0.220000       12.0110           0
      7572 MEMB     52       DOPC     H2R      HAL2     0.900000E-01   1.00800           0
      7573 MEMB     52       DOPC     H2S      HAL2     0.900000E-01   1.00800           0
      7574 MEMB     52       DOPC     C3       CTL2     0.800000E-01   12.0110           0
      7575 MEMB     52       DOPC     HX       HAL2     0.900000E-01   1.00800           0
      7576 MEMB     52       DOPC     HY       HAL2     0.900000E-01   1.00800           0
      7577 MEMB     52       DOPC     O31      OSL     -0.490000       15.9994           0
      7578 MEMB     52       DOPC     C31      CL       0.900000       12.0110           0
      7579 MEMB     52       DOPC     O32      OBL     -0.630000       15.9994           0
      7580 MEMB     52       DOPC     C32      CTL2    -0.220000       12.0110           0
      7581 MEMB     52       DOPC     H2X      HAL2     0.900000E-01   1.00800           0
      7582 MEMB     52       DOPC     H2Y      HAL2     0.900000E-01   1.00800           0
      7583 MEMB     52       DOPC     C23      CTL2    -0.180000       12.0110           0
      7584 MEMB     52       DOPC     H3R      HAL2     0.900000E-01   1.00800           0
      7585 MEMB     52       DOPC     H3S      HAL2     0.900000E-01   1.00800           0
      7586 MEMB     52       DOPC     C24      CTL2    -0.180000       12.0110           0
      7587 MEMB     52       DOPC     H4R      HAL2     0.900000E-01   1.00800           0
      7588 MEMB     52       DOPC     H4S      HAL2     0.900000E-01   1.00800           0
      7589 MEMB     52       DOPC     C25      CTL2    -0.180000       12.0110           0
      7590 MEMB     52       DOPC     H5R      HAL2     0.900000E-01   1.00800           0
      7591 MEMB     52       DOPC     H5S      HAL2     0.900000E-01   1.00800           0
      7592 MEMB     52       DOPC     C26      CTL2    -0.180000       12.0110           0
      7593 MEMB     52       DOPC     H6R      HAL2     0.900000E-01   1.00800           0
      7594 MEMB     52       DOPC     H6S      HAL2     0.900000E-01   1.00800           0
      7595 MEMB     52       DOPC     C27      CTL2    -0.180000       12.0110           0
      7596 MEMB     52       DOPC     H7R      HAL2     0.900000E-01   1.00800           0
      7597 MEMB     52       DOPC     H7S      HAL2     0.900000E-01   1.00800           0
      7598 MEMB     52       DOPC     C28      CTL2    -0.180000       12.0110           0
      7599 MEMB     52       DOPC     H8R      HAL2     0.900000E-01   1.00800           0
      7600 MEMB     52       DOPC     H8S      HAL2     0.900000E-01   1.00800           0
      7601 MEMB     52       DOPC     C29      CEL1    -0.150000       12.0110           0
      7602 MEMB     52       DOPC     H9R      HEL1     0.150000       1.00800           0
      7603 MEMB     52       DOPC     C210     CEL1    -0.150000       12.0110           0
      7604 MEMB     52       DOPC     H10R     HEL1     0.150000       1.00800           0
      7605 MEMB     52       DOPC     C211     CTL2    -0.180000       12.0110           0
      7606 MEMB     52       DOPC     H11R     HAL2     0.900000E-01   1.00800           0
      7607 MEMB     52       DOPC     H11S     HAL2     0.900000E-01   1.00800           0
      7608 MEMB     52       DOPC     C212     CTL2    -0.180000       12.0110           0
      7609 MEMB     52       DOPC     H12R     HAL2     0.900000E-01   1.00800           0
      7610 MEMB     52       DOPC     H12S     HAL2     0.900000E-01   1.00800           0
      7611 MEMB     52       DOPC     C213     CTL2    -0.180000       12.0110           0
      7612 MEMB     52       DOPC     H13R     HAL2     0.900000E-01   1.00800           0
      7613 MEMB     52       DOPC     H13S     HAL2     0.900000E-01   1.00800           0
      7614 MEMB     52       DOPC     C214     CTL2    -0.180000       12.0110           0
      7615 MEMB     52       DOPC     H14R     HAL2     0.900000E-01   1.00800           0
      7616 MEMB     52       DOPC     H14S     HAL2     0.900000E-01   1.00800           0
      7617 MEMB     52       DOPC     C215     CTL2    -0.180000       12.0110           0
      7618 MEMB     52       DOPC     H15R     HAL2     0.900000E-01   1.00800           0
      7619 MEMB     52       DOPC     H15S     HAL2     0.900000E-01   1.00800           0
      7620 MEMB     52       DOPC     C216     CTL2    -0.180000       12.0110           0
      7621 MEMB     52       DOPC     H16R     HAL2     0.900000E-01   1.00800           0
      7622 MEMB     52       DOPC     H16S     HAL2     0.900000E-01   1.00800           0
      7623 MEMB     52       DOPC     C217     CTL2    -0.180000       12.0110           0
      7624 MEMB     52       DOPC     H17R     HAL2     0.900000E-01   1.00800           0
      7625 MEMB     52       DOPC     H17S     HAL2     0.900000E-01   1.00800           0
      7626 MEMB     52       DOPC     C218     CTL3    -0.270000       12.0110           0
      7627 MEMB     52       DOPC     H18R     HAL3     0.900000E-01   1.00800           0
      7628 MEMB     52       DOPC     H18S     HAL3     0.900000E-01   1.00800           0
      7629 MEMB     52       DOPC     H18T     HAL3     0.900000E-01   1.00800           0
      7630 MEMB     52       DOPC     C33      CTL2    -0.180000       12.0110           0
      7631 MEMB     52       DOPC     H3X      HAL2     0.900000E-01   1.00800           0
      7632 MEMB     52       DOPC     H3Y      HAL2     0.900000E-01   1.00800           0
      7633 MEMB     52       DOPC     C34      CTL2    -0.180000       12.0110           0
      7634 MEMB     52       DOPC     H4X      HAL2     0.900000E-01   1.00800           0
      7635 MEMB     52       DOPC     H4Y      HAL2     0.900000E-01   1.00800           0
      7636 MEMB     52       DOPC     C35      CTL2    -0.180000       12.0110           0
      7637 MEMB     52       DOPC     H5X      HAL2     0.900000E-01   1.00800           0
      7638 MEMB     52       DOPC     H5Y      HAL2     0.900000E-01   1.00800           0
      7639 MEMB     52       DOPC     C36      CTL2    -0.180000       12.0110           0
      7640 MEMB     52       DOPC     H6X      HAL2     0.900000E-01   1.00800           0
      7641 MEMB     52       DOPC     H6Y      HAL2     0.900000E-01   1.00800           0
      7642 MEMB     52       DOPC     C37      CTL2    -0.180000       12.0110           0
      7643 MEMB     52       DOPC     H7X      HAL2     0.900000E-01   1.00800           0
      7644 MEMB     52       DOPC     H7Y      HAL2     0.900000E-01   1.00800           0
      7645 MEMB     52       DOPC     C38      CTL2    -0.180000       12.0110           0
      7646 MEMB     52       DOPC     H8X      HAL2     0.900000E-01   1.00800           0
      7647 MEMB     52       DOPC     H8Y      HAL2     0.900000E-01   1.00800           0
      7648 MEMB     52       DOPC     C39      CEL1    -0.150000       12.0110           0
      7649 MEMB     52       DOPC     H9X      HEL1     0.150000       1.00800           0
      7650 MEMB     52       DOPC     C310     CEL1    -0.150000       12.0110           0
      7651 MEMB     52       DOPC     H10X     HEL1     0.150000       1.00800           0
      7652 MEMB     52       DOPC     C311     CTL2    -0.180000       12.0110           0
      7653 MEMB     52       DOPC     H11X     HAL2     0.900000E-01   1.00800           0
      7654 MEMB     52       DOPC     H11Y     HAL2     0.900000E-01   1.00800           0
      7655 MEMB     52       DOPC     C312     CTL2    -0.180000       12.0110           0
      7656 MEMB     52       DOPC     H12X     HAL2     0.900000E-01   1.00800           0
      7657 MEMB     52       DOPC     H12Y     HAL2     0.900000E-01   1.00800           0
      7658 MEMB     52       DOPC     C313     CTL2    -0.180000       12.0110           0
      7659 MEMB     52       DOPC     H13X     HAL2     0.900000E-01   1.00800           0
      7660 MEMB     52       DOPC     H13Y     HAL2     0.900000E-01   1.00800           0
      7661 MEMB     52       DOPC     C314     CTL2    -0.180000       12.0110           0
      7662 MEMB     52       DOPC     H14X     HAL2     0.900000E-01   1.00800           0
      7663 MEMB     52       DOPC     H14Y     HAL2     0.900000E-01   1.00800           0
      7664 MEMB     52       DOPC     C315     CTL2    -0.180000       12.0110           0
      7665 MEMB     52       DOPC     H15X     HAL2     0.900000E-01   1.00800           0
      7666 MEMB     52       DOPC     H15Y     HAL2     0.900000E-01   1.00800           0
      7667 MEMB     52       DOPC     C316     CTL2    -0.180000       12.0110           0
      7668 MEMB     52       DOPC     H16X     HAL2     0.900000E-01   1.00800           0
      7669 MEMB     52       DOPC     H16Y     HAL2     0.900000E-01   1.00800           0
      7670 MEMB     52       DOPC     C317     CTL2    -0.180000       12.0110           0
      7671 MEMB     52       DOPC     H17X     HAL2     0.900000E-01   1.00800           0
      7672 MEMB     52       DOPC     H17Y     HAL2     0.900000E-01   1.00800           0
      7673 MEMB     52       DOPC     C318     CTL3    -0.270000       12.0110           0
      7674 MEMB     52       DOPC     H18X     HAL3     0.900000E-01   1.00800           0
      7675 MEMB     52       DOPC     H18Y     HAL3     0.900000E-01   1.00800           0
      7676 MEMB     52       DOPC     H18Z     HAL3     0.900000E-01   1.00800           0
      7677 MEMB     53       DOPC     N        NTL     -0.600000       14.0070           0
      7678 MEMB     53       DOPC     C12      CTL2    -0.100000       12.0110           0
      7679 MEMB     53       DOPC     H12A     HL       0.250000       1.00800           0
      7680 MEMB     53       DOPC     H12B     HL       0.250000       1.00800           0
      7681 MEMB     53       DOPC     C13      CTL5    -0.350000       12.0110           0
      7682 MEMB     53       DOPC     H13A     HL       0.250000       1.00800           0
      7683 MEMB     53       DOPC     H13B     HL       0.250000       1.00800           0
      7684 MEMB     53       DOPC     H13C     HL       0.250000       1.00800           0
      7685 MEMB     53       DOPC     C14      CTL5    -0.350000       12.0110           0
      7686 MEMB     53       DOPC     H14A     HL       0.250000       1.00800           0
      7687 MEMB     53       DOPC     H14B     HL       0.250000       1.00800           0
      7688 MEMB     53       DOPC     H14C     HL       0.250000       1.00800           0
      7689 MEMB     53       DOPC     C15      CTL5    -0.350000       12.0110           0
      7690 MEMB     53       DOPC     H15A     HL       0.250000       1.00800           0
      7691 MEMB     53       DOPC     H15B     HL       0.250000       1.00800           0
      7692 MEMB     53       DOPC     H15C     HL       0.250000       1.00800           0
      7693 MEMB     53       DOPC     C11      CTL2    -0.800000E-01   12.0110           0
      7694 MEMB     53       DOPC     H11A     HAL2     0.900000E-01   1.00800           0
      7695 MEMB     53       DOPC     H11B     HAL2     0.900000E-01   1.00800           0
      7696 MEMB     53       DOPC     P        PL        1.50000       30.9740           0
      7697 MEMB     53       DOPC     O13      O2L     -0.780000       15.9994           0
      7698 MEMB     53       DOPC     O14      O2L     -0.780000       15.9994           0
      7699 MEMB     53       DOPC     O12      OSLP    -0.570000       15.9994           0
      7700 MEMB     53       DOPC     O11      OSLP    -0.570000       15.9994           0
      7701 MEMB     53       DOPC     C1       CTL2    -0.800000E-01   12.0110           0
      7702 MEMB     53       DOPC     HA       HAL2     0.900000E-01   1.00800           0
      7703 MEMB     53       DOPC     HB       HAL2     0.900000E-01   1.00800           0
      7704 MEMB     53       DOPC     C2       CTL1     0.170000       12.0110           0
      7705 MEMB     53       DOPC     HS       HAL1     0.900000E-01   1.00800           0
      7706 MEMB     53       DOPC     O21      OSL     -0.490000       15.9994           0
      7707 MEMB     53       DOPC     C21      CL       0.900000       12.0110           0
      7708 MEMB     53       DOPC     O22      OBL     -0.630000       15.9994           0
      7709 MEMB     53       DOPC     C22      CTL2    -0.220000       12.0110           0
      7710 MEMB     53       DOPC     H2R      HAL2     0.900000E-01   1.00800           0
      7711 MEMB     53       DOPC     H2S      HAL2     0.900000E-01   1.00800           0
      7712 MEMB     53       DOPC     C3       CTL2     0.800000E-01   12.0110           0
      7713 MEMB     53       DOPC     HX       HAL2     0.900000E-01   1.00800           0
      7714 MEMB     53       DOPC     HY       HAL2     0.900000E-01   1.00800           0
      7715 MEMB     53       DOPC     O31      OSL     -0.490000       15.9994           0
      7716 MEMB     53       DOPC     C31      CL       0.900000       12.0110           0
      7717 MEMB     53       DOPC     O32      OBL     -0.630000       15.9994           0
      7718 MEMB     53       DOPC     C32      CTL2    -0.220000       12.0110           0
      7719 MEMB     53       DOPC     H2X      HAL2     0.900000E-01   1.00800           0
      7720 MEMB     53       DOPC     H2Y      HAL2     0.900000E-01   1.00800           0
      7721 MEMB     53       DOPC     C23      CTL2    -0.180000       12.0110           0
      7722 MEMB     53       DOPC     H3R      HAL2     0.900000E-01   1.00800           0
      7723 MEMB     53       DOPC     H3S      HAL2     0.900000E-01   1.00800           0
      7724 MEMB     53       DOPC     C24      CTL2    -0.180000       12.0110           0
      7725 MEMB     53       DOPC     H4R      HAL2     0.900000E-01   1.00800           0
      7726 MEMB     53       DOPC     H4S      HAL2     0.900000E-01   1.00800           0
      7727 MEMB     53       DOPC     C25      CTL2    -0.180000       12.0110           0
      7728 MEMB     53       DOPC     H5R      HAL2     0.900000E-01   1.00800           0
      7729 MEMB     53       DOPC     H5S      HAL2     0.900000E-01   1.00800           0
      7730 MEMB     53       DOPC     C26      CTL2    -0.180000       12.0110           0
      7731 MEMB     53       DOPC     H6R      HAL2     0.900000E-01   1.00800           0
      7732 MEMB     53       DOPC     H6S      HAL2     0.900000E-01   1.00800           0
      7733 MEMB     53       DOPC     C27      CTL2    -0.180000       12.0110           0
      7734 MEMB     53       DOPC     H7R      HAL2     0.900000E-01   1.00800           0
      7735 MEMB     53       DOPC     H7S      HAL2     0.900000E-01   1.00800           0
      7736 MEMB     53       DOPC     C28      CTL2    -0.180000       12.0110           0
      7737 MEMB     53       DOPC     H8R      HAL2     0.900000E-01   1.00800           0
      7738 MEMB     53       DOPC     H8S      HAL2     0.900000E-01   1.00800           0
      7739 MEMB     53       DOPC     C29      CEL1    -0.150000       12.0110           0
      7740 MEMB     53       DOPC     H9R      HEL1     0.150000       1.00800           0
      7741 MEMB     53       DOPC     C210     CEL1    -0.150000       12.0110           0
      7742 MEMB     53       DOPC     H10R     HEL1     0.150000       1.00800           0
      7743 MEMB     53       DOPC     C211     CTL2    -0.180000       12.0110           0
      7744 MEMB     53       DOPC     H11R     HAL2     0.900000E-01   1.00800           0
      7745 MEMB     53       DOPC     H11S     HAL2     0.900000E-01   1.00800           0
      7746 MEMB     53       DOPC     C212     CTL2    -0.180000       12.0110           0
      7747 MEMB     53       DOPC     H12R     HAL2     0.900000E-01   1.00800           0
      7748 MEMB     53       DOPC     H12S     HAL2     0.900000E-01   1.00800           0
      7749 MEMB     53       DOPC     C213     CTL2    -0.180000       12.0110           0
      7750 MEMB     53       DOPC     H13R     HAL2     0.900000E-01   1.00800           0
      7751 MEMB     53       DOPC     H13S     HAL2     0.900000E-01   1.00800           0
      7752 MEMB     53       DOPC     C214     CTL2    -0.180000       12.0110           0
      7753 MEMB     53       DOPC     H14R     HAL2     0.900000E-01   1.00800           0
      7754 MEMB     53       DOPC     H14S     HAL2     0.900000E-01   1.00800           0
      7755 MEMB     53       DOPC     C215     CTL2    -0.180000       12.0110           0
      7756 MEMB     53       DOPC     H15R     HAL2     0.900000E-01   1.00800           0
      7757 MEMB     53       DOPC     H15S     HAL2     0.900000E-01   1.00800           0
      7758 MEMB     53       DOPC     C216     CTL2    -0.180000       12.0110           0
      7759 MEMB     53       DOPC     H16R     HAL2     0.900000E-01   1.00800           0
      7760 MEMB     53       DOPC     H16S     HAL2     0.900000E-01   1.00800           0
      7761 MEMB     53       DOPC     C217     CTL2    -0.180000       12.0110           0
      7762 MEMB     53       DOPC     H17R     HAL2     0.900000E-01   1.00800           0
      7763 MEMB     53       DOPC     H17S     HAL2     0.900000E-01   1.00800           0
      7764 MEMB     53       DOPC     C218     CTL3    -0.270000       12.0110           0
      7765 MEMB     53       DOPC     H18R     HAL3     0.900000E-01   1.00800           0
      7766 MEMB     53       DOPC     H18S     HAL3     0.900000E-01   1.00800           0
      7767 MEMB     53       DOPC     H18T     HAL3     0.900000E-01   1.00800           0
      7768 MEMB     53       DOPC     C33      CTL2    -0.180000       12.0110           0
      7769 MEMB     53       DOPC     H3X      HAL2     0.900000E-01   1.00800           0
      7770 MEMB     53       DOPC     H3Y      HAL2     0.900000E-01   1.00800           0
      7771 MEMB     53       DOPC     C34      CTL2    -0.180000       12.0110           0
      7772 MEMB     53       DOPC     H4X      HAL2     0.900000E-01   1.00800           0
      7773 MEMB     53       DOPC     H4Y      HAL2     0.900000E-01   1.00800           0
      7774 MEMB     53       DOPC     C35      CTL2    -0.180000       12.0110           0
      7775 MEMB     53       DOPC     H5X      HAL2     0.900000E-01   1.00800           0
      7776 MEMB     53       DOPC     H5Y      HAL2     0.900000E-01   1.00800           0
      7777 MEMB     53       DOPC     C36      CTL2    -0.180000       12.0110           0
      7778 MEMB     53       DOPC     H6X      HAL2     0.900000E-01   1.00800           0
      7779 MEMB     53       DOPC     H6Y      HAL2     0.900000E-01   1.00800           0
      7780 MEMB     53       DOPC     C37      CTL2    -0.180000       12.0110           0
      7781 MEMB     53       DOPC     H7X      HAL2     0.900000E-01   1.00800           0
      7782 MEMB     53       DOPC     H7Y      HAL2     0.900000E-01   1.00800           0
      7783 MEMB     53       DOPC     C38      CTL2    -0.180000       12.0110           0
      7784 MEMB     53       DOPC     H8X      HAL2     0.900000E-01   1.00800           0
      7785 MEMB     53       DOPC     H8Y      HAL2     0.900000E-01   1.00800           0
      7786 MEMB     53       DOPC     C39      CEL1    -0.150000       12.0110           0
      7787 MEMB     53       DOPC     H9X      HEL1     0.150000       1.00800           0
      7788 MEMB     53       DOPC     C310     CEL1    -0.150000       12.0110           0
      7789 MEMB     53       DOPC     H10X     HEL1     0.150000       1.00800           0
      7790 MEMB     53       DOPC     C311     CTL2    -0.180000       12.0110           0
      7791 MEMB     53       DOPC     H11X     HAL2     0.900000E-01   1.00800           0
      7792 MEMB     53       DOPC     H11Y     HAL2     0.900000E-01   1.00800           0
      7793 MEMB     53       DOPC     C312     CTL2    -0.180000       12.0110           0
      7794 MEMB     53       DOPC     H12X     HAL2     0.900000E-01   1.00800           0
      7795 MEMB     53       DOPC     H12Y     HAL2     0.900000E-01   1.00800           0
      7796 MEMB     53       DOPC     C313     CTL2    -0.180000       12.0110           0
      7797 MEMB     53       DOPC     H13X     HAL2     0.900000E-01   1.00800           0
      7798 MEMB     53       DOPC     H13Y     HAL2     0.900000E-01   1.00800           0
      7799 MEMB     53       DOPC     C314     CTL2    -0.180000       12.0110           0
      7800 MEMB     53       DOPC     H14X     HAL2     0.900000E-01   1.00800           0
      7801 MEMB     53       DOPC     H14Y     HAL2     0.900000E-01   1.00800           0
      7802 MEMB     53       DOPC     C315     CTL2    -0.180000       12.0110           0
      7803 MEMB     53       DOPC     H15X     HAL2     0.900000E-01   1.00800           0
      7804 MEMB     53       DOPC     H15Y     HAL2     0.900000E-01   1.00800           0
      7805 MEMB     53       DOPC     C316     CTL2    -0.180000       12.0110           0
      7806 MEMB     53       DOPC     H16X     HAL2     0.900000E-01   1.00800           0
      7807 MEMB     53       DOPC     H16Y     HAL2     0.900000E-01   1.00800           0
      7808 MEMB     53       DOPC     C317     CTL2    -0.180000       12.0110           0
      7809 MEMB     53       DOPC     H17X     HAL2     0.900000E-01   1.00800           0
      7810 MEMB     53       DOPC     H17Y     HAL2     0.900000E-01   1.00800           0
      7811 MEMB     53       DOPC     C318     CTL3    -0.270000       12.0110           0
      7812 MEMB     53       DOPC     H18X     HAL3     0.900000E-01   1.00800           0
      7813 MEMB     53       DOPC     H18Y     HAL3     0.900000E-01   1.00800           0
      7814 MEMB     53       DOPC     H18Z     HAL3     0.900000E-01   1.00800           0
      7815 MEMB     54       DOPC     N        NTL     -0.600000       14.0070           0
      7816 MEMB     54       DOPC     C12      CTL2    -0.100000       12.0110           0
      7817 MEMB     54       DOPC     H12A     HL       0.250000       1.00800           0
      7818 MEMB     54       DOPC     H12B     HL       0.250000       1.00800           0
      7819 MEMB     54       DOPC     C13      CTL5    -0.350000       12.0110           0
      7820 MEMB     54       DOPC     H13A     HL       0.250000       1.00800           0
      7821 MEMB     54       DOPC     H13B     HL       0.250000       1.00800           0
      7822 MEMB     54       DOPC     H13C     HL       0.250000       1.00800           0
      7823 MEMB     54       DOPC     C14      CTL5    -0.350000       12.0110           0
      7824 MEMB     54       DOPC     H14A     HL       0.250000       1.00800           0
      7825 MEMB     54       DOPC     H14B     HL       0.250000       1.00800           0
      7826 MEMB     54       DOPC     H14C     HL       0.250000       1.00800           0
      7827 MEMB     54       DOPC     C15      CTL5    -0.350000       12.0110           0
      7828 MEMB     54       DOPC     H15A     HL       0.250000       1.00800           0
      7829 MEMB     54       DOPC     H15B     HL       0.250000       1.00800           0
      7830 MEMB     54       DOPC     H15C     HL       0.250000       1.00800           0
      7831 MEMB     54       DOPC     C11      CTL2    -0.800000E-01   12.0110           0
      7832 MEMB     54       DOPC     H11A     HAL2     0.900000E-01   1.00800           0
      7833 MEMB     54       DOPC     H11B     HAL2     0.900000E-01   1.00800           0
      7834 MEMB     54       DOPC     P        PL        1.50000       30.9740           0
      7835 MEMB     54       DOPC     O13      O2L     -0.780000       15.9994           0
      7836 MEMB     54       DOPC     O14      O2L     -0.780000       15.9994           0
      7837 MEMB     54       DOPC     O12      OSLP    -0.570000       15.9994           0
      7838 MEMB     54       DOPC     O11      OSLP    -0.570000       15.9994           0
      7839 MEMB     54       DOPC     C1       CTL2    -0.800000E-01   12.0110           0
      7840 MEMB     54       DOPC     HA       HAL2     0.900000E-01   1.00800           0
      7841 MEMB     54       DOPC     HB       HAL2     0.900000E-01   1.00800           0
      7842 MEMB     54       DOPC     C2       CTL1     0.170000       12.0110           0
      7843 MEMB     54       DOPC     HS       HAL1     0.900000E-01   1.00800           0
      7844 MEMB     54       DOPC     O21      OSL     -0.490000       15.9994           0
      7845 MEMB     54       DOPC     C21      CL       0.900000       12.0110           0
      7846 MEMB     54       DOPC     O22      OBL     -0.630000       15.9994           0
      7847 MEMB     54       DOPC     C22      CTL2    -0.220000       12.0110           0
      7848 MEMB     54       DOPC     H2R      HAL2     0.900000E-01   1.00800           0
      7849 MEMB     54       DOPC     H2S      HAL2     0.900000E-01   1.00800           0
      7850 MEMB     54       DOPC     C3       CTL2     0.800000E-01   12.0110           0
      7851 MEMB     54       DOPC     HX       HAL2     0.900000E-01   1.00800           0
      7852 MEMB     54       DOPC     HY       HAL2     0.900000E-01   1.00800           0
      7853 MEMB     54       DOPC     O31      OSL     -0.490000       15.9994           0
      7854 MEMB     54       DOPC     C31      CL       0.900000       12.0110           0
      7855 MEMB     54       DOPC     O32      OBL     -0.630000       15.9994           0
      7856 MEMB     54       DOPC     C32      CTL2    -0.220000       12.0110           0
      7857 MEMB     54       DOPC     H2X      HAL2     0.900000E-01   1.00800           0
      7858 MEMB     54       DOPC     H2Y      HAL2     0.900000E-01   1.00800           0
      7859 MEMB     54       DOPC     C23      CTL2    -0.180000       12.0110           0
      7860 MEMB     54       DOPC     H3R      HAL2     0.900000E-01   1.00800           0
      7861 MEMB     54       DOPC     H3S      HAL2     0.900000E-01   1.00800           0
      7862 MEMB     54       DOPC     C24      CTL2    -0.180000       12.0110           0
      7863 MEMB     54       DOPC     H4R      HAL2     0.900000E-01   1.00800           0
      7864 MEMB     54       DOPC     H4S      HAL2     0.900000E-01   1.00800           0
      7865 MEMB     54       DOPC     C25      CTL2    -0.180000       12.0110           0
      7866 MEMB     54       DOPC     H5R      HAL2     0.900000E-01   1.00800           0
      7867 MEMB     54       DOPC     H5S      HAL2     0.900000E-01   1.00800           0
      7868 MEMB     54       DOPC     C26      CTL2    -0.180000       12.0110           0
      7869 MEMB     54       DOPC     H6R      HAL2     0.900000E-01   1.00800           0
      7870 MEMB     54       DOPC     H6S      HAL2     0.900000E-01   1.00800           0
      7871 MEMB     54       DOPC     C27      CTL2    -0.180000       12.0110           0
      7872 MEMB     54       DOPC     H7R      HAL2     0.900000E-01   1.00800           0
      7873 MEMB     54       DOPC     H7S      HAL2     0.900000E-01   1.00800           0
      7874 MEMB     54       DOPC     C28      CTL2    -0.180000       12.0110           0
      7875 MEMB     54       DOPC     H8R      HAL2     0.900000E-01   1.00800           0
      7876 MEMB     54       DOPC     H8S      HAL2     0.900000E-01   1.00800           0
      7877 MEMB     54       DOPC     C29      CEL1    -0.150000       12.0110           0
      7878 MEMB     54       DOPC     H9R      HEL1     0.150000       1.00800           0
      7879 MEMB     54       DOPC     C210     CEL1    -0.150000       12.0110           0
      7880 MEMB     54       DOPC     H10R     HEL1     0.150000       1.00800           0
      7881 MEMB     54       DOPC     C211     CTL2    -0.180000       12.0110           0
      7882 MEMB     54       DOPC     H11R     HAL2     0.900000E-01   1.00800           0
      7883 MEMB     54       DOPC     H11S     HAL2     0.900000E-01   1.00800           0
      7884 MEMB     54       DOPC     C212     CTL2    -0.180000       12.0110           0
      7885 MEMB     54       DOPC     H12R     HAL2     0.900000E-01   1.00800           0
      7886 MEMB     54       DOPC     H12S     HAL2     0.900000E-01   1.00800           0
      7887 MEMB     54       DOPC     C213     CTL2    -0.180000       12.0110           0
      7888 MEMB     54       DOPC     H13R     HAL2     0.900000E-01   1.00800           0
      7889 MEMB     54       DOPC     H13S     HAL2     0.900000E-01   1.00800           0
      7890 MEMB     54       DOPC     C214     CTL2    -0.180000       12.0110           0
      7891 MEMB     54       DOPC     H14R     HAL2     0.900000E-01   1.00800           0
      7892 MEMB     54       DOPC     H14S     HAL2     0.900000E-01   1.00800           0
      7893 MEMB     54       DOPC     C215     CTL2    -0.180000       12.0110           0
      7894 MEMB     54       DOPC     H15R     HAL2     0.900000E-01   1.00800           0
      7895 MEMB     54       DOPC     H15S     HAL2     0.900000E-01   1.00800           0
      7896 MEMB     54       DOPC     C216     CTL2    -0.180000       12.0110           0
      7897 MEMB     54       DOPC     H16R     HAL2     0.900000E-01   1.00800           0
      7898 MEMB     54       DOPC     H16S     HAL2     0.900000E-01   1.00800           0
      7899 MEMB     54       DOPC     C217     CTL2    -0.180000       12.0110           0
      7900 MEMB     54       DOPC     H17R     HAL2     0.900000E-01   1.00800           0
      7901 MEMB     54       DOPC     H17S     HAL2     0.900000E-01   1.00800           0
      7902 MEMB     54       DOPC     C218     CTL3    -0.270000       12.0110           0
      7903 MEMB     54       DOPC     H18R     HAL3     0.900000E-01   1.00800           0
      7904 MEMB     54       DOPC     H18S     HAL3     0.900000E-01   1.00800           0
      7905 MEMB     54       DOPC     H18T     HAL3     0.900000E-01   1.00800           0
      7906 MEMB     54       DOPC     C33      CTL2    -0.180000       12.0110           0
      7907 MEMB     54       DOPC     H3X      HAL2     0.900000E-01   1.00800           0
      7908 MEMB     54       DOPC     H3Y      HAL2     0.900000E-01   1.00800           0
      7909 MEMB     54       DOPC     C34      CTL2    -0.180000       12.0110           0
      7910 MEMB     54       DOPC     H4X      HAL2     0.900000E-01   1.00800           0
      7911 MEMB     54       DOPC     H4Y      HAL2     0.900000E-01   1.00800           0
      7912 MEMB     54       DOPC     C35      CTL2    -0.180000       12.0110           0
      7913 MEMB     54       DOPC     H5X      HAL2     0.900000E-01   1.00800           0
      7914 MEMB     54       DOPC     H5Y      HAL2     0.900000E-01   1.00800           0
      7915 MEMB     54       DOPC     C36      CTL2    -0.180000       12.0110           0
      7916 MEMB     54       DOPC     H6X      HAL2     0.900000E-01   1.00800           0
      7917 MEMB     54       DOPC     H6Y      HAL2     0.900000E-01   1.00800           0
      7918 MEMB     54       DOPC     C37      CTL2    -0.180000       12.0110           0
      7919 MEMB     54       DOPC     H7X      HAL2     0.900000E-01   1.00800           0
      7920 MEMB     54       DOPC     H7Y      HAL2     0.900000E-01   1.00800           0
      7921 MEMB     54       DOPC     C38      CTL2    -0.180000       12.0110           0
      7922 MEMB     54       DOPC     H8X      HAL2     0.900000E-01   1.00800           0
      7923 MEMB     54       DOPC     H8Y      HAL2     0.900000E-01   1.00800           0
      7924 MEMB     54       DOPC     C39      CEL1    -0.150000       12.0110           0
      7925 MEMB     54       DOPC     H9X      HEL1     0.150000       1.00800           0
      7926 MEMB     54       DOPC     C310     CEL1    -0.150000       12.0110           0
      7927 MEMB     54       DOPC     H10X     HEL1     0.150000       1.00800           0
      7928 MEMB     54       DOPC     C311     CTL2    -0.180000       12.0110           0
      7929 MEMB     54       DOPC     H11X     HAL2     0.900000E-01   1.00800           0
      7930 MEMB     54       DOPC     H11Y     HAL2     0.900000E-01   1.00800           0
      7931 MEMB     54       DOPC     C312     CTL2    -0.180000       12.0110           0
      7932 MEMB     54       DOPC     H12X     HAL2     0.900000E-01   1.00800           0
      7933 MEMB     54       DOPC     H12Y     HAL2     0.900000E-01   1.00800           0
      7934 MEMB     54       DOPC     C313     CTL2    -0.180000       12.0110           0
      7935 MEMB     54       DOPC     H13X     HAL2     0.900000E-01   1.00800           0
      7936 MEMB     54       DOPC     H13Y     HAL2     0.900000E-01   1.00800           0
      7937 MEMB     54       DOPC     C314     CTL2    -0.180000       12.0110           0
      7938 MEMB     54       DOPC     H14X     HAL2     0.900000E-01   1.00800           0
      7939 MEMB     54       DOPC     H14Y     HAL2     0.900000E-01   1.00800           0
      7940 MEMB     54       DOPC     C315     CTL2    -0.180000       12.0110           0
      7941 MEMB     54       DOPC     H15X     HAL2     0.900000E-01   1.00800           0
      7942 MEMB     54       DOPC     H15Y     HAL2     0.900000E-01   1.00800           0
      7943 MEMB     54       DOPC     C316     CTL2    -0.180000       12.0110           0
      7944 MEMB     54       DOPC     H16X     HAL2     0.900000E-01   1.00800           0
      7945 MEMB     54       DOPC     H16Y     HAL2     0.900000E-01   1.00800           0
      7946 MEMB     54       DOPC     C317     CTL2    -0.180000       12.0110           0
      7947 MEMB     54       DOPC     H17X     HAL2     0.900000E-01   1.00800           0
      7948 MEMB     54       DOPC     H17Y     HAL2     0.900000E-01   1.00800           0
      7949 MEMB     54       DOPC     C318     CTL3    -0.270000       12.0110           0
      7950 MEMB     54       DOPC     H18X     HAL3     0.900000E-01   1.00800           0
      7951 MEMB     54       DOPC     H18Y     HAL3     0.900000E-01   1.00800           0
      7952 MEMB     54       DOPC     H18Z     HAL3     0.900000E-01   1.00800           0
      7953 MEMB     55       DOPC     N        NTL     -0.600000       14.0070           0
      7954 MEMB     55       DOPC     C12      CTL2    -0.100000       12.0110           0
      7955 MEMB     55       DOPC     H12A     HL       0.250000       1.00800           0
      7956 MEMB     55       DOPC     H12B     HL       0.250000       1.00800           0
      7957 MEMB     55       DOPC     C13      CTL5    -0.350000       12.0110           0
      7958 MEMB     55       DOPC     H13A     HL       0.250000       1.00800           0
      7959 MEMB     55       DOPC     H13B     HL       0.250000       1.00800           0
      7960 MEMB     55       DOPC     H13C     HL       0.250000       1.00800           0
      7961 MEMB     55       DOPC     C14      CTL5    -0.350000       12.0110           0
      7962 MEMB     55       DOPC     H14A     HL       0.250000       1.00800           0
      7963 MEMB     55       DOPC     H14B     HL       0.250000       1.00800           0
      7964 MEMB     55       DOPC     H14C     HL       0.250000       1.00800           0
      7965 MEMB     55       DOPC     C15      CTL5    -0.350000       12.0110           0
      7966 MEMB     55       DOPC     H15A     HL       0.250000       1.00800           0
      7967 MEMB     55       DOPC     H15B     HL       0.250000       1.00800           0
      7968 MEMB     55       DOPC     H15C     HL       0.250000       1.00800           0
      7969 MEMB     55       DOPC     C11      CTL2    -0.800000E-01   12.0110           0
      7970 MEMB     55       DOPC     H11A     HAL2     0.900000E-01   1.00800           0
      7971 MEMB     55       DOPC     H11B     HAL2     0.900000E-01   1.00800           0
      7972 MEMB     55       DOPC     P        PL        1.50000       30.9740           0
      7973 MEMB     55       DOPC     O13      O2L     -0.780000       15.9994           0
      7974 MEMB     55       DOPC     O14      O2L     -0.780000       15.9994           0
      7975 MEMB     55       DOPC     O12      OSLP    -0.570000       15.9994           0
      7976 MEMB     55       DOPC     O11      OSLP    -0.570000       15.9994           0
      7977 MEMB     55       DOPC     C1       CTL2    -0.800000E-01   12.0110           0
      7978 MEMB     55       DOPC     HA       HAL2     0.900000E-01   1.00800           0
      7979 MEMB     55       DOPC     HB       HAL2     0.900000E-01   1.00800           0
      7980 MEMB     55       DOPC     C2       CTL1     0.170000       12.0110           0
      7981 MEMB     55       DOPC     HS       HAL1     0.900000E-01   1.00800           0
      7982 MEMB     55       DOPC     O21      OSL     -0.490000       15.9994           0
      7983 MEMB     55       DOPC     C21      CL       0.900000       12.0110           0
      7984 MEMB     55       DOPC     O22      OBL     -0.630000       15.9994           0
      7985 MEMB     55       DOPC     C22      CTL2    -0.220000       12.0110           0
      7986 MEMB     55       DOPC     H2R      HAL2     0.900000E-01   1.00800           0
      7987 MEMB     55       DOPC     H2S      HAL2     0.900000E-01   1.00800           0
      7988 MEMB     55       DOPC     C3       CTL2     0.800000E-01   12.0110           0
      7989 MEMB     55       DOPC     HX       HAL2     0.900000E-01   1.00800           0
      7990 MEMB     55       DOPC     HY       HAL2     0.900000E-01   1.00800           0
      7991 MEMB     55       DOPC     O31      OSL     -0.490000       15.9994           0
      7992 MEMB     55       DOPC     C31      CL       0.900000       12.0110           0
      7993 MEMB     55       DOPC     O32      OBL     -0.630000       15.9994           0
      7994 MEMB     55       DOPC     C32      CTL2    -0.220000       12.0110           0
      7995 MEMB     55       DOPC     H2X      HAL2     0.900000E-01   1.00800           0
      7996 MEMB     55       DOPC     H2Y      HAL2     0.900000E-01   1.00800           0
      7997 MEMB     55       DOPC     C23      CTL2    -0.180000       12.0110           0
      7998 MEMB     55       DOPC     H3R      HAL2     0.900000E-01   1.00800           0
      7999 MEMB     55       DOPC     H3S      HAL2     0.900000E-01   1.00800           0
      8000 MEMB     55       DOPC     C24      CTL2    -0.180000       12.0110           0
      8001 MEMB     55       DOPC     H4R      HAL2     0.900000E-01   1.00800           0
      8002 MEMB     55       DOPC     H4S      HAL2     0.900000E-01   1.00800           0
      8003 MEMB     55       DOPC     C25      CTL2    -0.180000       12.0110           0
      8004 MEMB     55       DOPC     H5R      HAL2     0.900000E-01   1.00800           0
      8005 MEMB     55       DOPC     H5S      HAL2     0.900000E-01   1.00800           0
      8006 MEMB     55       DOPC     C26      CTL2    -0.180000       12.0110           0
      8007 MEMB     55       DOPC     H6R      HAL2     0.900000E-01   1.00800           0
      8008 MEMB     55       DOPC     H6S      HAL2     0.900000E-01   1.00800           0
      8009 MEMB     55       DOPC     C27      CTL2    -0.180000       12.0110           0
      8010 MEMB     55       DOPC     H7R      HAL2     0.900000E-01   1.00800           0
      8011 MEMB     55       DOPC     H7S      HAL2     0.900000E-01   1.00800           0
      8012 MEMB     55       DOPC     C28      CTL2    -0.180000       12.0110           0
      8013 MEMB     55       DOPC     H8R      HAL2     0.900000E-01   1.00800           0
      8014 MEMB     55       DOPC     H8S      HAL2     0.900000E-01   1.00800           0
      8015 MEMB     55       DOPC     C29      CEL1    -0.150000       12.0110           0
      8016 MEMB     55       DOPC     H9R      HEL1     0.150000       1.00800           0
      8017 MEMB     55       DOPC     C210     CEL1    -0.150000       12.0110           0
      8018 MEMB     55       DOPC     H10R     HEL1     0.150000       1.00800           0
      8019 MEMB     55       DOPC     C211     CTL2    -0.180000       12.0110           0
      8020 MEMB     55       DOPC     H11R     HAL2     0.900000E-01   1.00800           0
      8021 MEMB     55       DOPC     H11S     HAL2     0.900000E-01   1.00800           0
      8022 MEMB     55       DOPC     C212     CTL2    -0.180000       12.0110           0
      8023 MEMB     55       DOPC     H12R     HAL2     0.900000E-01   1.00800           0
      8024 MEMB     55       DOPC     H12S     HAL2     0.900000E-01   1.00800           0
      8025 MEMB     55       DOPC     C213     CTL2    -0.180000       12.0110           0
      8026 MEMB     55       DOPC     H13R     HAL2     0.900000E-01   1.00800           0
      8027 MEMB     55       DOPC     H13S     HAL2     0.900000E-01   1.00800           0
      8028 MEMB     55       DOPC     C214     CTL2    -0.180000       12.0110           0
      8029 MEMB     55       DOPC     H14R     HAL2     0.900000E-01   1.00800           0
      8030 MEMB     55       DOPC     H14S     HAL2     0.900000E-01   1.00800           0
      8031 MEMB     55       DOPC     C215     CTL2    -0.180000       12.0110           0
      8032 MEMB     55       DOPC     H15R     HAL2     0.900000E-01   1.00800           0
      8033 MEMB     55       DOPC     H15S     HAL2     0.900000E-01   1.00800           0
      8034 MEMB     55       DOPC     C216     CTL2    -0.180000       12.0110           0
      8035 MEMB     55       DOPC     H16R     HAL2     0.900000E-01   1.00800           0
      8036 MEMB     55       DOPC     H16S     HAL2     0.900000E-01   1.00800           0
      8037 MEMB     55       DOPC     C217     CTL2    -0.180000       12.0110           0
      8038 MEMB     55       DOPC     H17R     HAL2     0.900000E-01   1.00800           0
      8039 MEMB     55       DOPC     H17S     HAL2     0.900000E-01   1.00800           0
      8040 MEMB     55       DOPC     C218     CTL3    -0.270000       12.0110           0
      8041 MEMB     55       DOPC     H18R     HAL3     0.900000E-01   1.00800           0
      8042 MEMB     55       DOPC     H18S     HAL3     0.900000E-01   1.00800           0
      8043 MEMB     55       DOPC     H18T     HAL3     0.900000E-01   1.00800           0
      8044 MEMB     55       DOPC     C33      CTL2    -0.180000       12.0110           0
      8045 MEMB     55       DOPC     H3X      HAL2     0.900000E-01   1.00800           0
      8046 MEMB     55       DOPC     H3Y      HAL2     0.900000E-01   1.00800           0
      8047 MEMB     55       DOPC     C34      CTL2    -0.180000       12.0110           0
      8048 MEMB     55       DOPC     H4X      HAL2     0.900000E-01   1.00800           0
      8049 MEMB     55       DOPC     H4Y      HAL2     0.900000E-01   1.00800           0
      8050 MEMB     55       DOPC     C35      CTL2    -0.180000       12.0110           0
      8051 MEMB     55       DOPC     H5X      HAL2     0.900000E-01   1.00800           0
      8052 MEMB     55       DOPC     H5Y      HAL2     0.900000E-01   1.00800           0
      8053 MEMB     55       DOPC     C36      CTL2    -0.180000       12.0110           0
      8054 MEMB     55       DOPC     H6X      HAL2     0.900000E-01   1.00800           0
      8055 MEMB     55       DOPC     H6Y      HAL2     0.900000E-01   1.00800           0
      8056 MEMB     55       DOPC     C37      CTL2    -0.180000       12.0110           0
      8057 MEMB     55       DOPC     H7X      HAL2     0.900000E-01   1.00800           0
      8058 MEMB     55       DOPC     H7Y      HAL2     0.900000E-01   1.00800           0
      8059 MEMB     55       DOPC     C38      CTL2    -0.180000       12.0110           0
      8060 MEMB     55       DOPC     H8X      HAL2     0.900000E-01   1.00800           0
      8061 MEMB     55       DOPC     H8Y      HAL2     0.900000E-01   1.00800           0
      8062 MEMB     55       DOPC     C39      CEL1    -0.150000       12.0110           0
      8063 MEMB     55       DOPC     H9X      HEL1     0.150000       1.00800           0
      8064 MEMB     55       DOPC     C310     CEL1    -0.150000       12.0110           0
      8065 MEMB     55       DOPC     H10X     HEL1     0.150000       1.00800           0
      8066 MEMB     55       DOPC     C311     CTL2    -0.180000       12.0110           0
      8067 MEMB     55       DOPC     H11X     HAL2     0.900000E-01   1.00800           0
      8068 MEMB     55       DOPC     H11Y     HAL2     0.900000E-01   1.00800           0
      8069 MEMB     55       DOPC     C312     CTL2    -0.180000       12.0110           0
      8070 MEMB     55       DOPC     H12X     HAL2     0.900000E-01   1.00800           0
      8071 MEMB     55       DOPC     H12Y     HAL2     0.900000E-01   1.00800           0
      8072 MEMB     55       DOPC     C313     CTL2    -0.180000       12.0110           0
      8073 MEMB     55       DOPC     H13X     HAL2     0.900000E-01   1.00800           0
      8074 MEMB     55       DOPC     H13Y     HAL2     0.900000E-01   1.00800           0
      8075 MEMB     55       DOPC     C314     CTL2    -0.180000       12.0110           0
      8076 MEMB     55       DOPC     H14X     HAL2     0.900000E-01   1.00800           0
      8077 MEMB     55       DOPC     H14Y     HAL2     0.900000E-01   1.00800           0
      8078 MEMB     55       DOPC     C315     CTL2    -0.180000       12.0110           0
      8079 MEMB     55       DOPC     H15X     HAL2     0.900000E-01   1.00800           0
      8080 MEMB     55       DOPC     H15Y     HAL2     0.900000E-01   1.00800           0
      8081 MEMB     55       DOPC     C316     CTL2    -0.180000       12.0110           0
      8082 MEMB     55       DOPC     H16X     HAL2     0.900000E-01   1.00800           0
      8083 MEMB     55       DOPC     H16Y     HAL2     0.900000E-01   1.00800           0
      8084 MEMB     55       DOPC     C317     CTL2    -0.180000       12.0110           0
      8085 MEMB     55       DOPC     H17X     HAL2     0.900000E-01   1.00800           0
      8086 MEMB     55       DOPC     H17Y     HAL2     0.900000E-01   1.00800           0
      8087 MEMB     55       DOPC     C318     CTL3    -0.270000       12.0110           0
      8088 MEMB     55       DOPC     H18X     HAL3     0.900000E-01   1.00800           0
      8089 MEMB     55       DOPC     H18Y     HAL3     0.900000E-01   1.00800           0
      8090 MEMB     55       DOPC     H18Z     HAL3     0.900000E-01   1.00800           0
      8091 MEMB     56       DOPC     N        NTL     -0.600000       14.0070           0
      8092 MEMB     56       DOPC     C12      CTL2    -0.100000       12.0110           0
      8093 MEMB     56       DOPC     H12A     HL       0.250000       1.00800           0
      8094 MEMB     56       DOPC     H12B     HL       0.250000       1.00800           0
      8095 MEMB     56       DOPC     C13      CTL5    -0.350000       12.0110           0
      8096 MEMB     56       DOPC     H13A     HL       0.250000       1.00800           0
      8097 MEMB     56       DOPC     H13B     HL       0.250000       1.00800           0
      8098 MEMB     56       DOPC     H13C     HL       0.250000       1.00800           0
      8099 MEMB     56       DOPC     C14      CTL5    -0.350000       12.0110           0
      8100 MEMB     56       DOPC     H14A     HL       0.250000       1.00800           0
      8101 MEMB     56       DOPC     H14B     HL       0.250000       1.00800           0
      8102 MEMB     56       DOPC     H14C     HL       0.250000       1.00800           0
      8103 MEMB     56       DOPC     C15      CTL5    -0.350000       12.0110           0
      8104 MEMB     56       DOPC     H15A     HL       0.250000       1.00800           0
      8105 MEMB     56       DOPC     H15B     HL       0.250000       1.00800           0
      8106 MEMB     56       DOPC     H15C     HL       0.250000       1.00800           0
      8107 MEMB     56       DOPC     C11      CTL2    -0.800000E-01   12.0110           0
      8108 MEMB     56       DOPC     H11A     HAL2     0.900000E-01   1.00800           0
      8109 MEMB     56       DOPC     H11B     HAL2     0.900000E-01   1.00800           0
      8110 MEMB     56       DOPC     P        PL        1.50000       30.9740           0
      8111 MEMB     56       DOPC     O13      O2L     -0.780000       15.9994           0
      8112 MEMB     56       DOPC     O14      O2L     -0.780000       15.9994           0
      8113 MEMB     56       DOPC     O12      OSLP    -0.570000       15.9994           0
      8114 MEMB     56       DOPC     O11      OSLP    -0.570000       15.9994           0
      8115 MEMB     56       DOPC     C1       CTL2    -0.800000E-01   12.0110           0
      8116 MEMB     56       DOPC     HA       HAL2     0.900000E-01   1.00800           0
      8117 MEMB     56       DOPC     HB       HAL2     0.900000E-01   1.00800           0
      8118 MEMB     56       DOPC     C2       CTL1     0.170000       12.0110           0
      8119 MEMB     56       DOPC     HS       HAL1     0.900000E-01   1.00800           0
      8120 MEMB     56       DOPC     O21      OSL     -0.490000       15.9994           0
      8121 MEMB     56       DOPC     C21      CL       0.900000       12.0110           0
      8122 MEMB     56       DOPC     O22      OBL     -0.630000       15.9994           0
      8123 MEMB     56       DOPC     C22      CTL2    -0.220000       12.0110           0
      8124 MEMB     56       DOPC     H2R      HAL2     0.900000E-01   1.00800           0
      8125 MEMB     56       DOPC     H2S      HAL2     0.900000E-01   1.00800           0
      8126 MEMB     56       DOPC     C3       CTL2     0.800000E-01   12.0110           0
      8127 MEMB     56       DOPC     HX       HAL2     0.900000E-01   1.00800           0
      8128 MEMB     56       DOPC     HY       HAL2     0.900000E-01   1.00800           0
      8129 MEMB     56       DOPC     O31      OSL     -0.490000       15.9994           0
      8130 MEMB     56       DOPC     C31      CL       0.900000       12.0110           0
      8131 MEMB     56       DOPC     O32      OBL     -0.630000       15.9994           0
      8132 MEMB     56       DOPC     C32      CTL2    -0.220000       12.0110           0
      8133 MEMB     56       DOPC     H2X      HAL2     0.900000E-01   1.00800           0
      8134 MEMB     56       DOPC     H2Y      HAL2     0.900000E-01   1.00800           0
      8135 MEMB     56       DOPC     C23      CTL2    -0.180000       12.0110           0
      8136 MEMB     56       DOPC     H3R      HAL2     0.900000E-01   1.00800           0
      8137 MEMB     56       DOPC     H3S      HAL2     0.900000E-01   1.00800           0
      8138 MEMB     56       DOPC     C24      CTL2    -0.180000       12.0110           0
      8139 MEMB     56       DOPC     H4R      HAL2     0.900000E-01   1.00800           0
      8140 MEMB     56       DOPC     H4S      HAL2     0.900000E-01   1.00800           0
      8141 MEMB     56       DOPC     C25      CTL2    -0.180000       12.0110           0
      8142 MEMB     56       DOPC     H5R      HAL2     0.900000E-01   1.00800           0
      8143 MEMB     56       DOPC     H5S      HAL2     0.900000E-01   1.00800           0
      8144 MEMB     56       DOPC     C26      CTL2    -0.180000       12.0110           0
      8145 MEMB     56       DOPC     H6R      HAL2     0.900000E-01   1.00800           0
      8146 MEMB     56       DOPC     H6S      HAL2     0.900000E-01   1.00800           0
      8147 MEMB     56       DOPC     C27      CTL2    -0.180000       12.0110           0
      8148 MEMB     56       DOPC     H7R      HAL2     0.900000E-01   1.00800           0
      8149 MEMB     56       DOPC     H7S      HAL2     0.900000E-01   1.00800           0
      8150 MEMB     56       DOPC     C28      CTL2    -0.180000       12.0110           0
      8151 MEMB     56       DOPC     H8R      HAL2     0.900000E-01   1.00800           0
      8152 MEMB     56       DOPC     H8S      HAL2     0.900000E-01   1.00800           0
      8153 MEMB     56       DOPC     C29      CEL1    -0.150000       12.0110           0
      8154 MEMB     56       DOPC     H9R      HEL1     0.150000       1.00800           0
      8155 MEMB     56       DOPC     C210     CEL1    -0.150000       12.0110           0
      8156 MEMB     56       DOPC     H10R     HEL1     0.150000       1.00800           0
      8157 MEMB     56       DOPC     C211     CTL2    -0.180000       12.0110           0
      8158 MEMB     56       DOPC     H11R     HAL2     0.900000E-01   1.00800           0
      8159 MEMB     56       DOPC     H11S     HAL2     0.900000E-01   1.00800           0
      8160 MEMB     56       DOPC     C212     CTL2    -0.180000       12.0110           0
      8161 MEMB     56       DOPC     H12R     HAL2     0.900000E-01   1.00800           0
      8162 MEMB     56       DOPC     H12S     HAL2     0.900000E-01   1.00800           0
      8163 MEMB     56       DOPC     C213     CTL2    -0.180000       12.0110           0
      8164 MEMB     56       DOPC     H13R     HAL2     0.900000E-01   1.00800           0
      8165 MEMB     56       DOPC     H13S     HAL2     0.900000E-01   1.00800           0
      8166 MEMB     56       DOPC     C214     CTL2    -0.180000       12.0110           0
      8167 MEMB     56       DOPC     H14R     HAL2     0.900000E-01   1.00800           0
      8168 MEMB     56       DOPC     H14S     HAL2     0.900000E-01   1.00800           0
      8169 MEMB     56       DOPC     C215     CTL2    -0.180000       12.0110           0
      8170 MEMB     56       DOPC     H15R     HAL2     0.900000E-01   1.00800           0
      8171 MEMB     56       DOPC     H15S     HAL2     0.900000E-01   1.00800           0
      8172 MEMB     56       DOPC     C216     CTL2    -0.180000       12.0110           0
      8173 MEMB     56       DOPC     H16R     HAL2     0.900000E-01   1.00800           0
      8174 MEMB     56       DOPC     H16S     HAL2     0.900000E-01   1.00800           0
      8175 MEMB     56       DOPC     C217     CTL2    -0.180000       12.0110           0
      8176 MEMB     56       DOPC     H17R     HAL2     0.900000E-01   1.00800           0
      8177 MEMB     56       DOPC     H17S     HAL2     0.900000E-01   1.00800           0
      8178 MEMB     56       DOPC     C218     CTL3    -0.270000       12.0110           0
      8179 MEMB     56       DOPC     H18R     HAL3     0.900000E-01   1.00800           0
      8180 MEMB     56       DOPC     H18S     HAL3     0.900000E-01   1.00800           0
      8181 MEMB     56       DOPC     H18T     HAL3     0.900000E-01   1.00800           0
      8182 MEMB     56       DOPC     C33      CTL2    -0.180000       12.0110           0
      8183 MEMB     56       DOPC     H3X      HAL2     0.900000E-01   1.00800           0
      8184 MEMB     56       DOPC     H3Y      HAL2     0.900000E-01   1.00800           0
      8185 MEMB     56       DOPC     C34      CTL2    -0.180000       12.0110           0
      8186 MEMB     56       DOPC     H4X      HAL2     0.900000E-01   1.00800           0
      8187 MEMB     56       DOPC     H4Y      HAL2     0.900000E-01   1.00800           0
      8188 MEMB     56       DOPC     C35      CTL2    -0.180000       12.0110           0
      8189 MEMB     56       DOPC     H5X      HAL2     0.900000E-01   1.00800           0
      8190 MEMB     56       DOPC     H5Y      HAL2     0.900000E-01   1.00800           0
      8191 MEMB     56       DOPC     C36      CTL2    -0.180000       12.0110           0
      8192 MEMB     56       DOPC     H6X      HAL2     0.900000E-01   1.00800           0
      8193 MEMB     56       DOPC     H6Y      HAL2     0.900000E-01   1.00800           0
      8194 MEMB     56       DOPC     C37      CTL2    -0.180000       12.0110           0
      8195 MEMB     56       DOPC     H7X      HAL2     0.900000E-01   1.00800           0
      8196 MEMB     56       DOPC     H7Y      HAL2     0.900000E-01   1.00800           0
      8197 MEMB     56       DOPC     C38      CTL2    -0.180000       12.0110           0
      8198 MEMB     56       DOPC     H8X      HAL2     0.900000E-01   1.00800           0
      8199 MEMB     56       DOPC     H8Y      HAL2     0.900000E-01   1.00800           0
      8200 MEMB     56       DOPC     C39      CEL1    -0.150000       12.0110           0
      8201 MEMB     56       DOPC     H9X      HEL1     0.150000       1.00800           0
      8202 MEMB     56       DOPC     C310     CEL1    -0.150000       12.0110           0
      8203 MEMB     56       DOPC     H10X     HEL1     0.150000       1.00800           0
      8204 MEMB     56       DOPC     C311     CTL2    -0.180000       12.0110           0
      8205 MEMB     56       DOPC     H11X     HAL2     0.900000E-01   1.00800           0
      8206 MEMB     56       DOPC     H11Y     HAL2     0.900000E-01   1.00800           0
      8207 MEMB     56       DOPC     C312     CTL2    -0.180000       12.0110           0
      8208 MEMB     56       DOPC     H12X     HAL2     0.900000E-01   1.00800           0
      8209 MEMB     56       DOPC     H12Y     HAL2     0.900000E-01   1.00800           0
      8210 MEMB     56       DOPC     C313     CTL2    -0.180000       12.0110           0
      8211 MEMB     56       DOPC     H13X     HAL2     0.900000E-01   1.00800           0
      8212 MEMB     56       DOPC     H13Y     HAL2     0.900000E-01   1.00800           0
      8213 MEMB     56       DOPC     C314     CTL2    -0.180000       12.0110           0
      8214 MEMB     56       DOPC     H14X     HAL2     0.900000E-01   1.00800           0
      8215 MEMB     56       DOPC     H14Y     HAL2     0.900000E-01   1.00800           0
      8216 MEMB     56       DOPC     C315     CTL2    -0.180000       12.0110           0
      8217 MEMB     56       DOPC     H15X     HAL2     0.900000E-01   1.00800           0
      8218 MEMB     56       DOPC     H15Y     HAL2     0.900000E-01   1.00800           0
      8219 MEMB     56       DOPC     C316     CTL2    -0.180000       12.0110           0
      8220 MEMB     56       DOPC     H16X     HAL2     0.900000E-01   1.00800           0
      8221 MEMB     56       DOPC     H16Y     HAL2     0.900000E-01   1.00800           0
      8222 MEMB     56       DOPC     C317     CTL2    -0.180000       12.0110           0
      8223 MEMB     56       DOPC     H17X     HAL2     0.900000E-01   1.00800           0
      8224 MEMB     56       DOPC     H17Y     HAL2     0.900000E-01   1.00800           0
      8225 MEMB     56       DOPC     C318     CTL3    -0.270000       12.0110           0
      8226 MEMB     56       DOPC     H18X     HAL3     0.900000E-01   1.00800           0
      8227 MEMB     56       DOPC     H18Y     HAL3     0.900000E-01   1.00800           0
      8228 MEMB     56       DOPC     H18Z     HAL3     0.900000E-01   1.00800           0
      8229 MEMB     57       DOPC     N        NTL     -0.600000       14.0070           0
      8230 MEMB     57       DOPC     C12      CTL2    -0.100000       12.0110           0
      8231 MEMB     57       DOPC     H12A     HL       0.250000       1.00800           0
      8232 MEMB     57       DOPC     H12B     HL       0.250000       1.00800           0
      8233 MEMB     57       DOPC     C13      CTL5    -0.350000       12.0110           0
      8234 MEMB     57       DOPC     H13A     HL       0.250000       1.00800           0
      8235 MEMB     57       DOPC     H13B     HL       0.250000       1.00800           0
      8236 MEMB     57       DOPC     H13C     HL       0.250000       1.00800           0
      8237 MEMB     57       DOPC     C14      CTL5    -0.350000       12.0110           0
      8238 MEMB     57       DOPC     H14A     HL       0.250000       1.00800           0
      8239 MEMB     57       DOPC     H14B     HL       0.250000       1.00800           0
      8240 MEMB     57       DOPC     H14C     HL       0.250000       1.00800           0
      8241 MEMB     57       DOPC     C15      CTL5    -0.350000       12.0110           0
      8242 MEMB     57       DOPC     H15A     HL       0.250000       1.00800           0
      8243 MEMB     57       DOPC     H15B     HL       0.250000       1.00800           0
      8244 MEMB     57       DOPC     H15C     HL       0.250000       1.00800           0
      8245 MEMB     57       DOPC     C11      CTL2    -0.800000E-01   12.0110           0
      8246 MEMB     57       DOPC     H11A     HAL2     0.900000E-01   1.00800           0
      8247 MEMB     57       DOPC     H11B     HAL2     0.900000E-01   1.00800           0
      8248 MEMB     57       DOPC     P        PL        1.50000       30.9740           0
      8249 MEMB     57       DOPC     O13      O2L     -0.780000       15.9994           0
      8250 MEMB     57       DOPC     O14      O2L     -0.780000       15.9994           0
      8251 MEMB     57       DOPC     O12      OSLP    -0.570000       15.9994           0
      8252 MEMB     57       DOPC     O11      OSLP    -0.570000       15.9994           0
      8253 MEMB     57       DOPC     C1       CTL2    -0.800000E-01   12.0110           0
      8254 MEMB     57       DOPC     HA       HAL2     0.900000E-01   1.00800           0
      8255 MEMB     57       DOPC     HB       HAL2     0.900000E-01   1.00800           0
      8256 MEMB     57       DOPC     C2       CTL1     0.170000       12.0110           0
      8257 MEMB     57       DOPC     HS       HAL1     0.900000E-01   1.00800           0
      8258 MEMB     57       DOPC     O21      OSL     -0.490000       15.9994           0
      8259 MEMB     57       DOPC     C21      CL       0.900000       12.0110           0
      8260 MEMB     57       DOPC     O22      OBL     -0.630000       15.9994           0
      8261 MEMB     57       DOPC     C22      CTL2    -0.220000       12.0110           0
      8262 MEMB     57       DOPC     H2R      HAL2     0.900000E-01   1.00800           0
      8263 MEMB     57       DOPC     H2S      HAL2     0.900000E-01   1.00800           0
      8264 MEMB     57       DOPC     C3       CTL2     0.800000E-01   12.0110           0
      8265 MEMB     57       DOPC     HX       HAL2     0.900000E-01   1.00800           0
      8266 MEMB     57       DOPC     HY       HAL2     0.900000E-01   1.00800           0
      8267 MEMB     57       DOPC     O31      OSL     -0.490000       15.9994           0
      8268 MEMB     57       DOPC     C31      CL       0.900000       12.0110           0
      8269 MEMB     57       DOPC     O32      OBL     -0.630000       15.9994           0
      8270 MEMB     57       DOPC     C32      CTL2    -0.220000       12.0110           0
      8271 MEMB     57       DOPC     H2X      HAL2     0.900000E-01   1.00800           0
      8272 MEMB     57       DOPC     H2Y      HAL2     0.900000E-01   1.00800           0
      8273 MEMB     57       DOPC     C23      CTL2    -0.180000       12.0110           0
      8274 MEMB     57       DOPC     H3R      HAL2     0.900000E-01   1.00800           0
      8275 MEMB     57       DOPC     H3S      HAL2     0.900000E-01   1.00800           0
      8276 MEMB     57       DOPC     C24      CTL2    -0.180000       12.0110           0
      8277 MEMB     57       DOPC     H4R      HAL2     0.900000E-01   1.00800           0
      8278 MEMB     57       DOPC     H4S      HAL2     0.900000E-01   1.00800           0
      8279 MEMB     57       DOPC     C25      CTL2    -0.180000       12.0110           0
      8280 MEMB     57       DOPC     H5R      HAL2     0.900000E-01   1.00800           0
      8281 MEMB     57       DOPC     H5S      HAL2     0.900000E-01   1.00800           0
      8282 MEMB     57       DOPC     C26      CTL2    -0.180000       12.0110           0
      8283 MEMB     57       DOPC     H6R      HAL2     0.900000E-01   1.00800           0
      8284 MEMB     57       DOPC     H6S      HAL2     0.900000E-01   1.00800           0
      8285 MEMB     57       DOPC     C27      CTL2    -0.180000       12.0110           0
      8286 MEMB     57       DOPC     H7R      HAL2     0.900000E-01   1.00800           0
      8287 MEMB     57       DOPC     H7S      HAL2     0.900000E-01   1.00800           0
      8288 MEMB     57       DOPC     C28      CTL2    -0.180000       12.0110           0
      8289 MEMB     57       DOPC     H8R      HAL2     0.900000E-01   1.00800           0
      8290 MEMB     57       DOPC     H8S      HAL2     0.900000E-01   1.00800           0
      8291 MEMB     57       DOPC     C29      CEL1    -0.150000       12.0110           0
      8292 MEMB     57       DOPC     H9R      HEL1     0.150000       1.00800           0
      8293 MEMB     57       DOPC     C210     CEL1    -0.150000       12.0110           0
      8294 MEMB     57       DOPC     H10R     HEL1     0.150000       1.00800           0
      8295 MEMB     57       DOPC     C211     CTL2    -0.180000       12.0110           0
      8296 MEMB     57       DOPC     H11R     HAL2     0.900000E-01   1.00800           0
      8297 MEMB     57       DOPC     H11S     HAL2     0.900000E-01   1.00800           0
      8298 MEMB     57       DOPC     C212     CTL2    -0.180000       12.0110           0
      8299 MEMB     57       DOPC     H12R     HAL2     0.900000E-01   1.00800           0
      8300 MEMB     57       DOPC     H12S     HAL2     0.900000E-01   1.00800           0
      8301 MEMB     57       DOPC     C213     CTL2    -0.180000       12.0110           0
      8302 MEMB     57       DOPC     H13R     HAL2     0.900000E-01   1.00800           0
      8303 MEMB     57       DOPC     H13S     HAL2     0.900000E-01   1.00800           0
      8304 MEMB     57       DOPC     C214     CTL2    -0.180000       12.0110           0
      8305 MEMB     57       DOPC     H14R     HAL2     0.900000E-01   1.00800           0
      8306 MEMB     57       DOPC     H14S     HAL2     0.900000E-01   1.00800           0
      8307 MEMB     57       DOPC     C215     CTL2    -0.180000       12.0110           0
      8308 MEMB     57       DOPC     H15R     HAL2     0.900000E-01   1.00800           0
      8309 MEMB     57       DOPC     H15S     HAL2     0.900000E-01   1.00800           0
      8310 MEMB     57       DOPC     C216     CTL2    -0.180000       12.0110           0
      8311 MEMB     57       DOPC     H16R     HAL2     0.900000E-01   1.00800           0
      8312 MEMB     57       DOPC     H16S     HAL2     0.900000E-01   1.00800           0
      8313 MEMB     57       DOPC     C217     CTL2    -0.180000       12.0110           0
      8314 MEMB     57       DOPC     H17R     HAL2     0.900000E-01   1.00800           0
      8315 MEMB     57       DOPC     H17S     HAL2     0.900000E-01   1.00800           0
      8316 MEMB     57       DOPC     C218     CTL3    -0.270000       12.0110           0
      8317 MEMB     57       DOPC     H18R     HAL3     0.900000E-01   1.00800           0
      8318 MEMB     57       DOPC     H18S     HAL3     0.900000E-01   1.00800           0
      8319 MEMB     57       DOPC     H18T     HAL3     0.900000E-01   1.00800           0
      8320 MEMB     57       DOPC     C33      CTL2    -0.180000       12.0110           0
      8321 MEMB     57       DOPC     H3X      HAL2     0.900000E-01   1.00800           0
      8322 MEMB     57       DOPC     H3Y      HAL2     0.900000E-01   1.00800           0
      8323 MEMB     57       DOPC     C34      CTL2    -0.180000       12.0110           0
      8324 MEMB     57       DOPC     H4X      HAL2     0.900000E-01   1.00800           0
      8325 MEMB     57       DOPC     H4Y      HAL2     0.900000E-01   1.00800           0
      8326 MEMB     57       DOPC     C35      CTL2    -0.180000       12.0110           0
      8327 MEMB     57       DOPC     H5X      HAL2     0.900000E-01   1.00800           0
      8328 MEMB     57       DOPC     H5Y      HAL2     0.900000E-01   1.00800           0
      8329 MEMB     57       DOPC     C36      CTL2    -0.180000       12.0110           0
      8330 MEMB     57       DOPC     H6X      HAL2     0.900000E-01   1.00800           0
      8331 MEMB     57       DOPC     H6Y      HAL2     0.900000E-01   1.00800           0
      8332 MEMB     57       DOPC     C37      CTL2    -0.180000       12.0110           0
      8333 MEMB     57       DOPC     H7X      HAL2     0.900000E-01   1.00800           0
      8334 MEMB     57       DOPC     H7Y      HAL2     0.900000E-01   1.00800           0
      8335 MEMB     57       DOPC     C38      CTL2    -0.180000       12.0110           0
      8336 MEMB     57       DOPC     H8X      HAL2     0.900000E-01   1.00800           0
      8337 MEMB     57       DOPC     H8Y      HAL2     0.900000E-01   1.00800           0
      8338 MEMB     57       DOPC     C39      CEL1    -0.150000       12.0110           0
      8339 MEMB     57       DOPC     H9X      HEL1     0.150000       1.00800           0
      8340 MEMB     57       DOPC     C310     CEL1    -0.150000       12.0110           0
      8341 MEMB     57       DOPC     H10X     HEL1     0.150000       1.00800           0
      8342 MEMB     57       DOPC     C311     CTL2    -0.180000       12.0110           0
      8343 MEMB     57       DOPC     H11X     HAL2     0.900000E-01   1.00800           0
      8344 MEMB     57       DOPC     H11Y     HAL2     0.900000E-01   1.00800           0
      8345 MEMB     57       DOPC     C312     CTL2    -0.180000       12.0110           0
      8346 MEMB     57       DOPC     H12X     HAL2     0.900000E-01   1.00800           0
      8347 MEMB     57       DOPC     H12Y     HAL2     0.900000E-01   1.00800           0
      8348 MEMB     57       DOPC     C313     CTL2    -0.180000       12.0110           0
      8349 MEMB     57       DOPC     H13X     HAL2     0.900000E-01   1.00800           0
      8350 MEMB     57       DOPC     H13Y     HAL2     0.900000E-01   1.00800           0
      8351 MEMB     57       DOPC     C314     CTL2    -0.180000       12.0110           0
      8352 MEMB     57       DOPC     H14X     HAL2     0.900000E-01   1.00800           0
      8353 MEMB     57       DOPC     H14Y     HAL2     0.900000E-01   1.00800           0
      8354 MEMB     57       DOPC     C315     CTL2    -0.180000       12.0110           0
      8355 MEMB     57       DOPC     H15X     HAL2     0.900000E-01   1.00800           0
      8356 MEMB     57       DOPC     H15Y     HAL2     0.900000E-01   1.00800           0
      8357 MEMB     57       DOPC     C316     CTL2    -0.180000       12.0110           0
      8358 MEMB     57       DOPC     H16X     HAL2     0.900000E-01   1.00800           0
      8359 MEMB     57       DOPC     H16Y     HAL2     0.900000E-01   1.00800           0
      8360 MEMB     57       DOPC     C317     CTL2    -0.180000       12.0110           0
      8361 MEMB     57       DOPC     H17X     HAL2     0.900000E-01   1.00800           0
      8362 MEMB     57       DOPC     H17Y     HAL2     0.900000E-01   1.00800           0
      8363 MEMB     57       DOPC     C318     CTL3    -0.270000       12.0110           0
      8364 MEMB     57       DOPC     H18X     HAL3     0.900000E-01   1.00800           0
      8365 MEMB     57       DOPC     H18Y     HAL3     0.900000E-01   1.00800           0
      8366 MEMB     57       DOPC     H18Z     HAL3     0.900000E-01   1.00800           0
      8367 MEMB     58       DOPC     N        NTL     -0.600000       14.0070           0
      8368 MEMB     58       DOPC     C12      CTL2    -0.100000       12.0110           0
      8369 MEMB     58       DOPC     H12A     HL       0.250000       1.00800           0
      8370 MEMB     58       DOPC     H12B     HL       0.250000       1.00800           0
      8371 MEMB     58       DOPC     C13      CTL5    -0.350000       12.0110           0
      8372 MEMB     58       DOPC     H13A     HL       0.250000       1.00800           0
      8373 MEMB     58       DOPC     H13B     HL       0.250000       1.00800           0
      8374 MEMB     58       DOPC     H13C     HL       0.250000       1.00800           0
      8375 MEMB     58       DOPC     C14      CTL5    -0.350000       12.0110           0
      8376 MEMB     58       DOPC     H14A     HL       0.250000       1.00800           0
      8377 MEMB     58       DOPC     H14B     HL       0.250000       1.00800           0
      8378 MEMB     58       DOPC     H14C     HL       0.250000       1.00800           0
      8379 MEMB     58       DOPC     C15      CTL5    -0.350000       12.0110           0
      8380 MEMB     58       DOPC     H15A     HL       0.250000       1.00800           0
      8381 MEMB     58       DOPC     H15B     HL       0.250000       1.00800           0
      8382 MEMB     58       DOPC     H15C     HL       0.250000       1.00800           0
      8383 MEMB     58       DOPC     C11      CTL2    -0.800000E-01   12.0110           0
      8384 MEMB     58       DOPC     H11A     HAL2     0.900000E-01   1.00800           0
      8385 MEMB     58       DOPC     H11B     HAL2     0.900000E-01   1.00800           0
      8386 MEMB     58       DOPC     P        PL        1.50000       30.9740           0
      8387 MEMB     58       DOPC     O13      O2L     -0.780000       15.9994           0
      8388 MEMB     58       DOPC     O14      O2L     -0.780000       15.9994           0
      8389 MEMB     58       DOPC     O12      OSLP    -0.570000       15.9994           0
      8390 MEMB     58       DOPC     O11      OSLP    -0.570000       15.9994           0
      8391 MEMB     58       DOPC     C1       CTL2    -0.800000E-01   12.0110           0
      8392 MEMB     58       DOPC     HA       HAL2     0.900000E-01   1.00800           0
      8393 MEMB     58       DOPC     HB       HAL2     0.900000E-01   1.00800           0
      8394 MEMB     58       DOPC     C2       CTL1     0.170000       12.0110           0
      8395 MEMB     58       DOPC     HS       HAL1     0.900000E-01   1.00800           0
      8396 MEMB     58       DOPC     O21      OSL     -0.490000       15.9994           0
      8397 MEMB     58       DOPC     C21      CL       0.900000       12.0110           0
      8398 MEMB     58       DOPC     O22      OBL     -0.630000       15.9994           0
      8399 MEMB     58       DOPC     C22      CTL2    -0.220000       12.0110           0
      8400 MEMB     58       DOPC     H2R      HAL2     0.900000E-01   1.00800           0
      8401 MEMB     58       DOPC     H2S      HAL2     0.900000E-01   1.00800           0
      8402 MEMB     58       DOPC     C3       CTL2     0.800000E-01   12.0110           0
      8403 MEMB     58       DOPC     HX       HAL2     0.900000E-01   1.00800           0
      8404 MEMB     58       DOPC     HY       HAL2     0.900000E-01   1.00800           0
      8405 MEMB     58       DOPC     O31      OSL     -0.490000       15.9994           0
      8406 MEMB     58       DOPC     C31      CL       0.900000       12.0110           0
      8407 MEMB     58       DOPC     O32      OBL     -0.630000       15.9994           0
      8408 MEMB     58       DOPC     C32      CTL2    -0.220000       12.0110           0
      8409 MEMB     58       DOPC     H2X      HAL2     0.900000E-01   1.00800           0
      8410 MEMB     58       DOPC     H2Y      HAL2     0.900000E-01   1.00800           0
      8411 MEMB     58       DOPC     C23      CTL2    -0.180000       12.0110           0
      8412 MEMB     58       DOPC     H3R      HAL2     0.900000E-01   1.00800           0
      8413 MEMB     58       DOPC     H3S      HAL2     0.900000E-01   1.00800           0
      8414 MEMB     58       DOPC     C24      CTL2    -0.180000       12.0110           0
      8415 MEMB     58       DOPC     H4R      HAL2     0.900000E-01   1.00800           0
      8416 MEMB     58       DOPC     H4S      HAL2     0.900000E-01   1.00800           0
      8417 MEMB     58       DOPC     C25      CTL2    -0.180000       12.0110           0
      8418 MEMB     58       DOPC     H5R      HAL2     0.900000E-01   1.00800           0
      8419 MEMB     58       DOPC     H5S      HAL2     0.900000E-01   1.00800           0
      8420 MEMB     58       DOPC     C26      CTL2    -0.180000       12.0110           0
      8421 MEMB     58       DOPC     H6R      HAL2     0.900000E-01   1.00800           0
      8422 MEMB     58       DOPC     H6S      HAL2     0.900000E-01   1.00800           0
      8423 MEMB     58       DOPC     C27      CTL2    -0.180000       12.0110           0
      8424 MEMB     58       DOPC     H7R      HAL2     0.900000E-01   1.00800           0
      8425 MEMB     58       DOPC     H7S      HAL2     0.900000E-01   1.00800           0
      8426 MEMB     58       DOPC     C28      CTL2    -0.180000       12.0110           0
      8427 MEMB     58       DOPC     H8R      HAL2     0.900000E-01   1.00800           0
      8428 MEMB     58       DOPC     H8S      HAL2     0.900000E-01   1.00800           0
      8429 MEMB     58       DOPC     C29      CEL1    -0.150000       12.0110           0
      8430 MEMB     58       DOPC     H9R      HEL1     0.150000       1.00800           0
      8431 MEMB     58       DOPC     C210     CEL1    -0.150000       12.0110           0
      8432 MEMB     58       DOPC     H10R     HEL1     0.150000       1.00800           0
      8433 MEMB     58       DOPC     C211     CTL2    -0.180000       12.0110           0
      8434 MEMB     58       DOPC     H11R     HAL2     0.900000E-01   1.00800           0
      8435 MEMB     58       DOPC     H11S     HAL2     0.900000E-01   1.00800           0
      8436 MEMB     58       DOPC     C212     CTL2    -0.180000       12.0110           0
      8437 MEMB     58       DOPC     H12R     HAL2     0.900000E-01   1.00800           0
      8438 MEMB     58       DOPC     H12S     HAL2     0.900000E-01   1.00800           0
      8439 MEMB     58       DOPC     C213     CTL2    -0.180000       12.0110           0
      8440 MEMB     58       DOPC     H13R     HAL2     0.900000E-01   1.00800           0
      8441 MEMB     58       DOPC     H13S     HAL2     0.900000E-01   1.00800           0
      8442 MEMB     58       DOPC     C214     CTL2    -0.180000       12.0110           0
      8443 MEMB     58       DOPC     H14R     HAL2     0.900000E-01   1.00800           0
      8444 MEMB     58       DOPC     H14S     HAL2     0.900000E-01   1.00800           0
      8445 MEMB     58       DOPC     C215     CTL2    -0.180000       12.0110           0
      8446 MEMB     58       DOPC     H15R     HAL2     0.900000E-01   1.00800           0
      8447 MEMB     58       DOPC     H15S     HAL2     0.900000E-01   1.00800           0
      8448 MEMB     58       DOPC     C216     CTL2    -0.180000       12.0110           0
      8449 MEMB     58       DOPC     H16R     HAL2     0.900000E-01   1.00800           0
      8450 MEMB     58       DOPC     H16S     HAL2     0.900000E-01   1.00800           0
      8451 MEMB     58       DOPC     C217     CTL2    -0.180000       12.0110           0
      8452 MEMB     58       DOPC     H17R     HAL2     0.900000E-01   1.00800           0
      8453 MEMB     58       DOPC     H17S     HAL2     0.900000E-01   1.00800           0
      8454 MEMB     58       DOPC     C218     CTL3    -0.270000       12.0110           0
      8455 MEMB     58       DOPC     H18R     HAL3     0.900000E-01   1.00800           0
      8456 MEMB     58       DOPC     H18S     HAL3     0.900000E-01   1.00800           0
      8457 MEMB     58       DOPC     H18T     HAL3     0.900000E-01   1.00800           0
      8458 MEMB     58       DOPC     C33      CTL2    -0.180000       12.0110           0
      8459 MEMB     58       DOPC     H3X      HAL2     0.900000E-01   1.00800           0
      8460 MEMB     58       DOPC     H3Y      HAL2     0.900000E-01   1.00800           0
      8461 MEMB     58       DOPC     C34      CTL2    -0.180000       12.0110           0
      8462 MEMB     58       DOPC     H4X      HAL2     0.900000E-01   1.00800           0
      8463 MEMB     58       DOPC     H4Y      HAL2     0.900000E-01   1.00800           0
      8464 MEMB     58       DOPC     C35      CTL2    -0.180000       12.0110           0
      8465 MEMB     58       DOPC     H5X      HAL2     0.900000E-01   1.00800           0
      8466 MEMB     58       DOPC     H5Y      HAL2     0.900000E-01   1.00800           0
      8467 MEMB     58       DOPC     C36      CTL2    -0.180000       12.0110           0
      8468 MEMB     58       DOPC     H6X      HAL2     0.900000E-01   1.00800           0
      8469 MEMB     58       DOPC     H6Y      HAL2     0.900000E-01   1.00800           0
      8470 MEMB     58       DOPC     C37      CTL2    -0.180000       12.0110           0
      8471 MEMB     58       DOPC     H7X      HAL2     0.900000E-01   1.00800           0
      8472 MEMB     58       DOPC     H7Y      HAL2     0.900000E-01   1.00800           0
      8473 MEMB     58       DOPC     C38      CTL2    -0.180000       12.0110           0
      8474 MEMB     58       DOPC     H8X      HAL2     0.900000E-01   1.00800           0
      8475 MEMB     58       DOPC     H8Y      HAL2     0.900000E-01   1.00800           0
      8476 MEMB     58       DOPC     C39      CEL1    -0.150000       12.0110           0
      8477 MEMB     58       DOPC     H9X      HEL1     0.150000       1.00800           0
      8478 MEMB     58       DOPC     C310     CEL1    -0.150000       12.0110           0
      8479 MEMB     58       DOPC     H10X     HEL1     0.150000       1.00800           0
      8480 MEMB     58       DOPC     C311     CTL2    -0.180000       12.0110           0
      8481 MEMB     58       DOPC     H11X     HAL2     0.900000E-01   1.00800           0
      8482 MEMB     58       DOPC     H11Y     HAL2     0.900000E-01   1.00800           0
      8483 MEMB     58       DOPC     C312     CTL2    -0.180000       12.0110           0
      8484 MEMB     58       DOPC     H12X     HAL2     0.900000E-01   1.00800           0
      8485 MEMB     58       DOPC     H12Y     HAL2     0.900000E-01   1.00800           0
      8486 MEMB     58       DOPC     C313     CTL2    -0.180000       12.0110           0
      8487 MEMB     58       DOPC     H13X     HAL2     0.900000E-01   1.00800           0
      8488 MEMB     58       DOPC     H13Y     HAL2     0.900000E-01   1.00800           0
      8489 MEMB     58       DOPC     C314     CTL2    -0.180000       12.0110           0
      8490 MEMB     58       DOPC     H14X     HAL2     0.900000E-01   1.00800           0
      8491 MEMB     58       DOPC     H14Y     HAL2     0.900000E-01   1.00800           0
      8492 MEMB     58       DOPC     C315     CTL2    -0.180000       12.0110           0
      8493 MEMB     58       DOPC     H15X     HAL2     0.900000E-01   1.00800           0
      8494 MEMB     58       DOPC     H15Y     HAL2     0.900000E-01   1.00800           0
      8495 MEMB     58       DOPC     C316     CTL2    -0.180000       12.0110           0
      8496 MEMB     58       DOPC     H16X     HAL2     0.900000E-01   1.00800           0
      8497 MEMB     58       DOPC     H16Y     HAL2     0.900000E-01   1.00800           0
      8498 MEMB     58       DOPC     C317     CTL2    -0.180000       12.0110           0
      8499 MEMB     58       DOPC     H17X     HAL2     0.900000E-01   1.00800           0
      8500 MEMB     58       DOPC     H17Y     HAL2     0.900000E-01   1.00800           0
      8501 MEMB     58       DOPC     C318     CTL3    -0.270000       12.0110           0
      8502 MEMB     58       DOPC     H18X     HAL3     0.900000E-01   1.00800           0
      8503 MEMB     58       DOPC     H18Y     HAL3     0.900000E-01   1.00800           0
      8504 MEMB     58       DOPC     H18Z     HAL3     0.900000E-01   1.00800           0
      8505 MEMB     59       DOPC     N        NTL     -0.600000       14.0070           0
      8506 MEMB     59       DOPC     C12      CTL2    -0.100000       12.0110           0
      8507 MEMB     59       DOPC     H12A     HL       0.250000       1.00800           0
      8508 MEMB     59       DOPC     H12B     HL       0.250000       1.00800           0
      8509 MEMB     59       DOPC     C13      CTL5    -0.350000       12.0110           0
      8510 MEMB     59       DOPC     H13A     HL       0.250000       1.00800           0
      8511 MEMB     59       DOPC     H13B     HL       0.250000       1.00800           0
      8512 MEMB     59       DOPC     H13C     HL       0.250000       1.00800           0
      8513 MEMB     59       DOPC     C14      CTL5    -0.350000       12.0110           0
      8514 MEMB     59       DOPC     H14A     HL       0.250000       1.00800           0
      8515 MEMB     59       DOPC     H14B     HL       0.250000       1.00800           0
      8516 MEMB     59       DOPC     H14C     HL       0.250000       1.00800           0
      8517 MEMB     59       DOPC     C15      CTL5    -0.350000       12.0110           0
      8518 MEMB     59       DOPC     H15A     HL       0.250000       1.00800           0
      8519 MEMB     59       DOPC     H15B     HL       0.250000       1.00800           0
      8520 MEMB     59       DOPC     H15C     HL       0.250000       1.00800           0
      8521 MEMB     59       DOPC     C11      CTL2    -0.800000E-01   12.0110           0
      8522 MEMB     59       DOPC     H11A     HAL2     0.900000E-01   1.00800           0
      8523 MEMB     59       DOPC     H11B     HAL2     0.900000E-01   1.00800           0
      8524 MEMB     59       DOPC     P        PL        1.50000       30.9740           0
      8525 MEMB     59       DOPC     O13      O2L     -0.780000       15.9994           0
      8526 MEMB     59       DOPC     O14      O2L     -0.780000       15.9994           0
      8527 MEMB     59       DOPC     O12      OSLP    -0.570000       15.9994           0
      8528 MEMB     59       DOPC     O11      OSLP    -0.570000       15.9994           0
      8529 MEMB     59       DOPC     C1       CTL2    -0.800000E-01   12.0110           0
      8530 MEMB     59       DOPC     HA       HAL2     0.900000E-01   1.00800           0
      8531 MEMB     59       DOPC     HB       HAL2     0.900000E-01   1.00800           0
      8532 MEMB     59       DOPC     C2       CTL1     0.170000       12.0110           0
      8533 MEMB     59       DOPC     HS       HAL1     0.900000E-01   1.00800           0
      8534 MEMB     59       DOPC     O21      OSL     -0.490000       15.9994           0
      8535 MEMB     59       DOPC     C21      CL       0.900000       12.0110           0
      8536 MEMB     59       DOPC     O22      OBL     -0.630000       15.9994           0
      8537 MEMB     59       DOPC     C22      CTL2    -0.220000       12.0110           0
      8538 MEMB     59       DOPC     H2R      HAL2     0.900000E-01   1.00800           0
      8539 MEMB     59       DOPC     H2S      HAL2     0.900000E-01   1.00800           0
      8540 MEMB     59       DOPC     C3       CTL2     0.800000E-01   12.0110           0
      8541 MEMB     59       DOPC     HX       HAL2     0.900000E-01   1.00800           0
      8542 MEMB     59       DOPC     HY       HAL2     0.900000E-01   1.00800           0
      8543 MEMB     59       DOPC     O31      OSL     -0.490000       15.9994           0
      8544 MEMB     59       DOPC     C31      CL       0.900000       12.0110           0
      8545 MEMB     59       DOPC     O32      OBL     -0.630000       15.9994           0
      8546 MEMB     59       DOPC     C32      CTL2    -0.220000       12.0110           0
      8547 MEMB     59       DOPC     H2X      HAL2     0.900000E-01   1.00800           0
      8548 MEMB     59       DOPC     H2Y      HAL2     0.900000E-01   1.00800           0
      8549 MEMB     59       DOPC     C23      CTL2    -0.180000       12.0110           0
      8550 MEMB     59       DOPC     H3R      HAL2     0.900000E-01   1.00800           0
      8551 MEMB     59       DOPC     H3S      HAL2     0.900000E-01   1.00800           0
      8552 MEMB     59       DOPC     C24      CTL2    -0.180000       12.0110           0
      8553 MEMB     59       DOPC     H4R      HAL2     0.900000E-01   1.00800           0
      8554 MEMB     59       DOPC     H4S      HAL2     0.900000E-01   1.00800           0
      8555 MEMB     59       DOPC     C25      CTL2    -0.180000       12.0110           0
      8556 MEMB     59       DOPC     H5R      HAL2     0.900000E-01   1.00800           0
      8557 MEMB     59       DOPC     H5S      HAL2     0.900000E-01   1.00800           0
      8558 MEMB     59       DOPC     C26      CTL2    -0.180000       12.0110           0
      8559 MEMB     59       DOPC     H6R      HAL2     0.900000E-01   1.00800           0
      8560 MEMB     59       DOPC     H6S      HAL2     0.900000E-01   1.00800           0
      8561 MEMB     59       DOPC     C27      CTL2    -0.180000       12.0110           0
      8562 MEMB     59       DOPC     H7R      HAL2     0.900000E-01   1.00800           0
      8563 MEMB     59       DOPC     H7S      HAL2     0.900000E-01   1.00800           0
      8564 MEMB     59       DOPC     C28      CTL2    -0.180000       12.0110           0
      8565 MEMB     59       DOPC     H8R      HAL2     0.900000E-01   1.00800           0
      8566 MEMB     59       DOPC     H8S      HAL2     0.900000E-01   1.00800           0
      8567 MEMB     59       DOPC     C29      CEL1    -0.150000       12.0110           0
      8568 MEMB     59       DOPC     H9R      HEL1     0.150000       1.00800           0
      8569 MEMB     59       DOPC     C210     CEL1    -0.150000       12.0110           0
      8570 MEMB     59       DOPC     H10R     HEL1     0.150000       1.00800           0
      8571 MEMB     59       DOPC     C211     CTL2    -0.180000       12.0110           0
      8572 MEMB     59       DOPC     H11R     HAL2     0.900000E-01   1.00800           0
      8573 MEMB     59       DOPC     H11S     HAL2     0.900000E-01   1.00800           0
      8574 MEMB     59       DOPC     C212     CTL2    -0.180000       12.0110           0
      8575 MEMB     59       DOPC     H12R     HAL2     0.900000E-01   1.00800           0
      8576 MEMB     59       DOPC     H12S     HAL2     0.900000E-01   1.00800           0
      8577 MEMB     59       DOPC     C213     CTL2    -0.180000       12.0110           0
      8578 MEMB     59       DOPC     H13R     HAL2     0.900000E-01   1.00800           0
      8579 MEMB     59       DOPC     H13S     HAL2     0.900000E-01   1.00800           0
      8580 MEMB     59       DOPC     C214     CTL2    -0.180000       12.0110           0
      8581 MEMB     59       DOPC     H14R     HAL2     0.900000E-01   1.00800           0
      8582 MEMB     59       DOPC     H14S     HAL2     0.900000E-01   1.00800           0
      8583 MEMB     59       DOPC     C215     CTL2    -0.180000       12.0110           0
      8584 MEMB     59       DOPC     H15R     HAL2     0.900000E-01   1.00800           0
      8585 MEMB     59       DOPC     H15S     HAL2     0.900000E-01   1.00800           0
      8586 MEMB     59       DOPC     C216     CTL2    -0.180000       12.0110           0
      8587 MEMB     59       DOPC     H16R     HAL2     0.900000E-01   1.00800           0
      8588 MEMB     59       DOPC     H16S     HAL2     0.900000E-01   1.00800           0
      8589 MEMB     59       DOPC     C217     CTL2    -0.180000       12.0110           0
      8590 MEMB     59       DOPC     H17R     HAL2     0.900000E-01   1.00800           0
      8591 MEMB     59       DOPC     H17S     HAL2     0.900000E-01   1.00800           0
      8592 MEMB     59       DOPC     C218     CTL3    -0.270000       12.0110           0
      8593 MEMB     59       DOPC     H18R     HAL3     0.900000E-01   1.00800           0
      8594 MEMB     59       DOPC     H18S     HAL3     0.900000E-01   1.00800           0
      8595 MEMB     59       DOPC     H18T     HAL3     0.900000E-01   1.00800           0
      8596 MEMB     59       DOPC     C33      CTL2    -0.180000       12.0110           0
      8597 MEMB     59       DOPC     H3X      HAL2     0.900000E-01   1.00800           0
      8598 MEMB     59       DOPC     H3Y      HAL2     0.900000E-01   1.00800           0
      8599 MEMB     59       DOPC     C34      CTL2    -0.180000       12.0110           0
      8600 MEMB     59       DOPC     H4X      HAL2     0.900000E-01   1.00800           0
      8601 MEMB     59       DOPC     H4Y      HAL2     0.900000E-01   1.00800           0
      8602 MEMB     59       DOPC     C35      CTL2    -0.180000       12.0110           0
      8603 MEMB     59       DOPC     H5X      HAL2     0.900000E-01   1.00800           0
      8604 MEMB     59       DOPC     H5Y      HAL2     0.900000E-01   1.00800           0
      8605 MEMB     59       DOPC     C36      CTL2    -0.180000       12.0110           0
      8606 MEMB     59       DOPC     H6X      HAL2     0.900000E-01   1.00800           0
      8607 MEMB     59       DOPC     H6Y      HAL2     0.900000E-01   1.00800           0
      8608 MEMB     59       DOPC     C37      CTL2    -0.180000       12.0110           0
      8609 MEMB     59       DOPC     H7X      HAL2     0.900000E-01   1.00800           0
      8610 MEMB     59       DOPC     H7Y      HAL2     0.900000E-01   1.00800           0
      8611 MEMB     59       DOPC     C38      CTL2    -0.180000       12.0110           0
      8612 MEMB     59       DOPC     H8X      HAL2     0.900000E-01   1.00800           0
      8613 MEMB     59       DOPC     H8Y      HAL2     0.900000E-01   1.00800           0
      8614 MEMB     59       DOPC     C39      CEL1    -0.150000       12.0110           0
      8615 MEMB     59       DOPC     H9X      HEL1     0.150000       1.00800           0
      8616 MEMB     59       DOPC     C310     CEL1    -0.150000       12.0110           0
      8617 MEMB     59       DOPC     H10X     HEL1     0.150000       1.00800           0
      8618 MEMB     59       DOPC     C311     CTL2    -0.180000       12.0110           0
      8619 MEMB     59       DOPC     H11X     HAL2     0.900000E-01   1.00800           0
      8620 MEMB     59       DOPC     H11Y     HAL2     0.900000E-01   1.00800           0
      8621 MEMB     59       DOPC     C312     CTL2    -0.180000       12.0110           0
      8622 MEMB     59       DOPC     H12X     HAL2     0.900000E-01   1.00800           0
      8623 MEMB     59       DOPC     H12Y     HAL2     0.900000E-01   1.00800           0
      8624 MEMB     59       DOPC     C313     CTL2    -0.180000       12.0110           0
      8625 MEMB     59       DOPC     H13X     HAL2     0.900000E-01   1.00800           0
      8626 MEMB     59       DOPC     H13Y     HAL2     0.900000E-01   1.00800           0
      8627 MEMB     59       DOPC     C314     CTL2    -0.180000       12.0110           0
      8628 MEMB     59       DOPC     H14X     HAL2     0.900000E-01   1.00800           0
      8629 MEMB     59       DOPC     H14Y     HAL2     0.900000E-01   1.00800           0
      8630 MEMB     59       DOPC     C315     CTL2    -0.180000       12.0110           0
      8631 MEMB     59       DOPC     H15X     HAL2     0.900000E-01   1.00800           0
      8632 MEMB     59       DOPC     H15Y     HAL2     0.900000E-01   1.00800           0
      8633 MEMB     59       DOPC     C316     CTL2    -0.180000       12.0110           0
      8634 MEMB     59       DOPC     H16X     HAL2     0.900000E-01   1.00800           0
      8635 MEMB     59       DOPC     H16Y     HAL2     0.900000E-01   1.00800           0
      8636 MEMB     59       DOPC     C317     CTL2    -0.180000       12.0110           0
      8637 MEMB     59       DOPC     H17X     HAL2     0.900000E-01   1.00800           0
      8638 MEMB     59       DOPC     H17Y     HAL2     0.900000E-01   1.00800           0
      8639 MEMB     59       DOPC     C318     CTL3    -0.270000       12.0110           0
      8640 MEMB     59       DOPC     H18X     HAL3     0.900000E-01   1.00800           0
      8641 MEMB     59       DOPC     H18Y     HAL3     0.900000E-01   1.00800           0
      8642 MEMB     59       DOPC     H18Z     HAL3     0.900000E-01   1.00800           0
      8643 MEMB     60       DOPC     N        NTL     -0.600000       14.0070           0
      8644 MEMB     60       DOPC     C12      CTL2    -0.100000       12.0110           0
      8645 MEMB     60       DOPC     H12A     HL       0.250000       1.00800           0
      8646 MEMB     60       DOPC     H12B     HL       0.250000       1.00800           0
      8647 MEMB     60       DOPC     C13      CTL5    -0.350000       12.0110           0
      8648 MEMB     60       DOPC     H13A     HL       0.250000       1.00800           0
      8649 MEMB     60       DOPC     H13B     HL       0.250000       1.00800           0
      8650 MEMB     60       DOPC     H13C     HL       0.250000       1.00800           0
      8651 MEMB     60       DOPC     C14      CTL5    -0.350000       12.0110           0
      8652 MEMB     60       DOPC     H14A     HL       0.250000       1.00800           0
      8653 MEMB     60       DOPC     H14B     HL       0.250000       1.00800           0
      8654 MEMB     60       DOPC     H14C     HL       0.250000       1.00800           0
      8655 MEMB     60       DOPC     C15      CTL5    -0.350000       12.0110           0
      8656 MEMB     60       DOPC     H15A     HL       0.250000       1.00800           0
      8657 MEMB     60       DOPC     H15B     HL       0.250000       1.00800           0
      8658 MEMB     60       DOPC     H15C     HL       0.250000       1.00800           0
      8659 MEMB     60       DOPC     C11      CTL2    -0.800000E-01   12.0110           0
      8660 MEMB     60       DOPC     H11A     HAL2     0.900000E-01   1.00800           0
      8661 MEMB     60       DOPC     H11B     HAL2     0.900000E-01   1.00800           0
      8662 MEMB     60       DOPC     P        PL        1.50000       30.9740           0
      8663 MEMB     60       DOPC     O13      O2L     -0.780000       15.9994           0
      8664 MEMB     60       DOPC     O14      O2L     -0.780000       15.9994           0
      8665 MEMB     60       DOPC     O12      OSLP    -0.570000       15.9994           0
      8666 MEMB     60       DOPC     O11      OSLP    -0.570000       15.9994           0
      8667 MEMB     60       DOPC     C1       CTL2    -0.800000E-01   12.0110           0
      8668 MEMB     60       DOPC     HA       HAL2     0.900000E-01   1.00800           0
      8669 MEMB     60       DOPC     HB       HAL2     0.900000E-01   1.00800           0
      8670 MEMB     60       DOPC     C2       CTL1     0.170000       12.0110           0
      8671 MEMB     60       DOPC     HS       HAL1     0.900000E-01   1.00800           0
      8672 MEMB     60       DOPC     O21      OSL     -0.490000       15.9994           0
      8673 MEMB     60       DOPC     C21      CL       0.900000       12.0110           0
      8674 MEMB     60       DOPC     O22      OBL     -0.630000       15.9994           0
      8675 MEMB     60       DOPC     C22      CTL2    -0.220000       12.0110           0
      8676 MEMB     60       DOPC     H2R      HAL2     0.900000E-01   1.00800           0
      8677 MEMB     60       DOPC     H2S      HAL2     0.900000E-01   1.00800           0
      8678 MEMB     60       DOPC     C3       CTL2     0.800000E-01   12.0110           0
      8679 MEMB     60       DOPC     HX       HAL2     0.900000E-01   1.00800           0
      8680 MEMB     60       DOPC     HY       HAL2     0.900000E-01   1.00800           0
      8681 MEMB     60       DOPC     O31      OSL     -0.490000       15.9994           0
      8682 MEMB     60       DOPC     C31      CL       0.900000       12.0110           0
      8683 MEMB     60       DOPC     O32      OBL     -0.630000       15.9994           0
      8684 MEMB     60       DOPC     C32      CTL2    -0.220000       12.0110           0
      8685 MEMB     60       DOPC     H2X      HAL2     0.900000E-01   1.00800           0
      8686 MEMB     60       DOPC     H2Y      HAL2     0.900000E-01   1.00800           0
      8687 MEMB     60       DOPC     C23      CTL2    -0.180000       12.0110           0
      8688 MEMB     60       DOPC     H3R      HAL2     0.900000E-01   1.00800           0
      8689 MEMB     60       DOPC     H3S      HAL2     0.900000E-01   1.00800           0
      8690 MEMB     60       DOPC     C24      CTL2    -0.180000       12.0110           0
      8691 MEMB     60       DOPC     H4R      HAL2     0.900000E-01   1.00800           0
      8692 MEMB     60       DOPC     H4S      HAL2     0.900000E-01   1.00800           0
      8693 MEMB     60       DOPC     C25      CTL2    -0.180000       12.0110           0
      8694 MEMB     60       DOPC     H5R      HAL2     0.900000E-01   1.00800           0
      8695 MEMB     60       DOPC     H5S      HAL2     0.900000E-01   1.00800           0
      8696 MEMB     60       DOPC     C26      CTL2    -0.180000       12.0110           0
      8697 MEMB     60       DOPC     H6R      HAL2     0.900000E-01   1.00800           0
      8698 MEMB     60       DOPC     H6S      HAL2     0.900000E-01   1.00800           0
      8699 MEMB     60       DOPC     C27      CTL2    -0.180000       12.0110           0
      8700 MEMB     60       DOPC     H7R      HAL2     0.900000E-01   1.00800           0
      8701 MEMB     60       DOPC     H7S      HAL2     0.900000E-01   1.00800           0
      8702 MEMB     60       DOPC     C28      CTL2    -0.180000       12.0110           0
      8703 MEMB     60       DOPC     H8R      HAL2     0.900000E-01   1.00800           0
      8704 MEMB     60       DOPC     H8S      HAL2     0.900000E-01   1.00800           0
      8705 MEMB     60       DOPC     C29      CEL1    -0.150000       12.0110           0
      8706 MEMB     60       DOPC     H9R      HEL1     0.150000       1.00800           0
      8707 MEMB     60       DOPC     C210     CEL1    -0.150000       12.0110           0
      8708 MEMB     60       DOPC     H10R     HEL1     0.150000       1.00800           0
      8709 MEMB     60       DOPC     C211     CTL2    -0.180000       12.0110           0
      8710 MEMB     60       DOPC     H11R     HAL2     0.900000E-01   1.00800           0
      8711 MEMB     60       DOPC     H11S     HAL2     0.900000E-01   1.00800           0
      8712 MEMB     60       DOPC     C212     CTL2    -0.180000       12.0110           0
      8713 MEMB     60       DOPC     H12R     HAL2     0.900000E-01   1.00800           0
      8714 MEMB     60       DOPC     H12S     HAL2     0.900000E-01   1.00800           0
      8715 MEMB     60       DOPC     C213     CTL2    -0.180000       12.0110           0
      8716 MEMB     60       DOPC     H13R     HAL2     0.900000E-01   1.00800           0
      8717 MEMB     60       DOPC     H13S     HAL2     0.900000E-01   1.00800           0
      8718 MEMB     60       DOPC     C214     CTL2    -0.180000       12.0110           0
      8719 MEMB     60       DOPC     H14R     HAL2     0.900000E-01   1.00800           0
      8720 MEMB     60       DOPC     H14S     HAL2     0.900000E-01   1.00800           0
      8721 MEMB     60       DOPC     C215     CTL2    -0.180000       12.0110           0
      8722 MEMB     60       DOPC     H15R     HAL2     0.900000E-01   1.00800           0
      8723 MEMB     60       DOPC     H15S     HAL2     0.900000E-01   1.00800           0
      8724 MEMB     60       DOPC     C216     CTL2    -0.180000       12.0110           0
      8725 MEMB     60       DOPC     H16R     HAL2     0.900000E-01   1.00800           0
      8726 MEMB     60       DOPC     H16S     HAL2     0.900000E-01   1.00800           0
      8727 MEMB     60       DOPC     C217     CTL2    -0.180000       12.0110           0
      8728 MEMB     60       DOPC     H17R     HAL2     0.900000E-01   1.00800           0
      8729 MEMB     60       DOPC     H17S     HAL2     0.900000E-01   1.00800           0
      8730 MEMB     60       DOPC     C218     CTL3    -0.270000       12.0110           0
      8731 MEMB     60       DOPC     H18R     HAL3     0.900000E-01   1.00800           0
      8732 MEMB     60       DOPC     H18S     HAL3     0.900000E-01   1.00800           0
      8733 MEMB     60       DOPC     H18T     HAL3     0.900000E-01   1.00800           0
      8734 MEMB     60       DOPC     C33      CTL2    -0.180000       12.0110           0
      8735 MEMB     60       DOPC     H3X      HAL2     0.900000E-01   1.00800           0
      8736 MEMB     60       DOPC     H3Y      HAL2     0.900000E-01   1.00800           0
      8737 MEMB     60       DOPC     C34      CTL2    -0.180000       12.0110           0
      8738 MEMB     60       DOPC     H4X      HAL2     0.900000E-01   1.00800           0
      8739 MEMB     60       DOPC     H4Y      HAL2     0.900000E-01   1.00800           0
      8740 MEMB     60       DOPC     C35      CTL2    -0.180000       12.0110           0
      8741 MEMB     60       DOPC     H5X      HAL2     0.900000E-01   1.00800           0
      8742 MEMB     60       DOPC     H5Y      HAL2     0.900000E-01   1.00800           0
      8743 MEMB     60       DOPC     C36      CTL2    -0.180000       12.0110           0
      8744 MEMB     60       DOPC     H6X      HAL2     0.900000E-01   1.00800           0
      8745 MEMB     60       DOPC     H6Y      HAL2     0.900000E-01   1.00800           0
      8746 MEMB     60       DOPC     C37      CTL2    -0.180000       12.0110           0
      8747 MEMB     60       DOPC     H7X      HAL2     0.900000E-01   1.00800           0
      8748 MEMB     60       DOPC     H7Y      HAL2     0.900000E-01   1.00800           0
      8749 MEMB     60       DOPC     C38      CTL2    -0.180000       12.0110           0
      8750 MEMB     60       DOPC     H8X      HAL2     0.900000E-01   1.00800           0
      8751 MEMB     60       DOPC     H8Y      HAL2     0.900000E-01   1.00800           0
      8752 MEMB     60       DOPC     C39      CEL1    -0.150000       12.0110           0
      8753 MEMB     60       DOPC     H9X      HEL1     0.150000       1.00800           0
      8754 MEMB     60       DOPC     C310     CEL1    -0.150000       12.0110           0
      8755 MEMB     60       DOPC     H10X     HEL1     0.150000       1.00800           0
      8756 MEMB     60       DOPC     C311     CTL2    -0.180000       12.0110           0
      8757 MEMB     60       DOPC     H11X     HAL2     0.900000E-01   1.00800           0
      8758 MEMB     60       DOPC     H11Y     HAL2     0.900000E-01   1.00800           0
      8759 MEMB     60       DOPC     C312     CTL2    -0.180000       12.0110           0
      8760 MEMB     60       DOPC     H12X     HAL2     0.900000E-01   1.00800           0
      8761 MEMB     60       DOPC     H12Y     HAL2     0.900000E-01   1.00800           0
      8762 MEMB     60       DOPC     C313     CTL2    -0.180000       12.0110           0
      8763 MEMB     60       DOPC     H13X     HAL2     0.900000E-01   1.00800           0
      8764 MEMB     60       DOPC     H13Y     HAL2     0.900000E-01   1.00800           0
      8765 MEMB     60       DOPC     C314     CTL2    -0.180000       12.0110           0
      8766 MEMB     60       DOPC     H14X     HAL2     0.900000E-01   1.00800           0
      8767 MEMB     60       DOPC     H14Y     HAL2     0.900000E-01   1.00800           0
      8768 MEMB     60       DOPC     C315     CTL2    -0.180000       12.0110           0
      8769 MEMB     60       DOPC     H15X     HAL2     0.900000E-01   1.00800           0
      8770 MEMB     60       DOPC     H15Y     HAL2     0.900000E-01   1.00800           0
      8771 MEMB     60       DOPC     C316     CTL2    -0.180000       12.0110           0
      8772 MEMB     60       DOPC     H16X     HAL2     0.900000E-01   1.00800           0
      8773 MEMB     60       DOPC     H16Y     HAL2     0.900000E-01   1.00800           0
      8774 MEMB     60       DOPC     C317     CTL2    -0.180000       12.0110           0
      8775 MEMB     60       DOPC     H17X     HAL2     0.900000E-01   1.00800           0
      8776 MEMB     60       DOPC     H17Y     HAL2     0.900000E-01   1.00800           0
      8777 MEMB     60       DOPC     C318     CTL3    -0.270000       12.0110           0
      8778 MEMB     60       DOPC     H18X     HAL3     0.900000E-01   1.00800           0
      8779 MEMB     60       DOPC     H18Y     HAL3     0.900000E-01   1.00800           0
      8780 MEMB     60       DOPC     H18Z     HAL3     0.900000E-01   1.00800           0
      8781 MEMB     61       DOPC     N        NTL     -0.600000       14.0070           0
      8782 MEMB     61       DOPC     C12      CTL2    -0.100000       12.0110           0
      8783 MEMB     61       DOPC     H12A     HL       0.250000       1.00800           0
      8784 MEMB     61       DOPC     H12B     HL       0.250000       1.00800           0
      8785 MEMB     61       DOPC     C13      CTL5    -0.350000       12.0110           0
      8786 MEMB     61       DOPC     H13A     HL       0.250000       1.00800           0
      8787 MEMB     61       DOPC     H13B     HL       0.250000       1.00800           0
      8788 MEMB     61       DOPC     H13C     HL       0.250000       1.00800           0
      8789 MEMB     61       DOPC     C14      CTL5    -0.350000       12.0110           0
      8790 MEMB     61       DOPC     H14A     HL       0.250000       1.00800           0
      8791 MEMB     61       DOPC     H14B     HL       0.250000       1.00800           0
      8792 MEMB     61       DOPC     H14C     HL       0.250000       1.00800           0
      8793 MEMB     61       DOPC     C15      CTL5    -0.350000       12.0110           0
      8794 MEMB     61       DOPC     H15A     HL       0.250000       1.00800           0
      8795 MEMB     61       DOPC     H15B     HL       0.250000       1.00800           0
      8796 MEMB     61       DOPC     H15C     HL       0.250000       1.00800           0
      8797 MEMB     61       DOPC     C11      CTL2    -0.800000E-01   12.0110           0
      8798 MEMB     61       DOPC     H11A     HAL2     0.900000E-01   1.00800           0
      8799 MEMB     61       DOPC     H11B     HAL2     0.900000E-01   1.00800           0
      8800 MEMB     61       DOPC     P        PL        1.50000       30.9740           0
      8801 MEMB     61       DOPC     O13      O2L     -0.780000       15.9994           0
      8802 MEMB     61       DOPC     O14      O2L     -0.780000       15.9994           0
      8803 MEMB     61       DOPC     O12      OSLP    -0.570000       15.9994           0
      8804 MEMB     61       DOPC     O11      OSLP    -0.570000       15.9994           0
      8805 MEMB     61       DOPC     C1       CTL2    -0.800000E-01   12.0110           0
      8806 MEMB     61       DOPC     HA       HAL2     0.900000E-01   1.00800           0
      8807 MEMB     61       DOPC     HB       HAL2     0.900000E-01   1.00800           0
      8808 MEMB     61       DOPC     C2       CTL1     0.170000       12.0110           0
      8809 MEMB     61       DOPC     HS       HAL1     0.900000E-01   1.00800           0
      8810 MEMB     61       DOPC     O21      OSL     -0.490000       15.9994           0
      8811 MEMB     61       DOPC     C21      CL       0.900000       12.0110           0
      8812 MEMB     61       DOPC     O22      OBL     -0.630000       15.9994           0
      8813 MEMB     61       DOPC     C22      CTL2    -0.220000       12.0110           0
      8814 MEMB     61       DOPC     H2R      HAL2     0.900000E-01   1.00800           0
      8815 MEMB     61       DOPC     H2S      HAL2     0.900000E-01   1.00800           0
      8816 MEMB     61       DOPC     C3       CTL2     0.800000E-01   12.0110           0
      8817 MEMB     61       DOPC     HX       HAL2     0.900000E-01   1.00800           0
      8818 MEMB     61       DOPC     HY       HAL2     0.900000E-01   1.00800           0
      8819 MEMB     61       DOPC     O31      OSL     -0.490000       15.9994           0
      8820 MEMB     61       DOPC     C31      CL       0.900000       12.0110           0
      8821 MEMB     61       DOPC     O32      OBL     -0.630000       15.9994           0
      8822 MEMB     61       DOPC     C32      CTL2    -0.220000       12.0110           0
      8823 MEMB     61       DOPC     H2X      HAL2     0.900000E-01   1.00800           0
      8824 MEMB     61       DOPC     H2Y      HAL2     0.900000E-01   1.00800           0
      8825 MEMB     61       DOPC     C23      CTL2    -0.180000       12.0110           0
      8826 MEMB     61       DOPC     H3R      HAL2     0.900000E-01   1.00800           0
      8827 MEMB     61       DOPC     H3S      HAL2     0.900000E-01   1.00800           0
      8828 MEMB     61       DOPC     C24      CTL2    -0.180000       12.0110           0
      8829 MEMB     61       DOPC     H4R      HAL2     0.900000E-01   1.00800           0
      8830 MEMB     61       DOPC     H4S      HAL2     0.900000E-01   1.00800           0
      8831 MEMB     61       DOPC     C25      CTL2    -0.180000       12.0110           0
      8832 MEMB     61       DOPC     H5R      HAL2     0.900000E-01   1.00800           0
      8833 MEMB     61       DOPC     H5S      HAL2     0.900000E-01   1.00800           0
      8834 MEMB     61       DOPC     C26      CTL2    -0.180000       12.0110           0
      8835 MEMB     61       DOPC     H6R      HAL2     0.900000E-01   1.00800           0
      8836 MEMB     61       DOPC     H6S      HAL2     0.900000E-01   1.00800           0
      8837 MEMB     61       DOPC     C27      CTL2    -0.180000       12.0110           0
      8838 MEMB     61       DOPC     H7R      HAL2     0.900000E-01   1.00800           0
      8839 MEMB     61       DOPC     H7S      HAL2     0.900000E-01   1.00800           0
      8840 MEMB     61       DOPC     C28      CTL2    -0.180000       12.0110           0
      8841 MEMB     61       DOPC     H8R      HAL2     0.900000E-01   1.00800           0
      8842 MEMB     61       DOPC     H8S      HAL2     0.900000E-01   1.00800           0
      8843 MEMB     61       DOPC     C29      CEL1    -0.150000       12.0110           0
      8844 MEMB     61       DOPC     H9R      HEL1     0.150000       1.00800           0
      8845 MEMB     61       DOPC     C210     CEL1    -0.150000       12.0110           0
      8846 MEMB     61       DOPC     H10R     HEL1     0.150000       1.00800           0
      8847 MEMB     61       DOPC     C211     CTL2    -0.180000       12.0110           0
      8848 MEMB     61       DOPC     H11R     HAL2     0.900000E-01   1.00800           0
      8849 MEMB     61       DOPC     H11S     HAL2     0.900000E-01   1.00800           0
      8850 MEMB     61       DOPC     C212     CTL2    -0.180000       12.0110           0
      8851 MEMB     61       DOPC     H12R     HAL2     0.900000E-01   1.00800           0
      8852 MEMB     61       DOPC     H12S     HAL2     0.900000E-01   1.00800           0
      8853 MEMB     61       DOPC     C213     CTL2    -0.180000       12.0110           0
      8854 MEMB     61       DOPC     H13R     HAL2     0.900000E-01   1.00800           0
      8855 MEMB     61       DOPC     H13S     HAL2     0.900000E-01   1.00800           0
      8856 MEMB     61       DOPC     C214     CTL2    -0.180000       12.0110           0
      8857 MEMB     61       DOPC     H14R     HAL2     0.900000E-01   1.00800           0
      8858 MEMB     61       DOPC     H14S     HAL2     0.900000E-01   1.00800           0
      8859 MEMB     61       DOPC     C215     CTL2    -0.180000       12.0110           0
      8860 MEMB     61       DOPC     H15R     HAL2     0.900000E-01   1.00800           0
      8861 MEMB     61       DOPC     H15S     HAL2     0.900000E-01   1.00800           0
      8862 MEMB     61       DOPC     C216     CTL2    -0.180000       12.0110           0
      8863 MEMB     61       DOPC     H16R     HAL2     0.900000E-01   1.00800           0
      8864 MEMB     61       DOPC     H16S     HAL2     0.900000E-01   1.00800           0
      8865 MEMB     61       DOPC     C217     CTL2    -0.180000       12.0110           0
      8866 MEMB     61       DOPC     H17R     HAL2     0.900000E-01   1.00800           0
      8867 MEMB     61       DOPC     H17S     HAL2     0.900000E-01   1.00800           0
      8868 MEMB     61       DOPC     C218     CTL3    -0.270000       12.0110           0
      8869 MEMB     61       DOPC     H18R     HAL3     0.900000E-01   1.00800           0
      8870 MEMB     61       DOPC     H18S     HAL3     0.900000E-01   1.00800           0
      8871 MEMB     61       DOPC     H18T     HAL3     0.900000E-01   1.00800           0
      8872 MEMB     61       DOPC     C33      CTL2    -0.180000       12.0110           0
      8873 MEMB     61       DOPC     H3X      HAL2     0.900000E-01   1.00800           0
      8874 MEMB     61       DOPC     H3Y      HAL2     0.900000E-01   1.00800           0
      8875 MEMB     61       DOPC     C34      CTL2    -0.180000       12.0110           0
      8876 MEMB     61       DOPC     H4X      HAL2     0.900000E-01   1.00800           0
      8877 MEMB     61       DOPC     H4Y      HAL2     0.900000E-01   1.00800           0
      8878 MEMB     61       DOPC     C35      CTL2    -0.180000       12.0110           0
      8879 MEMB     61       DOPC     H5X      HAL2     0.900000E-01   1.00800           0
      8880 MEMB     61       DOPC     H5Y      HAL2     0.900000E-01   1.00800           0
      8881 MEMB     61       DOPC     C36      CTL2    -0.180000       12.0110           0
      8882 MEMB     61       DOPC     H6X      HAL2     0.900000E-01   1.00800           0
      8883 MEMB     61       DOPC     H6Y      HAL2     0.900000E-01   1.00800           0
      8884 MEMB     61       DOPC     C37      CTL2    -0.180000       12.0110           0
      8885 MEMB     61       DOPC     H7X      HAL2     0.900000E-01   1.00800           0
      8886 MEMB     61       DOPC     H7Y      HAL2     0.900000E-01   1.00800           0
      8887 MEMB     61       DOPC     C38      CTL2    -0.180000       12.0110           0
      8888 MEMB     61       DOPC     H8X      HAL2     0.900000E-01   1.00800           0
      8889 MEMB     61       DOPC     H8Y      HAL2     0.900000E-01   1.00800           0
      8890 MEMB     61       DOPC     C39      CEL1    -0.150000       12.0110           0
      8891 MEMB     61       DOPC     H9X      HEL1     0.150000       1.00800           0
      8892 MEMB     61       DOPC     C310     CEL1    -0.150000       12.0110           0
      8893 MEMB     61       DOPC     H10X     HEL1     0.150000       1.00800           0
      8894 MEMB     61       DOPC     C311     CTL2    -0.180000       12.0110           0
      8895 MEMB     61       DOPC     H11X     HAL2     0.900000E-01   1.00800           0
      8896 MEMB     61       DOPC     H11Y     HAL2     0.900000E-01   1.00800           0
      8897 MEMB     61       DOPC     C312     CTL2    -0.180000       12.0110           0
      8898 MEMB     61       DOPC     H12X     HAL2     0.900000E-01   1.00800           0
      8899 MEMB     61       DOPC     H12Y     HAL2     0.900000E-01   1.00800           0
      8900 MEMB     61       DOPC     C313     CTL2    -0.180000       12.0110           0
      8901 MEMB     61       DOPC     H13X     HAL2     0.900000E-01   1.00800           0
      8902 MEMB     61       DOPC     H13Y     HAL2     0.900000E-01   1.00800           0
      8903 MEMB     61       DOPC     C314     CTL2    -0.180000       12.0110           0
      8904 MEMB     61       DOPC     H14X     HAL2     0.900000E-01   1.00800           0
      8905 MEMB     61       DOPC     H14Y     HAL2     0.900000E-01   1.00800           0
      8906 MEMB     61       DOPC     C315     CTL2    -0.180000       12.0110           0
      8907 MEMB     61       DOPC     H15X     HAL2     0.900000E-01   1.00800           0
      8908 MEMB     61       DOPC     H15Y     HAL2     0.900000E-01   1.00800           0
      8909 MEMB     61       DOPC     C316     CTL2    -0.180000       12.0110           0
      8910 MEMB     61       DOPC     H16X     HAL2     0.900000E-01   1.00800           0
      8911 MEMB     61       DOPC     H16Y     HAL2     0.900000E-01   1.00800           0
      8912 MEMB     61       DOPC     C317     CTL2    -0.180000       12.0110           0
      8913 MEMB     61       DOPC     H17X     HAL2     0.900000E-01   1.00800           0
      8914 MEMB     61       DOPC     H17Y     HAL2     0.900000E-01   1.00800           0
      8915 MEMB     61       DOPC     C318     CTL3    -0.270000       12.0110           0
      8916 MEMB     61       DOPC     H18X     HAL3     0.900000E-01   1.00800           0
      8917 MEMB     61       DOPC     H18Y     HAL3     0.900000E-01   1.00800           0
      8918 MEMB     61       DOPC     H18Z     HAL3     0.900000E-01   1.00800           0
      8919 MEMB     62       DOPC     N        NTL     -0.600000       14.0070           0
      8920 MEMB     62       DOPC     C12      CTL2    -0.100000       12.0110           0
      8921 MEMB     62       DOPC     H12A     HL       0.250000       1.00800           0
      8922 MEMB     62       DOPC     H12B     HL       0.250000       1.00800           0
      8923 MEMB     62       DOPC     C13      CTL5    -0.350000       12.0110           0
      8924 MEMB     62       DOPC     H13A     HL       0.250000       1.00800           0
      8925 MEMB     62       DOPC     H13B     HL       0.250000       1.00800           0
      8926 MEMB     62       DOPC     H13C     HL       0.250000       1.00800           0
      8927 MEMB     62       DOPC     C14      CTL5    -0.350000       12.0110           0
      8928 MEMB     62       DOPC     H14A     HL       0.250000       1.00800           0
      8929 MEMB     62       DOPC     H14B     HL       0.250000       1.00800           0
      8930 MEMB     62       DOPC     H14C     HL       0.250000       1.00800           0
      8931 MEMB     62       DOPC     C15      CTL5    -0.350000       12.0110           0
      8932 MEMB     62       DOPC     H15A     HL       0.250000       1.00800           0
      8933 MEMB     62       DOPC     H15B     HL       0.250000       1.00800           0
      8934 MEMB     62       DOPC     H15C     HL       0.250000       1.00800           0
      8935 MEMB     62       DOPC     C11      CTL2    -0.800000E-01   12.0110           0
      8936 MEMB     62       DOPC     H11A     HAL2     0.900000E-01   1.00800           0
      8937 MEMB     62       DOPC     H11B     HAL2     0.900000E-01   1.00800           0
      8938 MEMB     62       DOPC     P        PL        1.50000       30.9740           0
      8939 MEMB     62       DOPC     O13      O2L     -0.780000       15.9994           0
      8940 MEMB     62       DOPC     O14      O2L     -0.780000       15.9994           0
      8941 MEMB     62       DOPC     O12      OSLP    -0.570000       15.9994           0
      8942 MEMB     62       DOPC     O11      OSLP    -0.570000       15.9994           0
      8943 MEMB     62       DOPC     C1       CTL2    -0.800000E-01   12.0110           0
      8944 MEMB     62       DOPC     HA       HAL2     0.900000E-01   1.00800           0
      8945 MEMB     62       DOPC     HB       HAL2     0.900000E-01   1.00800           0
      8946 MEMB     62       DOPC     C2       CTL1     0.170000       12.0110           0
      8947 MEMB     62       DOPC     HS       HAL1     0.900000E-01   1.00800           0
      8948 MEMB     62       DOPC     O21      OSL     -0.490000       15.9994           0
      8949 MEMB     62       DOPC     C21      CL       0.900000       12.0110           0
      8950 MEMB     62       DOPC     O22      OBL     -0.630000       15.9994           0
      8951 MEMB     62       DOPC     C22      CTL2    -0.220000       12.0110           0
      8952 MEMB     62       DOPC     H2R      HAL2     0.900000E-01   1.00800           0
      8953 MEMB     62       DOPC     H2S      HAL2     0.900000E-01   1.00800           0
      8954 MEMB     62       DOPC     C3       CTL2     0.800000E-01   12.0110           0
      8955 MEMB     62       DOPC     HX       HAL2     0.900000E-01   1.00800           0
      8956 MEMB     62       DOPC     HY       HAL2     0.900000E-01   1.00800           0
      8957 MEMB     62       DOPC     O31      OSL     -0.490000       15.9994           0
      8958 MEMB     62       DOPC     C31      CL       0.900000       12.0110           0
      8959 MEMB     62       DOPC     O32      OBL     -0.630000       15.9994           0
      8960 MEMB     62       DOPC     C32      CTL2    -0.220000       12.0110           0
      8961 MEMB     62       DOPC     H2X      HAL2     0.900000E-01   1.00800           0
      8962 MEMB     62       DOPC     H2Y      HAL2     0.900000E-01   1.00800           0
      8963 MEMB     62       DOPC     C23      CTL2    -0.180000       12.0110           0
      8964 MEMB     62       DOPC     H3R      HAL2     0.900000E-01   1.00800           0
      8965 MEMB     62       DOPC     H3S      HAL2     0.900000E-01   1.00800           0
      8966 MEMB     62       DOPC     C24      CTL2    -0.180000       12.0110           0
      8967 MEMB     62       DOPC     H4R      HAL2     0.900000E-01   1.00800           0
      8968 MEMB     62       DOPC     H4S      HAL2     0.900000E-01   1.00800           0
      8969 MEMB     62       DOPC     C25      CTL2    -0.180000       12.0110           0
      8970 MEMB     62       DOPC     H5R      HAL2     0.900000E-01   1.00800           0
      8971 MEMB     62       DOPC     H5S      HAL2     0.900000E-01   1.00800           0
      8972 MEMB     62       DOPC     C26      CTL2    -0.180000       12.0110           0
      8973 MEMB     62       DOPC     H6R      HAL2     0.900000E-01   1.00800           0
      8974 MEMB     62       DOPC     H6S      HAL2     0.900000E-01   1.00800           0
      8975 MEMB     62       DOPC     C27      CTL2    -0.180000       12.0110           0
      8976 MEMB     62       DOPC     H7R      HAL2     0.900000E-01   1.00800           0
      8977 MEMB     62       DOPC     H7S      HAL2     0.900000E-01   1.00800           0
      8978 MEMB     62       DOPC     C28      CTL2    -0.180000       12.0110           0
      8979 MEMB     62       DOPC     H8R      HAL2     0.900000E-01   1.00800           0
      8980 MEMB     62       DOPC     H8S      HAL2     0.900000E-01   1.00800           0
      8981 MEMB     62       DOPC     C29      CEL1    -0.150000       12.0110           0
      8982 MEMB     62       DOPC     H9R      HEL1     0.150000       1.00800           0
      8983 MEMB     62       DOPC     C210     CEL1    -0.150000       12.0110           0
      8984 MEMB     62       DOPC     H10R     HEL1     0.150000       1.00800           0
      8985 MEMB     62       DOPC     C211     CTL2    -0.180000       12.0110           0
      8986 MEMB     62       DOPC     H11R     HAL2     0.900000E-01   1.00800           0
      8987 MEMB     62       DOPC     H11S     HAL2     0.900000E-01   1.00800           0
      8988 MEMB     62       DOPC     C212     CTL2    -0.180000       12.0110           0
      8989 MEMB     62       DOPC     H12R     HAL2     0.900000E-01   1.00800           0
      8990 MEMB     62       DOPC     H12S     HAL2     0.900000E-01   1.00800           0
      8991 MEMB     62       DOPC     C213     CTL2    -0.180000       12.0110           0
      8992 MEMB     62       DOPC     H13R     HAL2     0.900000E-01   1.00800           0
      8993 MEMB     62       DOPC     H13S     HAL2     0.900000E-01   1.00800           0
      8994 MEMB     62       DOPC     C214     CTL2    -0.180000       12.0110           0
      8995 MEMB     62       DOPC     H14R     HAL2     0.900000E-01   1.00800           0
      8996 MEMB     62       DOPC     H14S     HAL2     0.900000E-01   1.00800           0
      8997 MEMB     62       DOPC     C215     CTL2    -0.180000       12.0110           0
      8998 MEMB     62       DOPC     H15R     HAL2     0.900000E-01   1.00800           0
      8999 MEMB     62       DOPC     H15S     HAL2     0.900000E-01   1.00800           0
      9000 MEMB     62       DOPC     C216     CTL2    -0.180000       12.0110           0
      9001 MEMB     62       DOPC     H16R     HAL2     0.900000E-01   1.00800           0
      9002 MEMB     62       DOPC     H16S     HAL2     0.900000E-01   1.00800           0
      9003 MEMB     62       DOPC     C217     CTL2    -0.180000       12.0110           0
      9004 MEMB     62       DOPC     H17R     HAL2     0.900000E-01   1.00800           0
      9005 MEMB     62       DOPC     H17S     HAL2     0.900000E-01   1.00800           0
      9006 MEMB     62       DOPC     C218     CTL3    -0.270000       12.0110           0
      9007 MEMB     62       DOPC     H18R     HAL3     0.900000E-01   1.00800           0
      9008 MEMB     62       DOPC     H18S     HAL3     0.900000E-01   1.00800           0
      9009 MEMB     62       DOPC     H18T     HAL3     0.900000E-01   1.00800           0
      9010 MEMB     62       DOPC     C33      CTL2    -0.180000       12.0110           0
      9011 MEMB     62       DOPC     H3X      HAL2     0.900000E-01   1.00800           0
      9012 MEMB     62       DOPC     H3Y      HAL2     0.900000E-01   1.00800           0
      9013 MEMB     62       DOPC     C34      CTL2    -0.180000       12.0110           0
      9014 MEMB     62       DOPC     H4X      HAL2     0.900000E-01   1.00800           0
      9015 MEMB     62       DOPC     H4Y      HAL2     0.900000E-01   1.00800           0
      9016 MEMB     62       DOPC     C35      CTL2    -0.180000       12.0110           0
      9017 MEMB     62       DOPC     H5X      HAL2     0.900000E-01   1.00800           0
      9018 MEMB     62       DOPC     H5Y      HAL2     0.900000E-01   1.00800           0
      9019 MEMB     62       DOPC     C36      CTL2    -0.180000       12.0110           0
      9020 MEMB     62       DOPC     H6X      HAL2     0.900000E-01   1.00800           0
      9021 MEMB     62       DOPC     H6Y      HAL2     0.900000E-01   1.00800           0
      9022 MEMB     62       DOPC     C37      CTL2    -0.180000       12.0110           0
      9023 MEMB     62       DOPC     H7X      HAL2     0.900000E-01   1.00800           0
      9024 MEMB     62       DOPC     H7Y      HAL2     0.900000E-01   1.00800           0
      9025 MEMB     62       DOPC     C38      CTL2    -0.180000       12.0110           0
      9026 MEMB     62       DOPC     H8X      HAL2     0.900000E-01   1.00800           0
      9027 MEMB     62       DOPC     H8Y      HAL2     0.900000E-01   1.00800           0
      9028 MEMB     62       DOPC     C39      CEL1    -0.150000       12.0110           0
      9029 MEMB     62       DOPC     H9X      HEL1     0.150000       1.00800           0
      9030 MEMB     62       DOPC     C310     CEL1    -0.150000       12.0110           0
      9031 MEMB     62       DOPC     H10X     HEL1     0.150000       1.00800           0
      9032 MEMB     62       DOPC     C311     CTL2    -0.180000       12.0110           0
      9033 MEMB     62       DOPC     H11X     HAL2     0.900000E-01   1.00800           0
      9034 MEMB     62       DOPC     H11Y     HAL2     0.900000E-01   1.00800           0
      9035 MEMB     62       DOPC     C312     CTL2    -0.180000       12.0110           0
      9036 MEMB     62       DOPC     H12X     HAL2     0.900000E-01   1.00800           0
      9037 MEMB     62       DOPC     H12Y     HAL2     0.900000E-01   1.00800           0
      9038 MEMB     62       DOPC     C313     CTL2    -0.180000       12.0110           0
      9039 MEMB     62       DOPC     H13X     HAL2     0.900000E-01   1.00800           0
      9040 MEMB     62       DOPC     H13Y     HAL2     0.900000E-01   1.00800           0
      9041 MEMB     62       DOPC     C314     CTL2    -0.180000       12.0110           0
      9042 MEMB     62       DOPC     H14X     HAL2     0.900000E-01   1.00800           0
      9043 MEMB     62       DOPC     H14Y     HAL2     0.900000E-01   1.00800           0
      9044 MEMB     62       DOPC     C315     CTL2    -0.180000       12.0110           0
      9045 MEMB     62       DOPC     H15X     HAL2     0.900000E-01   1.00800           0
      9046 MEMB     62       DOPC     H15Y     HAL2     0.900000E-01   1.00800           0
      9047 MEMB     62       DOPC     C316     CTL2    -0.180000       12.0110           0
      9048 MEMB     62       DOPC     H16X     HAL2     0.900000E-01   1.00800           0
      9049 MEMB     62       DOPC     H16Y     HAL2     0.900000E-01   1.00800           0
      9050 MEMB     62       DOPC     C317     CTL2    -0.180000       12.0110           0
      9051 MEMB     62       DOPC     H17X     HAL2     0.900000E-01   1.00800           0
      9052 MEMB     62       DOPC     H17Y     HAL2     0.900000E-01   1.00800           0
      9053 MEMB     62       DOPC     C318     CTL3    -0.270000       12.0110           0
      9054 MEMB     62       DOPC     H18X     HAL3     0.900000E-01   1.00800           0
      9055 MEMB     62       DOPC     H18Y     HAL3     0.900000E-01   1.00800           0
      9056 MEMB     62       DOPC     H18Z     HAL3     0.900000E-01   1.00800           0
      9057 MEMB     63       DOPC     N        NTL     -0.600000       14.0070           0
      9058 MEMB     63       DOPC     C12      CTL2    -0.100000       12.0110           0
      9059 MEMB     63       DOPC     H12A     HL       0.250000       1.00800           0
      9060 MEMB     63       DOPC     H12B     HL       0.250000       1.00800           0
      9061 MEMB     63       DOPC     C13      CTL5    -0.350000       12.0110           0
      9062 MEMB     63       DOPC     H13A     HL       0.250000       1.00800           0
      9063 MEMB     63       DOPC     H13B     HL       0.250000       1.00800           0
      9064 MEMB     63       DOPC     H13C     HL       0.250000       1.00800           0
      9065 MEMB     63       DOPC     C14      CTL5    -0.350000       12.0110           0
      9066 MEMB     63       DOPC     H14A     HL       0.250000       1.00800           0
      9067 MEMB     63       DOPC     H14B     HL       0.250000       1.00800           0
      9068 MEMB     63       DOPC     H14C     HL       0.250000       1.00800           0
      9069 MEMB     63       DOPC     C15      CTL5    -0.350000       12.0110           0
      9070 MEMB     63       DOPC     H15A     HL       0.250000       1.00800           0
      9071 MEMB     63       DOPC     H15B     HL       0.250000       1.00800           0
      9072 MEMB     63       DOPC     H15C     HL       0.250000       1.00800           0
      9073 MEMB     63       DOPC     C11      CTL2    -0.800000E-01   12.0110           0
      9074 MEMB     63       DOPC     H11A     HAL2     0.900000E-01   1.00800           0
      9075 MEMB     63       DOPC     H11B     HAL2     0.900000E-01   1.00800           0
      9076 MEMB     63       DOPC     P        PL        1.50000       30.9740           0
      9077 MEMB     63       DOPC     O13      O2L     -0.780000       15.9994           0
      9078 MEMB     63       DOPC     O14      O2L     -0.780000       15.9994           0
      9079 MEMB     63       DOPC     O12      OSLP    -0.570000       15.9994           0
      9080 MEMB     63       DOPC     O11      OSLP    -0.570000       15.9994           0
      9081 MEMB     63       DOPC     C1       CTL2    -0.800000E-01   12.0110           0
      9082 MEMB     63       DOPC     HA       HAL2     0.900000E-01   1.00800           0
      9083 MEMB     63       DOPC     HB       HAL2     0.900000E-01   1.00800           0
      9084 MEMB     63       DOPC     C2       CTL1     0.170000       12.0110           0
      9085 MEMB     63       DOPC     HS       HAL1     0.900000E-01   1.00800           0
      9086 MEMB     63       DOPC     O21      OSL     -0.490000       15.9994           0
      9087 MEMB     63       DOPC     C21      CL       0.900000       12.0110           0
      9088 MEMB     63       DOPC     O22      OBL     -0.630000       15.9994           0
      9089 MEMB     63       DOPC     C22      CTL2    -0.220000       12.0110           0
      9090 MEMB     63       DOPC     H2R      HAL2     0.900000E-01   1.00800           0
      9091 MEMB     63       DOPC     H2S      HAL2     0.900000E-01   1.00800           0
      9092 MEMB     63       DOPC     C3       CTL2     0.800000E-01   12.0110           0
      9093 MEMB     63       DOPC     HX       HAL2     0.900000E-01   1.00800           0
      9094 MEMB     63       DOPC     HY       HAL2     0.900000E-01   1.00800           0
      9095 MEMB     63       DOPC     O31      OSL     -0.490000       15.9994           0
      9096 MEMB     63       DOPC     C31      CL       0.900000       12.0110           0
      9097 MEMB     63       DOPC     O32      OBL     -0.630000       15.9994           0
      9098 MEMB     63       DOPC     C32      CTL2    -0.220000       12.0110           0
      9099 MEMB     63       DOPC     H2X      HAL2     0.900000E-01   1.00800           0
      9100 MEMB     63       DOPC     H2Y      HAL2     0.900000E-01   1.00800           0
      9101 MEMB     63       DOPC     C23      CTL2    -0.180000       12.0110           0
      9102 MEMB     63       DOPC     H3R      HAL2     0.900000E-01   1.00800           0
      9103 MEMB     63       DOPC     H3S      HAL2     0.900000E-01   1.00800           0
      9104 MEMB     63       DOPC     C24      CTL2    -0.180000       12.0110           0
      9105 MEMB     63       DOPC     H4R      HAL2     0.900000E-01   1.00800           0
      9106 MEMB     63       DOPC     H4S      HAL2     0.900000E-01   1.00800           0
      9107 MEMB     63       DOPC     C25      CTL2    -0.180000       12.0110           0
      9108 MEMB     63       DOPC     H5R      HAL2     0.900000E-01   1.00800           0
      9109 MEMB     63       DOPC     H5S      HAL2     0.900000E-01   1.00800           0
      9110 MEMB     63       DOPC     C26      CTL2    -0.180000       12.0110           0
      9111 MEMB     63       DOPC     H6R      HAL2     0.900000E-01   1.00800           0
      9112 MEMB     63       DOPC     H6S      HAL2     0.900000E-01   1.00800           0
      9113 MEMB     63       DOPC     C27      CTL2    -0.180000       12.0110           0
      9114 MEMB     63       DOPC     H7R      HAL2     0.900000E-01   1.00800           0
      9115 MEMB     63       DOPC     H7S      HAL2     0.900000E-01   1.00800           0
      9116 MEMB     63       DOPC     C28      CTL2    -0.180000       12.0110           0
      9117 MEMB     63       DOPC     H8R      HAL2     0.900000E-01   1.00800           0
      9118 MEMB     63       DOPC     H8S      HAL2     0.900000E-01   1.00800           0
      9119 MEMB     63       DOPC     C29      CEL1    -0.150000       12.0110           0
      9120 MEMB     63       DOPC     H9R      HEL1     0.150000       1.00800           0
      9121 MEMB     63       DOPC     C210     CEL1    -0.150000       12.0110           0
      9122 MEMB     63       DOPC     H10R     HEL1     0.150000       1.00800           0
      9123 MEMB     63       DOPC     C211     CTL2    -0.180000       12.0110           0
      9124 MEMB     63       DOPC     H11R     HAL2     0.900000E-01   1.00800           0
      9125 MEMB     63       DOPC     H11S     HAL2     0.900000E-01   1.00800           0
      9126 MEMB     63       DOPC     C212     CTL2    -0.180000       12.0110           0
      9127 MEMB     63       DOPC     H12R     HAL2     0.900000E-01   1.00800           0
      9128 MEMB     63       DOPC     H12S     HAL2     0.900000E-01   1.00800           0
      9129 MEMB     63       DOPC     C213     CTL2    -0.180000       12.0110           0
      9130 MEMB     63       DOPC     H13R     HAL2     0.900000E-01   1.00800           0
      9131 MEMB     63       DOPC     H13S     HAL2     0.900000E-01   1.00800           0
      9132 MEMB     63       DOPC     C214     CTL2    -0.180000       12.0110           0
      9133 MEMB     63       DOPC     H14R     HAL2     0.900000E-01   1.00800           0
      9134 MEMB     63       DOPC     H14S     HAL2     0.900000E-01   1.00800           0
      9135 MEMB     63       DOPC     C215     CTL2    -0.180000       12.0110           0
      9136 MEMB     63       DOPC     H15R     HAL2     0.900000E-01   1.00800           0
      9137 MEMB     63       DOPC     H15S     HAL2     0.900000E-01   1.00800           0
      9138 MEMB     63       DOPC     C216     CTL2    -0.180000       12.0110           0
      9139 MEMB     63       DOPC     H16R     HAL2     0.900000E-01   1.00800           0
      9140 MEMB     63       DOPC     H16S     HAL2     0.900000E-01   1.00800           0
      9141 MEMB     63       DOPC     C217     CTL2    -0.180000       12.0110           0
      9142 MEMB     63       DOPC     H17R     HAL2     0.900000E-01   1.00800           0
      9143 MEMB     63       DOPC     H17S     HAL2     0.900000E-01   1.00800           0
      9144 MEMB     63       DOPC     C218     CTL3    -0.270000       12.0110           0
      9145 MEMB     63       DOPC     H18R     HAL3     0.900000E-01   1.00800           0
      9146 MEMB     63       DOPC     H18S     HAL3     0.900000E-01   1.00800           0
      9147 MEMB     63       DOPC     H18T     HAL3     0.900000E-01   1.00800           0
      9148 MEMB     63       DOPC     C33      CTL2    -0.180000       12.0110           0
      9149 MEMB     63       DOPC     H3X      HAL2     0.900000E-01   1.00800           0
      9150 MEMB     63       DOPC     H3Y      HAL2     0.900000E-01   1.00800           0
      9151 MEMB     63       DOPC     C34      CTL2    -0.180000       12.0110           0
      9152 MEMB     63       DOPC     H4X      HAL2     0.900000E-01   1.00800           0
      9153 MEMB     63       DOPC     H4Y      HAL2     0.900000E-01   1.00800           0
      9154 MEMB     63       DOPC     C35      CTL2    -0.180000       12.0110           0
      9155 MEMB     63       DOPC     H5X      HAL2     0.900000E-01   1.00800           0
      9156 MEMB     63       DOPC     H5Y      HAL2     0.900000E-01   1.00800           0
      9157 MEMB     63       DOPC     C36      CTL2    -0.180000       12.0110           0
      9158 MEMB     63       DOPC     H6X      HAL2     0.900000E-01   1.00800           0
      9159 MEMB     63       DOPC     H6Y      HAL2     0.900000E-01   1.00800           0
      9160 MEMB     63       DOPC     C37      CTL2    -0.180000       12.0110           0
      9161 MEMB     63       DOPC     H7X      HAL2     0.900000E-01   1.00800           0
      9162 MEMB     63       DOPC     H7Y      HAL2     0.900000E-01   1.00800           0
      9163 MEMB     63       DOPC     C38      CTL2    -0.180000       12.0110           0
      9164 MEMB     63       DOPC     H8X      HAL2     0.900000E-01   1.00800           0
      9165 MEMB     63       DOPC     H8Y      HAL2     0.900000E-01   1.00800           0
      9166 MEMB     63       DOPC     C39      CEL1    -0.150000       12.0110           0
      9167 MEMB     63       DOPC     H9X      HEL1     0.150000       1.00800           0
      9168 MEMB     63       DOPC     C310     CEL1    -0.150000       12.0110           0
      9169 MEMB     63       DOPC     H10X     HEL1     0.150000       1.00800           0
      9170 MEMB     63       DOPC     C311     CTL2    -0.180000       12.0110           0
      9171 MEMB     63       DOPC     H11X     HAL2     0.900000E-01   1.00800           0
      9172 MEMB     63       DOPC     H11Y     HAL2     0.900000E-01   1.00800           0
      9173 MEMB     63       DOPC     C312     CTL2    -0.180000       12.0110           0
      9174 MEMB     63       DOPC     H12X     HAL2     0.900000E-01   1.00800           0
      9175 MEMB     63       DOPC     H12Y     HAL2     0.900000E-01   1.00800           0
      9176 MEMB     63       DOPC     C313     CTL2    -0.180000       12.0110           0
      9177 MEMB     63       DOPC     H13X     HAL2     0.900000E-01   1.00800           0
      9178 MEMB     63       DOPC     H13Y     HAL2     0.900000E-01   1.00800           0
      9179 MEMB     63       DOPC     C314     CTL2    -0.180000       12.0110           0
      9180 MEMB     63       DOPC     H14X     HAL2     0.900000E-01   1.00800           0
      9181 MEMB     63       DOPC     H14Y     HAL2     0.900000E-01   1.00800           0
      9182 MEMB     63       DOPC     C315     CTL2    -0.180000       12.0110           0
      9183 MEMB     63       DOPC     H15X     HAL2     0.900000E-01   1.00800           0
      9184 MEMB     63       DOPC     H15Y     HAL2     0.900000E-01   1.00800           0
      9185 MEMB     63       DOPC     C316     CTL2    -0.180000       12.0110           0
      9186 MEMB     63       DOPC     H16X     HAL2     0.900000E-01   1.00800           0
      9187 MEMB     63       DOPC     H16Y     HAL2     0.900000E-01   1.00800           0
      9188 MEMB     63       DOPC     C317     CTL2    -0.180000       12.0110           0
      9189 MEMB     63       DOPC     H17X     HAL2     0.900000E-01   1.00800           0
      9190 MEMB     63       DOPC     H17Y     HAL2     0.900000E-01   1.00800           0
      9191 MEMB     63       DOPC     C318     CTL3    -0.270000       12.0110           0
      9192 MEMB     63       DOPC     H18X     HAL3     0.900000E-01   1.00800           0
      9193 MEMB     63       DOPC     H18Y     HAL3     0.900000E-01   1.00800           0
      9194 MEMB     63       DOPC     H18Z     HAL3     0.900000E-01   1.00800           0
      9195 MEMB     64       DOPC     N        NTL     -0.600000       14.0070           0
      9196 MEMB     64       DOPC     C12      CTL2    -0.100000       12.0110           0
      9197 MEMB     64       DOPC     H12A     HL       0.250000       1.00800           0
      9198 MEMB     64       DOPC     H12B     HL       0.250000       1.00800           0
      9199 MEMB     64       DOPC     C13      CTL5    -0.350000       12.0110           0
      9200 MEMB     64       DOPC     H13A     HL       0.250000       1.00800           0
      9201 MEMB     64       DOPC     H13B     HL       0.250000       1.00800           0
      9202 MEMB     64       DOPC     H13C     HL       0.250000       1.00800           0
      9203 MEMB     64       DOPC     C14      CTL5    -0.350000       12.0110           0
      9204 MEMB     64       DOPC     H14A     HL       0.250000       1.00800           0
      9205 MEMB     64       DOPC     H14B     HL       0.250000       1.00800           0
      9206 MEMB     64       DOPC     H14C     HL       0.250000       1.00800           0
      9207 MEMB     64       DOPC     C15      CTL5    -0.350000       12.0110           0
      9208 MEMB     64       DOPC     H15A     HL       0.250000       1.00800           0
      9209 MEMB     64       DOPC     H15B     HL       0.250000       1.00800           0
      9210 MEMB     64       DOPC     H15C     HL       0.250000       1.00800           0
      9211 MEMB     64       DOPC     C11      CTL2    -0.800000E-01   12.0110           0
      9212 MEMB     64       DOPC     H11A     HAL2     0.900000E-01   1.00800           0
      9213 MEMB     64       DOPC     H11B     HAL2     0.900000E-01   1.00800           0
      9214 MEMB     64       DOPC     P        PL        1.50000       30.9740           0
      9215 MEMB     64       DOPC     O13      O2L     -0.780000       15.9994           0
      9216 MEMB     64       DOPC     O14      O2L     -0.780000       15.9994           0
      9217 MEMB     64       DOPC     O12      OSLP    -0.570000       15.9994           0
      9218 MEMB     64       DOPC     O11      OSLP    -0.570000       15.9994           0
      9219 MEMB     64       DOPC     C1       CTL2    -0.800000E-01   12.0110           0
      9220 MEMB     64       DOPC     HA       HAL2     0.900000E-01   1.00800           0
      9221 MEMB     64       DOPC     HB       HAL2     0.900000E-01   1.00800           0
      9222 MEMB     64       DOPC     C2       CTL1     0.170000       12.0110           0
      9223 MEMB     64       DOPC     HS       HAL1     0.900000E-01   1.00800           0
      9224 MEMB     64       DOPC     O21      OSL     -0.490000       15.9994           0
      9225 MEMB     64       DOPC     C21      CL       0.900000       12.0110           0
      9226 MEMB     64       DOPC     O22      OBL     -0.630000       15.9994           0
      9227 MEMB     64       DOPC     C22      CTL2    -0.220000       12.0110           0
      9228 MEMB     64       DOPC     H2R      HAL2     0.900000E-01   1.00800           0
      9229 MEMB     64       DOPC     H2S      HAL2     0.900000E-01   1.00800           0
      9230 MEMB     64       DOPC     C3       CTL2     0.800000E-01   12.0110           0
      9231 MEMB     64       DOPC     HX       HAL2     0.900000E-01   1.00800           0
      9232 MEMB     64       DOPC     HY       HAL2     0.900000E-01   1.00800           0
      9233 MEMB     64       DOPC     O31      OSL     -0.490000       15.9994           0
      9234 MEMB     64       DOPC     C31      CL       0.900000       12.0110           0
      9235 MEMB     64       DOPC     O32      OBL     -0.630000       15.9994           0
      9236 MEMB     64       DOPC     C32      CTL2    -0.220000       12.0110           0
      9237 MEMB     64       DOPC     H2X      HAL2     0.900000E-01   1.00800           0
      9238 MEMB     64       DOPC     H2Y      HAL2     0.900000E-01   1.00800           0
      9239 MEMB     64       DOPC     C23      CTL2    -0.180000       12.0110           0
      9240 MEMB     64       DOPC     H3R      HAL2     0.900000E-01   1.00800           0
      9241 MEMB     64       DOPC     H3S      HAL2     0.900000E-01   1.00800           0
      9242 MEMB     64       DOPC     C24      CTL2    -0.180000       12.0110           0
      9243 MEMB     64       DOPC     H4R      HAL2     0.900000E-01   1.00800           0
      9244 MEMB     64       DOPC     H4S      HAL2     0.900000E-01   1.00800           0
      9245 MEMB     64       DOPC     C25      CTL2    -0.180000       12.0110           0
      9246 MEMB     64       DOPC     H5R      HAL2     0.900000E-01   1.00800           0
      9247 MEMB     64       DOPC     H5S      HAL2     0.900000E-01   1.00800           0
      9248 MEMB     64       DOPC     C26      CTL2    -0.180000       12.0110           0
      9249 MEMB     64       DOPC     H6R      HAL2     0.900000E-01   1.00800           0
      9250 MEMB     64       DOPC     H6S      HAL2     0.900000E-01   1.00800           0
      9251 MEMB     64       DOPC     C27      CTL2    -0.180000       12.0110           0
      9252 MEMB     64       DOPC     H7R      HAL2     0.900000E-01   1.00800           0
      9253 MEMB     64       DOPC     H7S      HAL2     0.900000E-01   1.00800           0
      9254 MEMB     64       DOPC     C28      CTL2    -0.180000       12.0110           0
      9255 MEMB     64       DOPC     H8R      HAL2     0.900000E-01   1.00800           0
      9256 MEMB     64       DOPC     H8S      HAL2     0.900000E-01   1.00800           0
      9257 MEMB     64       DOPC     C29      CEL1    -0.150000       12.0110           0
      9258 MEMB     64       DOPC     H9R      HEL1     0.150000       1.00800           0
      9259 MEMB     64       DOPC     C210     CEL1    -0.150000       12.0110           0
      9260 MEMB     64       DOPC     H10R     HEL1     0.150000       1.00800           0
      9261 MEMB     64       DOPC     C211     CTL2    -0.180000       12.0110           0
      9262 MEMB     64       DOPC     H11R     HAL2     0.900000E-01   1.00800           0
      9263 MEMB     64       DOPC     H11S     HAL2     0.900000E-01   1.00800           0
      9264 MEMB     64       DOPC     C212     CTL2    -0.180000       12.0110           0
      9265 MEMB     64       DOPC     H12R     HAL2     0.900000E-01   1.00800           0
      9266 MEMB     64       DOPC     H12S     HAL2     0.900000E-01   1.00800           0
      9267 MEMB     64       DOPC     C213     CTL2    -0.180000       12.0110           0
      9268 MEMB     64       DOPC     H13R     HAL2     0.900000E-01   1.00800           0
      9269 MEMB     64       DOPC     H13S     HAL2     0.900000E-01   1.00800           0
      9270 MEMB     64       DOPC     C214     CTL2    -0.180000       12.0110           0
      9271 MEMB     64       DOPC     H14R     HAL2     0.900000E-01   1.00800           0
      9272 MEMB     64       DOPC     H14S     HAL2     0.900000E-01   1.00800           0
      9273 MEMB     64       DOPC     C215     CTL2    -0.180000       12.0110           0
      9274 MEMB     64       DOPC     H15R     HAL2     0.900000E-01   1.00800           0
      9275 MEMB     64       DOPC     H15S     HAL2     0.900000E-01   1.00800           0
      9276 MEMB     64       DOPC     C216     CTL2    -0.180000       12.0110           0
      9277 MEMB     64       DOPC     H16R     HAL2     0.900000E-01   1.00800           0
      9278 MEMB     64       DOPC     H16S     HAL2     0.900000E-01   1.00800           0
      9279 MEMB     64       DOPC     C217     CTL2    -0.180000       12.0110           0
      9280 MEMB     64       DOPC     H17R     HAL2     0.900000E-01   1.00800           0
      9281 MEMB     64       DOPC     H17S     HAL2     0.900000E-01   1.00800           0
      9282 MEMB     64       DOPC     C218     CTL3    -0.270000       12.0110           0
      9283 MEMB     64       DOPC     H18R     HAL3     0.900000E-01   1.00800           0
      9284 MEMB     64       DOPC     H18S     HAL3     0.900000E-01   1.00800           0
      9285 MEMB     64       DOPC     H18T     HAL3     0.900000E-01   1.00800           0
      9286 MEMB     64       DOPC     C33      CTL2    -0.180000       12.0110           0
      9287 MEMB     64       DOPC     H3X      HAL2     0.900000E-01   1.00800           0
      9288 MEMB     64       DOPC     H3Y      HAL2     0.900000E-01   1.00800           0
      9289 MEMB     64       DOPC     C34      CTL2    -0.180000       12.0110           0
      9290 MEMB     64       DOPC     H4X      HAL2     0.900000E-01   1.00800           0
      9291 MEMB     64       DOPC     H4Y      HAL2     0.900000E-01   1.00800           0
      9292 MEMB     64       DOPC     C35      CTL2    -0.180000       12.0110           0
      9293 MEMB     64       DOPC     H5X      HAL2     0.900000E-01   1.00800           0
      9294 MEMB     64       DOPC     H5Y      HAL2     0.900000E-01   1.00800           0
      9295 MEMB     64       DOPC     C36      CTL2    -0.180000       12.0110           0
      9296 MEMB     64       DOPC     H6X      HAL2     0.900000E-01   1.00800           0
      9297 MEMB     64       DOPC     H6Y      HAL2     0.900000E-01   1.00800           0
      9298 MEMB     64       DOPC     C37      CTL2    -0.180000       12.0110           0
      9299 MEMB     64       DOPC     H7X      HAL2     0.900000E-01   1.00800           0
      9300 MEMB     64       DOPC     H7Y      HAL2     0.900000E-01   1.00800           0
      9301 MEMB     64       DOPC     C38      CTL2    -0.180000       12.0110           0
      9302 MEMB     64       DOPC     H8X      HAL2     0.900000E-01   1.00800           0
      9303 MEMB     64       DOPC     H8Y      HAL2     0.900000E-01   1.00800           0
      9304 MEMB     64       DOPC     C39      CEL1    -0.150000       12.0110           0
      9305 MEMB     64       DOPC     H9X      HEL1     0.150000       1.00800           0
      9306 MEMB     64       DOPC     C310     CEL1    -0.150000       12.0110           0
      9307 MEMB     64       DOPC     H10X     HEL1     0.150000       1.00800           0
      9308 MEMB     64       DOPC     C311     CTL2    -0.180000       12.0110           0
      9309 MEMB     64       DOPC     H11X     HAL2     0.900000E-01   1.00800           0
      9310 MEMB     64       DOPC     H11Y     HAL2     0.900000E-01   1.00800           0
      9311 MEMB     64       DOPC     C312     CTL2    -0.180000       12.0110           0
      9312 MEMB     64       DOPC     H12X     HAL2     0.900000E-01   1.00800           0
      9313 MEMB     64       DOPC     H12Y     HAL2     0.900000E-01   1.00800           0
      9314 MEMB     64       DOPC     C313     CTL2    -0.180000       12.0110           0
      9315 MEMB     64       DOPC     H13X     HAL2     0.900000E-01   1.00800           0
      9316 MEMB     64       DOPC     H13Y     HAL2     0.900000E-01   1.00800           0
      9317 MEMB     64       DOPC     C314     CTL2    -0.180000       12.0110           0
      9318 MEMB     64       DOPC     H14X     HAL2     0.900000E-01   1.00800           0
      9319 MEMB     64       DOPC     H14Y     HAL2     0.900000E-01   1.00800           0
      9320 MEMB     64       DOPC     C315     CTL2    -0.180000       12.0110           0
      9321 MEMB     64       DOPC     H15X     HAL2     0.900000E-01   1.00800           0
      9322 MEMB     64       DOPC     H15Y     HAL2     0.900000E-01   1.00800           0
      9323 MEMB     64       DOPC     C316     CTL2    -0.180000       12.0110           0
      9324 MEMB     64       DOPC     H16X     HAL2     0.900000E-01   1.00800           0
      9325 MEMB     64       DOPC     H16Y     HAL2     0.900000E-01   1.00800           0
      9326 MEMB     64       DOPC     C317     CTL2    -0.180000       12.0110           0
      9327 MEMB     64       DOPC     H17X     HAL2     0.900000E-01   1.00800           0
      9328 MEMB     64       DOPC     H17Y     HAL2     0.900000E-01   1.00800           0
      9329 MEMB     64       DOPC     C318     CTL3    -0.270000       12.0110           0
      9330 MEMB     64       DOPC     H18X     HAL3     0.900000E-01   1.00800           0
      9331 MEMB     64       DOPC     H18Y     HAL3     0.900000E-01   1.00800           0
      9332 MEMB     64       DOPC     H18Z     HAL3     0.900000E-01   1.00800           0
      9333 MEMB     65       DOPC     N        NTL     -0.600000       14.0070           0
      9334 MEMB     65       DOPC     C12      CTL2    -0.100000       12.0110           0
      9335 MEMB     65       DOPC     H12A     HL       0.250000       1.00800           0
      9336 MEMB     65       DOPC     H12B     HL       0.250000       1.00800           0
      9337 MEMB     65       DOPC     C13      CTL5    -0.350000       12.0110           0
      9338 MEMB     65       DOPC     H13A     HL       0.250000       1.00800           0
      9339 MEMB     65       DOPC     H13B     HL       0.250000       1.00800           0
      9340 MEMB     65       DOPC     H13C     HL       0.250000       1.00800           0
      9341 MEMB     65       DOPC     C14      CTL5    -0.350000       12.0110           0
      9342 MEMB     65       DOPC     H14A     HL       0.250000       1.00800           0
      9343 MEMB     65       DOPC     H14B     HL       0.250000       1.00800           0
      9344 MEMB     65       DOPC     H14C     HL       0.250000       1.00800           0
      9345 MEMB     65       DOPC     C15      CTL5    -0.350000       12.0110           0
      9346 MEMB     65       DOPC     H15A     HL       0.250000       1.00800           0
      9347 MEMB     65       DOPC     H15B     HL       0.250000       1.00800           0
      9348 MEMB     65       DOPC     H15C     HL       0.250000       1.00800           0
      9349 MEMB     65       DOPC     C11      CTL2    -0.800000E-01   12.0110           0
      9350 MEMB     65       DOPC     H11A     HAL2     0.900000E-01   1.00800           0
      9351 MEMB     65       DOPC     H11B     HAL2     0.900000E-01   1.00800           0
      9352 MEMB     65       DOPC     P        PL        1.50000       30.9740           0
      9353 MEMB     65       DOPC     O13      O2L     -0.780000       15.9994           0
      9354 MEMB     65       DOPC     O14      O2L     -0.780000       15.9994           0
      9355 MEMB     65       DOPC     O12      OSLP    -0.570000       15.9994           0
      9356 MEMB     65       DOPC     O11      OSLP    -0.570000       15.9994           0
      9357 MEMB     65       DOPC     C1       CTL2    -0.800000E-01   12.0110           0
      9358 MEMB     65       DOPC     HA       HAL2     0.900000E-01   1.00800           0
      9359 MEMB     65       DOPC     HB       HAL2     0.900000E-01   1.00800           0
      9360 MEMB     65       DOPC     C2       CTL1     0.170000       12.0110           0
      9361 MEMB     65       DOPC     HS       HAL1     0.900000E-01   1.00800           0
      9362 MEMB     65       DOPC     O21      OSL     -0.490000       15.9994           0
      9363 MEMB     65       DOPC     C21      CL       0.900000       12.0110           0
      9364 MEMB     65       DOPC     O22      OBL     -0.630000       15.9994           0
      9365 MEMB     65       DOPC     C22      CTL2    -0.220000       12.0110           0
      9366 MEMB     65       DOPC     H2R      HAL2     0.900000E-01   1.00800           0
      9367 MEMB     65       DOPC     H2S      HAL2     0.900000E-01   1.00800           0
      9368 MEMB     65       DOPC     C3       CTL2     0.800000E-01   12.0110           0
      9369 MEMB     65       DOPC     HX       HAL2     0.900000E-01   1.00800           0
      9370 MEMB     65       DOPC     HY       HAL2     0.900000E-01   1.00800           0
      9371 MEMB     65       DOPC     O31      OSL     -0.490000       15.9994           0
      9372 MEMB     65       DOPC     C31      CL       0.900000       12.0110           0
      9373 MEMB     65       DOPC     O32      OBL     -0.630000       15.9994           0
      9374 MEMB     65       DOPC     C32      CTL2    -0.220000       12.0110           0
      9375 MEMB     65       DOPC     H2X      HAL2     0.900000E-01   1.00800           0
      9376 MEMB     65       DOPC     H2Y      HAL2     0.900000E-01   1.00800           0
      9377 MEMB     65       DOPC     C23      CTL2    -0.180000       12.0110           0
      9378 MEMB     65       DOPC     H3R      HAL2     0.900000E-01   1.00800           0
      9379 MEMB     65       DOPC     H3S      HAL2     0.900000E-01   1.00800           0
      9380 MEMB     65       DOPC     C24      CTL2    -0.180000       12.0110           0
      9381 MEMB     65       DOPC     H4R      HAL2     0.900000E-01   1.00800           0
      9382 MEMB     65       DOPC     H4S      HAL2     0.900000E-01   1.00800           0
      9383 MEMB     65       DOPC     C25      CTL2    -0.180000       12.0110           0
      9384 MEMB     65       DOPC     H5R      HAL2     0.900000E-01   1.00800           0
      9385 MEMB     65       DOPC     H5S      HAL2     0.900000E-01   1.00800           0
      9386 MEMB     65       DOPC     C26      CTL2    -0.180000       12.0110           0
      9387 MEMB     65       DOPC     H6R      HAL2     0.900000E-01   1.00800           0
      9388 MEMB     65       DOPC     H6S      HAL2     0.900000E-01   1.00800           0
      9389 MEMB     65       DOPC     C27      CTL2    -0.180000       12.0110           0
      9390 MEMB     65       DOPC     H7R      HAL2     0.900000E-01   1.00800           0
      9391 MEMB     65       DOPC     H7S      HAL2     0.900000E-01   1.00800           0
      9392 MEMB     65       DOPC     C28      CTL2    -0.180000       12.0110           0
      9393 MEMB     65       DOPC     H8R      HAL2     0.900000E-01   1.00800           0
      9394 MEMB     65       DOPC     H8S      HAL2     0.900000E-01   1.00800           0
      9395 MEMB     65       DOPC     C29      CEL1    -0.150000       12.0110           0
      9396 MEMB     65       DOPC     H9R      HEL1     0.150000       1.00800           0
      9397 MEMB     65       DOPC     C210     CEL1    -0.150000       12.0110           0
      9398 MEMB     65       DOPC     H10R     HEL1     0.150000       1.00800           0
      9399 MEMB     65       DOPC     C211     CTL2    -0.180000       12.0110           0
      9400 MEMB     65       DOPC     H11R     HAL2     0.900000E-01   1.00800           0
      9401 MEMB     65       DOPC     H11S     HAL2     0.900000E-01   1.00800           0
      9402 MEMB     65       DOPC     C212     CTL2    -0.180000       12.0110           0
      9403 MEMB     65       DOPC     H12R     HAL2     0.900000E-01   1.00800           0
      9404 MEMB     65       DOPC     H12S     HAL2     0.900000E-01   1.00800           0
      9405 MEMB     65       DOPC     C213     CTL2    -0.180000       12.0110           0
      9406 MEMB     65       DOPC     H13R     HAL2     0.900000E-01   1.00800           0
      9407 MEMB     65       DOPC     H13S     HAL2     0.900000E-01   1.00800           0
      9408 MEMB     65       DOPC     C214     CTL2    -0.180000       12.0110           0
      9409 MEMB     65       DOPC     H14R     HAL2     0.900000E-01   1.00800           0
      9410 MEMB     65       DOPC     H14S     HAL2     0.900000E-01   1.00800           0
      9411 MEMB     65       DOPC     C215     CTL2    -0.180000       12.0110           0
      9412 MEMB     65       DOPC     H15R     HAL2     0.900000E-01   1.00800           0
      9413 MEMB     65       DOPC     H15S     HAL2     0.900000E-01   1.00800           0
      9414 MEMB     65       DOPC     C216     CTL2    -0.180000       12.0110           0
      9415 MEMB     65       DOPC     H16R     HAL2     0.900000E-01   1.00800           0
      9416 MEMB     65       DOPC     H16S     HAL2     0.900000E-01   1.00800           0
      9417 MEMB     65       DOPC     C217     CTL2    -0.180000       12.0110           0
      9418 MEMB     65       DOPC     H17R     HAL2     0.900000E-01   1.00800           0
      9419 MEMB     65       DOPC     H17S     HAL2     0.900000E-01   1.00800           0
      9420 MEMB     65       DOPC     C218     CTL3    -0.270000       12.0110           0
      9421 MEMB     65       DOPC     H18R     HAL3     0.900000E-01   1.00800           0
      9422 MEMB     65       DOPC     H18S     HAL3     0.900000E-01   1.00800           0
      9423 MEMB     65       DOPC     H18T     HAL3     0.900000E-01   1.00800           0
      9424 MEMB     65       DOPC     C33      CTL2    -0.180000       12.0110           0
      9425 MEMB     65       DOPC     H3X      HAL2     0.900000E-01   1.00800           0
      9426 MEMB     65       DOPC     H3Y      HAL2     0.900000E-01   1.00800           0
      9427 MEMB     65       DOPC     C34      CTL2    -0.180000       12.0110           0
      9428 MEMB     65       DOPC     H4X      HAL2     0.900000E-01   1.00800           0
      9429 MEMB     65       DOPC     H4Y      HAL2     0.900000E-01   1.00800           0
      9430 MEMB     65       DOPC     C35      CTL2    -0.180000       12.0110           0
      9431 MEMB     65       DOPC     H5X      HAL2     0.900000E-01   1.00800           0
      9432 MEMB     65       DOPC     H5Y      HAL2     0.900000E-01   1.00800           0
      9433 MEMB     65       DOPC     C36      CTL2    -0.180000       12.0110           0
      9434 MEMB     65       DOPC     H6X      HAL2     0.900000E-01   1.00800           0
      9435 MEMB     65       DOPC     H6Y      HAL2     0.900000E-01   1.00800           0
      9436 MEMB     65       DOPC     C37      CTL2    -0.180000       12.0110           0
      9437 MEMB     65       DOPC     H7X      HAL2     0.900000E-01   1.00800           0
      9438 MEMB     65       DOPC     H7Y      HAL2     0.900000E-01   1.00800           0
      9439 MEMB     65       DOPC     C38      CTL2    -0.180000       12.0110           0
      9440 MEMB     65       DOPC     H8X      HAL2     0.900000E-01   1.00800           0
      9441 MEMB     65       DOPC     H8Y      HAL2     0.900000E-01   1.00800           0
      9442 MEMB     65       DOPC     C39      CEL1    -0.150000       12.0110           0
      9443 MEMB     65       DOPC     H9X      HEL1     0.150000       1.00800           0
      9444 MEMB     65       DOPC     C310     CEL1    -0.150000       12.0110           0
      9445 MEMB     65       DOPC     H10X     HEL1     0.150000       1.00800           0
      9446 MEMB     65       DOPC     C311     CTL2    -0.180000       12.0110           0
      9447 MEMB     65       DOPC     H11X     HAL2     0.900000E-01   1.00800           0
      9448 MEMB     65       DOPC     H11Y     HAL2     0.900000E-01   1.00800           0
      9449 MEMB     65       DOPC     C312     CTL2    -0.180000       12.0110           0
      9450 MEMB     65       DOPC     H12X     HAL2     0.900000E-01   1.00800           0
      9451 MEMB     65       DOPC     H12Y     HAL2     0.900000E-01   1.00800           0
      9452 MEMB     65       DOPC     C313     CTL2    -0.180000       12.0110           0
      9453 MEMB     65       DOPC     H13X     HAL2     0.900000E-01   1.00800           0
      9454 MEMB     65       DOPC     H13Y     HAL2     0.900000E-01   1.00800           0
      9455 MEMB     65       DOPC     C314     CTL2    -0.180000       12.0110           0
      9456 MEMB     65       DOPC     H14X     HAL2     0.900000E-01   1.00800           0
      9457 MEMB     65       DOPC     H14Y     HAL2     0.900000E-01   1.00800           0
      9458 MEMB     65       DOPC     C315     CTL2    -0.180000       12.0110           0
      9459 MEMB     65       DOPC     H15X     HAL2     0.900000E-01   1.00800           0
      9460 MEMB     65       DOPC     H15Y     HAL2     0.900000E-01   1.00800           0
      9461 MEMB     65       DOPC     C316     CTL2    -0.180000       12.0110           0
      9462 MEMB     65       DOPC     H16X     HAL2     0.900000E-01   1.00800           0
      9463 MEMB     65       DOPC     H16Y     HAL2     0.900000E-01   1.00800           0
      9464 MEMB     65       DOPC     C317     CTL2    -0.180000       12.0110           0
      9465 MEMB     65       DOPC     H17X     HAL2     0.900000E-01   1.00800           0
      9466 MEMB     65       DOPC     H17Y     HAL2     0.900000E-01   1.00800           0
      9467 MEMB     65       DOPC     C318     CTL3    -0.270000       12.0110           0
      9468 MEMB     65       DOPC     H18X     HAL3     0.900000E-01   1.00800           0
      9469 MEMB     65       DOPC     H18Y     HAL3     0.900000E-01   1.00800           0
      9470 MEMB     65       DOPC     H18Z     HAL3     0.900000E-01   1.00800           0
      9471 MEMB     66       DOPC     N        NTL     -0.600000       14.0070           0
      9472 MEMB     66       DOPC     C12      CTL2    -0.100000       12.0110           0
      9473 MEMB     66       DOPC     H12A     HL       0.250000       1.00800           0
      9474 MEMB     66       DOPC     H12B     HL       0.250000       1.00800           0
      9475 MEMB     66       DOPC     C13      CTL5    -0.350000       12.0110           0
      9476 MEMB     66       DOPC     H13A     HL       0.250000       1.00800           0
      9477 MEMB     66       DOPC     H13B     HL       0.250000       1.00800           0
      9478 MEMB     66       DOPC     H13C     HL       0.250000       1.00800           0
      9479 MEMB     66       DOPC     C14      CTL5    -0.350000       12.0110           0
      9480 MEMB     66       DOPC     H14A     HL       0.250000       1.00800           0
      9481 MEMB     66       DOPC     H14B     HL       0.250000       1.00800           0
      9482 MEMB     66       DOPC     H14C     HL       0.250000       1.00800           0
      9483 MEMB     66       DOPC     C15      CTL5    -0.350000       12.0110           0
      9484 MEMB     66       DOPC     H15A     HL       0.250000       1.00800           0
      9485 MEMB     66       DOPC     H15B     HL       0.250000       1.00800           0
      9486 MEMB     66       DOPC     H15C     HL       0.250000       1.00800           0
      9487 MEMB     66       DOPC     C11      CTL2    -0.800000E-01   12.0110           0
      9488 MEMB     66       DOPC     H11A     HAL2     0.900000E-01   1.00800           0
      9489 MEMB     66       DOPC     H11B     HAL2     0.900000E-01   1.00800           0
      9490 MEMB     66       DOPC     P        PL        1.50000       30.9740           0
      9491 MEMB     66       DOPC     O13      O2L     -0.780000       15.9994           0
      9492 MEMB     66       DOPC     O14      O2L     -0.780000       15.9994           0
      9493 MEMB     66       DOPC     O12      OSLP    -0.570000       15.9994           0
      9494 MEMB     66       DOPC     O11      OSLP    -0.570000       15.9994           0
      9495 MEMB     66       DOPC     C1       CTL2    -0.800000E-01   12.0110           0
      9496 MEMB     66       DOPC     HA       HAL2     0.900000E-01   1.00800           0
      9497 MEMB     66       DOPC     HB       HAL2     0.900000E-01   1.00800           0
      9498 MEMB     66       DOPC     C2       CTL1     0.170000       12.0110           0
      9499 MEMB     66       DOPC     HS       HAL1     0.900000E-01   1.00800           0
      9500 MEMB     66       DOPC     O21      OSL     -0.490000       15.9994           0
      9501 MEMB     66       DOPC     C21      CL       0.900000       12.0110           0
      9502 MEMB     66       DOPC     O22      OBL     -0.630000       15.9994           0
      9503 MEMB     66       DOPC     C22      CTL2    -0.220000       12.0110           0
      9504 MEMB     66       DOPC     H2R      HAL2     0.900000E-01   1.00800           0
      9505 MEMB     66       DOPC     H2S      HAL2     0.900000E-01   1.00800           0
      9506 MEMB     66       DOPC     C3       CTL2     0.800000E-01   12.0110           0
      9507 MEMB     66       DOPC     HX       HAL2     0.900000E-01   1.00800           0
      9508 MEMB     66       DOPC     HY       HAL2     0.900000E-01   1.00800           0
      9509 MEMB     66       DOPC     O31      OSL     -0.490000       15.9994           0
      9510 MEMB     66       DOPC     C31      CL       0.900000       12.0110           0
      9511 MEMB     66       DOPC     O32      OBL     -0.630000       15.9994           0
      9512 MEMB     66       DOPC     C32      CTL2    -0.220000       12.0110           0
      9513 MEMB     66       DOPC     H2X      HAL2     0.900000E-01   1.00800           0
      9514 MEMB     66       DOPC     H2Y      HAL2     0.900000E-01   1.00800           0
      9515 MEMB     66       DOPC     C23      CTL2    -0.180000       12.0110           0
      9516 MEMB     66       DOPC     H3R      HAL2     0.900000E-01   1.00800           0
      9517 MEMB     66       DOPC     H3S      HAL2     0.900000E-01   1.00800           0
      9518 MEMB     66       DOPC     C24      CTL2    -0.180000       12.0110           0
      9519 MEMB     66       DOPC     H4R      HAL2     0.900000E-01   1.00800           0
      9520 MEMB     66       DOPC     H4S      HAL2     0.900000E-01   1.00800           0
      9521 MEMB     66       DOPC     C25      CTL2    -0.180000       12.0110           0
      9522 MEMB     66       DOPC     H5R      HAL2     0.900000E-01   1.00800           0
      9523 MEMB     66       DOPC     H5S      HAL2     0.900000E-01   1.00800           0
      9524 MEMB     66       DOPC     C26      CTL2    -0.180000       12.0110           0
      9525 MEMB     66       DOPC     H6R      HAL2     0.900000E-01   1.00800           0
      9526 MEMB     66       DOPC     H6S      HAL2     0.900000E-01   1.00800           0
      9527 MEMB     66       DOPC     C27      CTL2    -0.180000       12.0110           0
      9528 MEMB     66       DOPC     H7R      HAL2     0.900000E-01   1.00800           0
      9529 MEMB     66       DOPC     H7S      HAL2     0.900000E-01   1.00800           0
      9530 MEMB     66       DOPC     C28      CTL2    -0.180000       12.0110           0
      9531 MEMB     66       DOPC     H8R      HAL2     0.900000E-01   1.00800           0
      9532 MEMB     66       DOPC     H8S      HAL2     0.900000E-01   1.00800           0
      9533 MEMB     66       DOPC     C29      CEL1    -0.150000       12.0110           0
      9534 MEMB     66       DOPC     H9R      HEL1     0.150000       1.00800           0
      9535 MEMB     66       DOPC     C210     CEL1    -0.150000       12.0110           0
      9536 MEMB     66       DOPC     H10R     HEL1     0.150000       1.00800           0
      9537 MEMB     66       DOPC     C211     CTL2    -0.180000       12.0110           0
      9538 MEMB     66       DOPC     H11R     HAL2     0.900000E-01   1.00800           0
      9539 MEMB     66       DOPC     H11S     HAL2     0.900000E-01   1.00800           0
      9540 MEMB     66       DOPC     C212     CTL2    -0.180000       12.0110           0
      9541 MEMB     66       DOPC     H12R     HAL2     0.900000E-01   1.00800           0
      9542 MEMB     66       DOPC     H12S     HAL2     0.900000E-01   1.00800           0
      9543 MEMB     66       DOPC     C213     CTL2    -0.180000       12.0110           0
      9544 MEMB     66       DOPC     H13R     HAL2     0.900000E-01   1.00800           0
      9545 MEMB     66       DOPC     H13S     HAL2     0.900000E-01   1.00800           0
      9546 MEMB     66       DOPC     C214     CTL2    -0.180000       12.0110           0
      9547 MEMB     66       DOPC     H14R     HAL2     0.900000E-01   1.00800           0
      9548 MEMB     66       DOPC     H14S     HAL2     0.900000E-01   1.00800           0
      9549 MEMB     66       DOPC     C215     CTL2    -0.180000       12.0110           0
      9550 MEMB     66       DOPC     H15R     HAL2     0.900000E-01   1.00800           0
      9551 MEMB     66       DOPC     H15S     HAL2     0.900000E-01   1.00800           0
      9552 MEMB     66       DOPC     C216     CTL2    -0.180000       12.0110           0
      9553 MEMB     66       DOPC     H16R     HAL2     0.900000E-01   1.00800           0
      9554 MEMB     66       DOPC     H16S     HAL2     0.900000E-01   1.00800           0
      9555 MEMB     66       DOPC     C217     CTL2    -0.180000       12.0110           0
      9556 MEMB     66       DOPC     H17R     HAL2     0.900000E-01   1.00800           0
      9557 MEMB     66       DOPC     H17S     HAL2     0.900000E-01   1.00800           0
      9558 MEMB     66       DOPC     C218     CTL3    -0.270000       12.0110           0
      9559 MEMB     66       DOPC     H18R     HAL3     0.900000E-01   1.00800           0
      9560 MEMB     66       DOPC     H18S     HAL3     0.900000E-01   1.00800           0
      9561 MEMB     66       DOPC     H18T     HAL3     0.900000E-01   1.00800           0
      9562 MEMB     66       DOPC     C33      CTL2    -0.180000       12.0110           0
      9563 MEMB     66       DOPC     H3X      HAL2     0.900000E-01   1.00800           0
      9564 MEMB     66       DOPC     H3Y      HAL2     0.900000E-01   1.00800           0
      9565 MEMB     66       DOPC     C34      CTL2    -0.180000       12.0110           0
      9566 MEMB     66       DOPC     H4X      HAL2     0.900000E-01   1.00800           0
      9567 MEMB     66       DOPC     H4Y      HAL2     0.900000E-01   1.00800           0
      9568 MEMB     66       DOPC     C35      CTL2    -0.180000       12.0110           0
      9569 MEMB     66       DOPC     H5X      HAL2     0.900000E-01   1.00800           0
      9570 MEMB     66       DOPC     H5Y      HAL2     0.900000E-01   1.00800           0
      9571 MEMB     66       DOPC     C36      CTL2    -0.180000       12.0110           0
      9572 MEMB     66       DOPC     H6X      HAL2     0.900000E-01   1.00800           0
      9573 MEMB     66       DOPC     H6Y      HAL2     0.900000E-01   1.00800           0
      9574 MEMB     66       DOPC     C37      CTL2    -0.180000       12.0110           0
      9575 MEMB     66       DOPC     H7X      HAL2     0.900000E-01   1.00800           0
      9576 MEMB     66       DOPC     H7Y      HAL2     0.900000E-01   1.00800           0
      9577 MEMB     66       DOPC     C38      CTL2    -0.180000       12.0110           0
      9578 MEMB     66       DOPC     H8X      HAL2     0.900000E-01   1.00800           0
      9579 MEMB     66       DOPC     H8Y      HAL2     0.900000E-01   1.00800           0
      9580 MEMB     66       DOPC     C39      CEL1    -0.150000       12.0110           0
      9581 MEMB     66       DOPC     H9X      HEL1     0.150000       1.00800           0
      9582 MEMB     66       DOPC     C310     CEL1    -0.150000       12.0110           0
      9583 MEMB     66       DOPC     H10X     HEL1     0.150000       1.00800           0
      9584 MEMB     66       DOPC     C311     CTL2    -0.180000       12.0110           0
      9585 MEMB     66       DOPC     H11X     HAL2     0.900000E-01   1.00800           0
      9586 MEMB     66       DOPC     H11Y     HAL2     0.900000E-01   1.00800           0
      9587 MEMB     66       DOPC     C312     CTL2    -0.180000       12.0110           0
      9588 MEMB     66       DOPC     H12X     HAL2     0.900000E-01   1.00800           0
      9589 MEMB     66       DOPC     H12Y     HAL2     0.900000E-01   1.00800           0
      9590 MEMB     66       DOPC     C313     CTL2    -0.180000       12.0110           0
      9591 MEMB     66       DOPC     H13X     HAL2     0.900000E-01   1.00800           0
      9592 MEMB     66       DOPC     H13Y     HAL2     0.900000E-01   1.00800           0
      9593 MEMB     66       DOPC     C314     CTL2    -0.180000       12.0110           0
      9594 MEMB     66       DOPC     H14X     HAL2     0.900000E-01   1.00800           0
      9595 MEMB     66       DOPC     H14Y     HAL2     0.900000E-01   1.00800           0
      9596 MEMB     66       DOPC     C315     CTL2    -0.180000       12.0110           0
      9597 MEMB     66       DOPC     H15X     HAL2     0.900000E-01   1.00800           0
      9598 MEMB     66       DOPC     H15Y     HAL2     0.900000E-01   1.00800           0
      9599 MEMB     66       DOPC     C316     CTL2    -0.180000       12.0110           0
      9600 MEMB     66       DOPC     H16X     HAL2     0.900000E-01   1.00800           0
      9601 MEMB     66       DOPC     H16Y     HAL2     0.900000E-01   1.00800           0
      9602 MEMB     66       DOPC     C317     CTL2    -0.180000       12.0110           0
      9603 MEMB     66       DOPC     H17X     HAL2     0.900000E-01   1.00800           0
      9604 MEMB     66       DOPC     H17Y     HAL2     0.900000E-01   1.00800           0
      9605 MEMB     66       DOPC     C318     CTL3    -0.270000       12.0110           0
      9606 MEMB     66       DOPC     H18X     HAL3     0.900000E-01   1.00800           0
      9607 MEMB     66       DOPC     H18Y     HAL3     0.900000E-01   1.00800           0
      9608 MEMB     66       DOPC     H18Z     HAL3     0.900000E-01   1.00800           0
      9609 MEMB     67       DOPC     N        NTL     -0.600000       14.0070           0
      9610 MEMB     67       DOPC     C12      CTL2    -0.100000       12.0110           0
      9611 MEMB     67       DOPC     H12A     HL       0.250000       1.00800           0
      9612 MEMB     67       DOPC     H12B     HL       0.250000       1.00800           0
      9613 MEMB     67       DOPC     C13      CTL5    -0.350000       12.0110           0
      9614 MEMB     67       DOPC     H13A     HL       0.250000       1.00800           0
      9615 MEMB     67       DOPC     H13B     HL       0.250000       1.00800           0
      9616 MEMB     67       DOPC     H13C     HL       0.250000       1.00800           0
      9617 MEMB     67       DOPC     C14      CTL5    -0.350000       12.0110           0
      9618 MEMB     67       DOPC     H14A     HL       0.250000       1.00800           0
      9619 MEMB     67       DOPC     H14B     HL       0.250000       1.00800           0
      9620 MEMB     67       DOPC     H14C     HL       0.250000       1.00800           0
      9621 MEMB     67       DOPC     C15      CTL5    -0.350000       12.0110           0
      9622 MEMB     67       DOPC     H15A     HL       0.250000       1.00800           0
      9623 MEMB     67       DOPC     H15B     HL       0.250000       1.00800           0
      9624 MEMB     67       DOPC     H15C     HL       0.250000       1.00800           0
      9625 MEMB     67       DOPC     C11      CTL2    -0.800000E-01   12.0110           0
      9626 MEMB     67       DOPC     H11A     HAL2     0.900000E-01   1.00800           0
      9627 MEMB     67       DOPC     H11B     HAL2     0.900000E-01   1.00800           0
      9628 MEMB     67       DOPC     P        PL        1.50000       30.9740           0
      9629 MEMB     67       DOPC     O13      O2L     -0.780000       15.9994           0
      9630 MEMB     67       DOPC     O14      O2L     -0.780000       15.9994           0
      9631 MEMB     67       DOPC     O12      OSLP    -0.570000       15.9994           0
      9632 MEMB     67       DOPC     O11      OSLP    -0.570000       15.9994           0
      9633 MEMB     67       DOPC     C1       CTL2    -0.800000E-01   12.0110           0
      9634 MEMB     67       DOPC     HA       HAL2     0.900000E-01   1.00800           0
      9635 MEMB     67       DOPC     HB       HAL2     0.900000E-01   1.00800           0
      9636 MEMB     67       DOPC     C2       CTL1     0.170000       12.0110           0
      9637 MEMB     67       DOPC     HS       HAL1     0.900000E-01   1.00800           0
      9638 MEMB     67       DOPC     O21      OSL     -0.490000       15.9994           0
      9639 MEMB     67       DOPC     C21      CL       0.900000       12.0110           0
      9640 MEMB     67       DOPC     O22      OBL     -0.630000       15.9994           0
      9641 MEMB     67       DOPC     C22      CTL2    -0.220000       12.0110           0
      9642 MEMB     67       DOPC     H2R      HAL2     0.900000E-01   1.00800           0
      9643 MEMB     67       DOPC     H2S      HAL2     0.900000E-01   1.00800           0
      9644 MEMB     67       DOPC     C3       CTL2     0.800000E-01   12.0110           0
      9645 MEMB     67       DOPC     HX       HAL2     0.900000E-01   1.00800           0
      9646 MEMB     67       DOPC     HY       HAL2     0.900000E-01   1.00800           0
      9647 MEMB     67       DOPC     O31      OSL     -0.490000       15.9994           0
      9648 MEMB     67       DOPC     C31      CL       0.900000       12.0110           0
      9649 MEMB     67       DOPC     O32      OBL     -0.630000       15.9994           0
      9650 MEMB     67       DOPC     C32      CTL2    -0.220000       12.0110           0
      9651 MEMB     67       DOPC     H2X      HAL2     0.900000E-01   1.00800           0
      9652 MEMB     67       DOPC     H2Y      HAL2     0.900000E-01   1.00800           0
      9653 MEMB     67       DOPC     C23      CTL2    -0.180000       12.0110           0
      9654 MEMB     67       DOPC     H3R      HAL2     0.900000E-01   1.00800           0
      9655 MEMB     67       DOPC     H3S      HAL2     0.900000E-01   1.00800           0
      9656 MEMB     67       DOPC     C24      CTL2    -0.180000       12.0110           0
      9657 MEMB     67       DOPC     H4R      HAL2     0.900000E-01   1.00800           0
      9658 MEMB     67       DOPC     H4S      HAL2     0.900000E-01   1.00800           0
      9659 MEMB     67       DOPC     C25      CTL2    -0.180000       12.0110           0
      9660 MEMB     67       DOPC     H5R      HAL2     0.900000E-01   1.00800           0
      9661 MEMB     67       DOPC     H5S      HAL2     0.900000E-01   1.00800           0
      9662 MEMB     67       DOPC     C26      CTL2    -0.180000       12.0110           0
      9663 MEMB     67       DOPC     H6R      HAL2     0.900000E-01   1.00800           0
      9664 MEMB     67       DOPC     H6S      HAL2     0.900000E-01   1.00800           0
      9665 MEMB     67       DOPC     C27      CTL2    -0.180000       12.0110           0
      9666 MEMB     67       DOPC     H7R      HAL2     0.900000E-01   1.00800           0
      9667 MEMB     67       DOPC     H7S      HAL2     0.900000E-01   1.00800           0
      9668 MEMB     67       DOPC     C28      CTL2    -0.180000       12.0110           0
      9669 MEMB     67       DOPC     H8R      HAL2     0.900000E-01   1.00800           0
      9670 MEMB     67       DOPC     H8S      HAL2     0.900000E-01   1.00800           0
      9671 MEMB     67       DOPC     C29      CEL1    -0.150000       12.0110           0
      9672 MEMB     67       DOPC     H9R      HEL1     0.150000       1.00800           0
      9673 MEMB     67       DOPC     C210     CEL1    -0.150000       12.0110           0
      9674 MEMB     67       DOPC     H10R     HEL1     0.150000       1.00800           0
      9675 MEMB     67       DOPC     C211     CTL2    -0.180000       12.0110           0
      9676 MEMB     67       DOPC     H11R     HAL2     0.900000E-01   1.00800           0
      9677 MEMB     67       DOPC     H11S     HAL2     0.900000E-01   1.00800           0
      9678 MEMB     67       DOPC     C212     CTL2    -0.180000       12.0110           0
      9679 MEMB     67       DOPC     H12R     HAL2     0.900000E-01   1.00800           0
      9680 MEMB     67       DOPC     H12S     HAL2     0.900000E-01   1.00800           0
      9681 MEMB     67       DOPC     C213     CTL2    -0.180000       12.0110           0
      9682 MEMB     67       DOPC     H13R     HAL2     0.900000E-01   1.00800           0
      9683 MEMB     67       DOPC     H13S     HAL2     0.900000E-01   1.00800           0
      9684 MEMB     67       DOPC     C214     CTL2    -0.180000       12.0110           0
      9685 MEMB     67       DOPC     H14R     HAL2     0.900000E-01   1.00800           0
      9686 MEMB     67       DOPC     H14S     HAL2     0.900000E-01   1.00800           0
      9687 MEMB     67       DOPC     C215     CTL2    -0.180000       12.0110           0
      9688 MEMB     67       DOPC     H15R     HAL2     0.900000E-01   1.00800           0
      9689 MEMB     67       DOPC     H15S     HAL2     0.900000E-01   1.00800           0
      9690 MEMB     67       DOPC     C216     CTL2    -0.180000       12.0110           0
      9691 MEMB     67       DOPC     H16R     HAL2     0.900000E-01   1.00800           0
      9692 MEMB     67       DOPC     H16S     HAL2     0.900000E-01   1.00800           0
      9693 MEMB     67       DOPC     C217     CTL2    -0.180000       12.0110           0
      9694 MEMB     67       DOPC     H17R     HAL2     0.900000E-01   1.00800           0
      9695 MEMB     67       DOPC     H17S     HAL2     0.900000E-01   1.00800           0
      9696 MEMB     67       DOPC     C218     CTL3    -0.270000       12.0110           0
      9697 MEMB     67       DOPC     H18R     HAL3     0.900000E-01   1.00800           0
      9698 MEMB     67       DOPC     H18S     HAL3     0.900000E-01   1.00800           0
      9699 MEMB     67       DOPC     H18T     HAL3     0.900000E-01   1.00800           0
      9700 MEMB     67       DOPC     C33      CTL2    -0.180000       12.0110           0
      9701 MEMB     67       DOPC     H3X      HAL2     0.900000E-01   1.00800           0
      9702 MEMB     67       DOPC     H3Y      HAL2     0.900000E-01   1.00800           0
      9703 MEMB     67       DOPC     C34      CTL2    -0.180000       12.0110           0
      9704 MEMB     67       DOPC     H4X      HAL2     0.900000E-01   1.00800           0
      9705 MEMB     67       DOPC     H4Y      HAL2     0.900000E-01   1.00800           0
      9706 MEMB     67       DOPC     C35      CTL2    -0.180000       12.0110           0
      9707 MEMB     67       DOPC     H5X      HAL2     0.900000E-01   1.00800           0
      9708 MEMB     67       DOPC     H5Y      HAL2     0.900000E-01   1.00800           0
      9709 MEMB     67       DOPC     C36      CTL2    -0.180000       12.0110           0
      9710 MEMB     67       DOPC     H6X      HAL2     0.900000E-01   1.00800           0
      9711 MEMB     67       DOPC     H6Y      HAL2     0.900000E-01   1.00800           0
      9712 MEMB     67       DOPC     C37      CTL2    -0.180000       12.0110           0
      9713 MEMB     67       DOPC     H7X      HAL2     0.900000E-01   1.00800           0
      9714 MEMB     67       DOPC     H7Y      HAL2     0.900000E-01   1.00800           0
      9715 MEMB     67       DOPC     C38      CTL2    -0.180000       12.0110           0
      9716 MEMB     67       DOPC     H8X      HAL2     0.900000E-01   1.00800           0
      9717 MEMB     67       DOPC     H8Y      HAL2     0.900000E-01   1.00800           0
      9718 MEMB     67       DOPC     C39      CEL1    -0.150000       12.0110           0
      9719 MEMB     67       DOPC     H9X      HEL1     0.150000       1.00800           0
      9720 MEMB     67       DOPC     C310     CEL1    -0.150000       12.0110           0
      9721 MEMB     67       DOPC     H10X     HEL1     0.150000       1.00800           0
      9722 MEMB     67       DOPC     C311     CTL2    -0.180000       12.0110           0
      9723 MEMB     67       DOPC     H11X     HAL2     0.900000E-01   1.00800           0
      9724 MEMB     67       DOPC     H11Y     HAL2     0.900000E-01   1.00800           0
      9725 MEMB     67       DOPC     C312     CTL2    -0.180000       12.0110           0
      9726 MEMB     67       DOPC     H12X     HAL2     0.900000E-01   1.00800           0
      9727 MEMB     67       DOPC     H12Y     HAL2     0.900000E-01   1.00800           0
      9728 MEMB     67       DOPC     C313     CTL2    -0.180000       12.0110           0
      9729 MEMB     67       DOPC     H13X     HAL2     0.900000E-01   1.00800           0
      9730 MEMB     67       DOPC     H13Y     HAL2     0.900000E-01   1.00800           0
      9731 MEMB     67       DOPC     C314     CTL2    -0.180000       12.0110           0
      9732 MEMB     67       DOPC     H14X     HAL2     0.900000E-01   1.00800           0
      9733 MEMB     67       DOPC     H14Y     HAL2     0.900000E-01   1.00800           0
      9734 MEMB     67       DOPC     C315     CTL2    -0.180000       12.0110           0
      9735 MEMB     67       DOPC     H15X     HAL2     0.900000E-01   1.00800           0
      9736 MEMB     67       DOPC     H15Y     HAL2     0.900000E-01   1.00800           0
      9737 MEMB     67       DOPC     C316     CTL2    -0.180000       12.0110           0
      9738 MEMB     67       DOPC     H16X     HAL2     0.900000E-01   1.00800           0
      9739 MEMB     67       DOPC     H16Y     HAL2     0.900000E-01   1.00800           0
      9740 MEMB     67       DOPC     C317     CTL2    -0.180000       12.0110           0
      9741 MEMB     67       DOPC     H17X     HAL2     0.900000E-01   1.00800           0
      9742 MEMB     67       DOPC     H17Y     HAL2     0.900000E-01   1.00800           0
      9743 MEMB     67       DOPC     C318     CTL3    -0.270000       12.0110           0
      9744 MEMB     67       DOPC     H18X     HAL3     0.900000E-01   1.00800           0
      9745 MEMB     67       DOPC     H18Y     HAL3     0.900000E-01   1.00800           0
      9746 MEMB     67       DOPC     H18Z     HAL3     0.900000E-01   1.00800           0
      9747 MEMB     68       DOPC     N        NTL     -0.600000       14.0070           0
      9748 MEMB     68       DOPC     C12      CTL2    -0.100000       12.0110           0
      9749 MEMB     68       DOPC     H12A     HL       0.250000       1.00800           0
      9750 MEMB     68       DOPC     H12B     HL       0.250000       1.00800           0
      9751 MEMB     68       DOPC     C13      CTL5    -0.350000       12.0110           0
      9752 MEMB     68       DOPC     H13A     HL       0.250000       1.00800           0
      9753 MEMB     68       DOPC     H13B     HL       0.250000       1.00800           0
      9754 MEMB     68       DOPC     H13C     HL       0.250000       1.00800           0
      9755 MEMB     68       DOPC     C14      CTL5    -0.350000       12.0110           0
      9756 MEMB     68       DOPC     H14A     HL       0.250000       1.00800           0
      9757 MEMB     68       DOPC     H14B     HL       0.250000       1.00800           0
      9758 MEMB     68       DOPC     H14C     HL       0.250000       1.00800           0
      9759 MEMB     68       DOPC     C15      CTL5    -0.350000       12.0110           0
      9760 MEMB     68       DOPC     H15A     HL       0.250000       1.00800           0
      9761 MEMB     68       DOPC     H15B     HL       0.250000       1.00800           0
      9762 MEMB     68       DOPC     H15C     HL       0.250000       1.00800           0
      9763 MEMB     68       DOPC     C11      CTL2    -0.800000E-01   12.0110           0
      9764 MEMB     68       DOPC     H11A     HAL2     0.900000E-01   1.00800           0
      9765 MEMB     68       DOPC     H11B     HAL2     0.900000E-01   1.00800           0
      9766 MEMB     68       DOPC     P        PL        1.50000       30.9740           0
      9767 MEMB     68       DOPC     O13      O2L     -0.780000       15.9994           0
      9768 MEMB     68       DOPC     O14      O2L     -0.780000       15.9994           0
      9769 MEMB     68       DOPC     O12      OSLP    -0.570000       15.9994           0
      9770 MEMB     68       DOPC     O11      OSLP    -0.570000       15.9994           0
      9771 MEMB     68       DOPC     C1       CTL2    -0.800000E-01   12.0110           0
      9772 MEMB     68       DOPC     HA       HAL2     0.900000E-01   1.00800           0
      9773 MEMB     68       DOPC     HB       HAL2     0.900000E-01   1.00800           0
      9774 MEMB     68       DOPC     C2       CTL1     0.170000       12.0110           0
      9775 MEMB     68       DOPC     HS       HAL1     0.900000E-01   1.00800           0
      9776 MEMB     68       DOPC     O21      OSL     -0.490000       15.9994           0
      9777 MEMB     68       DOPC     C21      CL       0.900000       12.0110           0
      9778 MEMB     68       DOPC     O22      OBL     -0.630000       15.9994           0
      9779 MEMB     68       DOPC     C22      CTL2    -0.220000       12.0110           0
      9780 MEMB     68       DOPC     H2R      HAL2     0.900000E-01   1.00800           0
      9781 MEMB     68       DOPC     H2S      HAL2     0.900000E-01   1.00800           0
      9782 MEMB     68       DOPC     C3       CTL2     0.800000E-01   12.0110           0
      9783 MEMB     68       DOPC     HX       HAL2     0.900000E-01   1.00800           0
      9784 MEMB     68       DOPC     HY       HAL2     0.900000E-01   1.00800           0
      9785 MEMB     68       DOPC     O31      OSL     -0.490000       15.9994           0
      9786 MEMB     68       DOPC     C31      CL       0.900000       12.0110           0
      9787 MEMB     68       DOPC     O32      OBL     -0.630000       15.9994           0
      9788 MEMB     68       DOPC     C32      CTL2    -0.220000       12.0110           0
      9789 MEMB     68       DOPC     H2X      HAL2     0.900000E-01   1.00800           0
      9790 MEMB     68       DOPC     H2Y      HAL2     0.900000E-01   1.00800           0
      9791 MEMB     68       DOPC     C23      CTL2    -0.180000       12.0110           0
      9792 MEMB     68       DOPC     H3R      HAL2     0.900000E-01   1.00800           0
      9793 MEMB     68       DOPC     H3S      HAL2     0.900000E-01   1.00800           0
      9794 MEMB     68       DOPC     C24      CTL2    -0.180000       12.0110           0
      9795 MEMB     68       DOPC     H4R      HAL2     0.900000E-01   1.00800           0
      9796 MEMB     68       DOPC     H4S      HAL2     0.900000E-01   1.00800           0
      9797 MEMB     68       DOPC     C25      CTL2    -0.180000       12.0110           0
      9798 MEMB     68       DOPC     H5R      HAL2     0.900000E-01   1.00800           0
      9799 MEMB     68       DOPC     H5S      HAL2     0.900000E-01   1.00800           0
      9800 MEMB     68       DOPC     C26      CTL2    -0.180000       12.0110           0
      9801 MEMB     68       DOPC     H6R      HAL2     0.900000E-01   1.00800           0
      9802 MEMB     68       DOPC     H6S      HAL2     0.900000E-01   1.00800           0
      9803 MEMB     68       DOPC     C27      CTL2    -0.180000       12.0110           0
      9804 MEMB     68       DOPC     H7R      HAL2     0.900000E-01   1.00800           0
      9805 MEMB     68       DOPC     H7S      HAL2     0.900000E-01   1.00800           0
      9806 MEMB     68       DOPC     C28      CTL2    -0.180000       12.0110           0
      9807 MEMB     68       DOPC     H8R      HAL2     0.900000E-01   1.00800           0
      9808 MEMB     68       DOPC     H8S      HAL2     0.900000E-01   1.00800           0
      9809 MEMB     68       DOPC     C29      CEL1    -0.150000       12.0110           0
      9810 MEMB     68       DOPC     H9R      HEL1     0.150000       1.00800           0
      9811 MEMB     68       DOPC     C210     CEL1    -0.150000       12.0110           0
      9812 MEMB     68       DOPC     H10R     HEL1     0.150000       1.00800           0
      9813 MEMB     68       DOPC     C211     CTL2    -0.180000       12.0110           0
      9814 MEMB     68       DOPC     H11R     HAL2     0.900000E-01   1.00800           0
      9815 MEMB     68       DOPC     H11S     HAL2     0.900000E-01   1.00800           0
      9816 MEMB     68       DOPC     C212     CTL2    -0.180000       12.0110           0
      9817 MEMB     68       DOPC     H12R     HAL2     0.900000E-01   1.00800           0
      9818 MEMB     68       DOPC     H12S     HAL2     0.900000E-01   1.00800           0
      9819 MEMB     68       DOPC     C213     CTL2    -0.180000       12.0110           0
      9820 MEMB     68       DOPC     H13R     HAL2     0.900000E-01   1.00800           0
      9821 MEMB     68       DOPC     H13S     HAL2     0.900000E-01   1.00800           0
      9822 MEMB     68       DOPC     C214     CTL2    -0.180000       12.0110           0
      9823 MEMB     68       DOPC     H14R     HAL2     0.900000E-01   1.00800           0
      9824 MEMB     68       DOPC     H14S     HAL2     0.900000E-01   1.00800           0
      9825 MEMB     68       DOPC     C215     CTL2    -0.180000       12.0110           0
      9826 MEMB     68       DOPC     H15R     HAL2     0.900000E-01   1.00800           0
      9827 MEMB     68       DOPC     H15S     HAL2     0.900000E-01   1.00800           0
      9828 MEMB     68       DOPC     C216     CTL2    -0.180000       12.0110           0
      9829 MEMB     68       DOPC     H16R     HAL2     0.900000E-01   1.00800           0
      9830 MEMB     68       DOPC     H16S     HAL2     0.900000E-01   1.00800           0
      9831 MEMB     68       DOPC     C217     CTL2    -0.180000       12.0110           0
      9832 MEMB     68       DOPC     H17R     HAL2     0.900000E-01   1.00800           0
      9833 MEMB     68       DOPC     H17S     HAL2     0.900000E-01   1.00800           0
      9834 MEMB     68       DOPC     C218     CTL3    -0.270000       12.0110           0
      9835 MEMB     68       DOPC     H18R     HAL3     0.900000E-01   1.00800           0
      9836 MEMB     68       DOPC     H18S     HAL3     0.900000E-01   1.00800           0
      9837 MEMB     68       DOPC     H18T     HAL3     0.900000E-01   1.00800           0
      9838 MEMB     68       DOPC     C33      CTL2    -0.180000       12.0110           0
      9839 MEMB     68       DOPC     H3X      HAL2     0.900000E-01   1.00800           0
      9840 MEMB     68       DOPC     H3Y      HAL2     0.900000E-01   1.00800           0
      9841 MEMB     68       DOPC     C34      CTL2    -0.180000       12.0110           0
      9842 MEMB     68       DOPC     H4X      HAL2     0.900000E-01   1.00800           0
      9843 MEMB     68       DOPC     H4Y      HAL2     0.900000E-01   1.00800           0
      9844 MEMB     68       DOPC     C35      CTL2    -0.180000       12.0110           0
      9845 MEMB     68       DOPC     H5X      HAL2     0.900000E-01   1.00800           0
      9846 MEMB     68       DOPC     H5Y      HAL2     0.900000E-01   1.00800           0
      9847 MEMB     68       DOPC     C36      CTL2    -0.180000       12.0110           0
      9848 MEMB     68       DOPC     H6X      HAL2     0.900000E-01   1.00800           0
      9849 MEMB     68       DOPC     H6Y      HAL2     0.900000E-01   1.00800           0
      9850 MEMB     68       DOPC     C37      CTL2    -0.180000       12.0110           0
      9851 MEMB     68       DOPC     H7X      HAL2     0.900000E-01   1.00800           0
      9852 MEMB     68       DOPC     H7Y      HAL2     0.900000E-01   1.00800           0
      9853 MEMB     68       DOPC     C38      CTL2    -0.180000       12.0110           0
      9854 MEMB     68       DOPC     H8X      HAL2     0.900000E-01   1.00800           0
      9855 MEMB     68       DOPC     H8Y      HAL2     0.900000E-01   1.00800           0
      9856 MEMB     68       DOPC     C39      CEL1    -0.150000       12.0110           0
      9857 MEMB     68       DOPC     H9X      HEL1     0.150000       1.00800           0
      9858 MEMB     68       DOPC     C310     CEL1    -0.150000       12.0110           0
      9859 MEMB     68       DOPC     H10X     HEL1     0.150000       1.00800           0
      9860 MEMB     68       DOPC     C311     CTL2    -0.180000       12.0110           0
      9861 MEMB     68       DOPC     H11X     HAL2     0.900000E-01   1.00800           0
      9862 MEMB     68       DOPC     H11Y     HAL2     0.900000E-01   1.00800           0
      9863 MEMB     68       DOPC     C312     CTL2    -0.180000       12.0110           0
      9864 MEMB     68       DOPC     H12X     HAL2     0.900000E-01   1.00800           0
      9865 MEMB     68       DOPC     H12Y     HAL2     0.900000E-01   1.00800           0
      9866 MEMB     68       DOPC     C313     CTL2    -0.180000       12.0110           0
      9867 MEMB     68       DOPC     H13X     HAL2     0.900000E-01   1.00800           0
      9868 MEMB     68       DOPC     H13Y     HAL2     0.900000E-01   1.00800           0
      9869 MEMB     68       DOPC     C314     CTL2    -0.180000       12.0110           0
      9870 MEMB     68       DOPC     H14X     HAL2     0.900000E-01   1.00800           0
      9871 MEMB     68       DOPC     H14Y     HAL2     0.900000E-01   1.00800           0
      9872 MEMB     68       DOPC     C315     CTL2    -0.180000       12.0110           0
      9873 MEMB     68       DOPC     H15X     HAL2     0.900000E-01   1.00800           0
      9874 MEMB     68       DOPC     H15Y     HAL2     0.900000E-01   1.00800           0
      9875 MEMB     68       DOPC     C316     CTL2    -0.180000       12.0110           0
      9876 MEMB     68       DOPC     H16X     HAL2     0.900000E-01   1.00800           0
      9877 MEMB     68       DOPC     H16Y     HAL2     0.900000E-01   1.00800           0
      9878 MEMB     68       DOPC     C317     CTL2    -0.180000       12.0110           0
      9879 MEMB     68       DOPC     H17X     HAL2     0.900000E-01   1.00800           0
      9880 MEMB     68       DOPC     H17Y     HAL2     0.900000E-01   1.00800           0
      9881 MEMB     68       DOPC     C318     CTL3    -0.270000       12.0110           0
      9882 MEMB     68       DOPC     H18X     HAL3     0.900000E-01   1.00800           0
      9883 MEMB     68       DOPC     H18Y     HAL3     0.900000E-01   1.00800           0
      9884 MEMB     68       DOPC     H18Z     HAL3     0.900000E-01   1.00800           0
      9885 MEMB     69       DOPC     N        NTL     -0.600000       14.0070           0
      9886 MEMB     69       DOPC     C12      CTL2    -0.100000       12.0110           0
      9887 MEMB     69       DOPC     H12A     HL       0.250000       1.00800           0
      9888 MEMB     69       DOPC     H12B     HL       0.250000       1.00800           0
      9889 MEMB     69       DOPC     C13      CTL5    -0.350000       12.0110           0
      9890 MEMB     69       DOPC     H13A     HL       0.250000       1.00800           0
      9891 MEMB     69       DOPC     H13B     HL       0.250000       1.00800           0
      9892 MEMB     69       DOPC     H13C     HL       0.250000       1.00800           0
      9893 MEMB     69       DOPC     C14      CTL5    -0.350000       12.0110           0
      9894 MEMB     69       DOPC     H14A     HL       0.250000       1.00800           0
      9895 MEMB     69       DOPC     H14B     HL       0.250000       1.00800           0
      9896 MEMB     69       DOPC     H14C     HL       0.250000       1.00800           0
      9897 MEMB     69       DOPC     C15      CTL5    -0.350000       12.0110           0
      9898 MEMB     69       DOPC     H15A     HL       0.250000       1.00800           0
      9899 MEMB     69       DOPC     H15B     HL       0.250000       1.00800           0
      9900 MEMB     69       DOPC     H15C     HL       0.250000       1.00800           0
      9901 MEMB     69       DOPC     C11      CTL2    -0.800000E-01   12.0110           0
      9902 MEMB     69       DOPC     H11A     HAL2     0.900000E-01   1.00800           0
      9903 MEMB     69       DOPC     H11B     HAL2     0.900000E-01   1.00800           0
      9904 MEMB     69       DOPC     P        PL        1.50000       30.9740           0
      9905 MEMB     69       DOPC     O13      O2L     -0.780000       15.9994           0
      9906 MEMB     69       DOPC     O14      O2L     -0.780000       15.9994           0
      9907 MEMB     69       DOPC     O12      OSLP    -0.570000       15.9994           0
      9908 MEMB     69       DOPC     O11      OSLP    -0.570000       15.9994           0
      9909 MEMB     69       DOPC     C1       CTL2    -0.800000E-01   12.0110           0
      9910 MEMB     69       DOPC     HA       HAL2     0.900000E-01   1.00800           0
      9911 MEMB     69       DOPC     HB       HAL2     0.900000E-01   1.00800           0
      9912 MEMB     69       DOPC     C2       CTL1     0.170000       12.0110           0
      9913 MEMB     69       DOPC     HS       HAL1     0.900000E-01   1.00800           0
      9914 MEMB     69       DOPC     O21      OSL     -0.490000       15.9994           0
      9915 MEMB     69       DOPC     C21      CL       0.900000       12.0110           0
      9916 MEMB     69       DOPC     O22      OBL     -0.630000       15.9994           0
      9917 MEMB     69       DOPC     C22      CTL2    -0.220000       12.0110           0
      9918 MEMB     69       DOPC     H2R      HAL2     0.900000E-01   1.00800           0
      9919 MEMB     69       DOPC     H2S      HAL2     0.900000E-01   1.00800           0
      9920 MEMB     69       DOPC     C3       CTL2     0.800000E-01   12.0110           0
      9921 MEMB     69       DOPC     HX       HAL2     0.900000E-01   1.00800           0
      9922 MEMB     69       DOPC     HY       HAL2     0.900000E-01   1.00800           0
      9923 MEMB     69       DOPC     O31      OSL     -0.490000       15.9994           0
      9924 MEMB     69       DOPC     C31      CL       0.900000       12.0110           0
      9925 MEMB     69       DOPC     O32      OBL     -0.630000       15.9994           0
      9926 MEMB     69       DOPC     C32      CTL2    -0.220000       12.0110           0
      9927 MEMB     69       DOPC     H2X      HAL2     0.900000E-01   1.00800           0
      9928 MEMB     69       DOPC     H2Y      HAL2     0.900000E-01   1.00800           0
      9929 MEMB     69       DOPC     C23      CTL2    -0.180000       12.0110           0
      9930 MEMB     69       DOPC     H3R      HAL2     0.900000E-01   1.00800           0
      9931 MEMB     69       DOPC     H3S      HAL2     0.900000E-01   1.00800           0
      9932 MEMB     69       DOPC     C24      CTL2    -0.180000       12.0110           0
      9933 MEMB     69       DOPC     H4R      HAL2     0.900000E-01   1.00800           0
      9934 MEMB     69       DOPC     H4S      HAL2     0.900000E-01   1.00800           0
      9935 MEMB     69       DOPC     C25      CTL2    -0.180000       12.0110           0
      9936 MEMB     69       DOPC     H5R      HAL2     0.900000E-01   1.00800           0
      9937 MEMB     69       DOPC     H5S      HAL2     0.900000E-01   1.00800           0
      9938 MEMB     69       DOPC     C26      CTL2    -0.180000       12.0110           0
      9939 MEMB     69       DOPC     H6R      HAL2     0.900000E-01   1.00800           0
      9940 MEMB     69       DOPC     H6S      HAL2     0.900000E-01   1.00800           0
      9941 MEMB     69       DOPC     C27      CTL2    -0.180000       12.0110           0
      9942 MEMB     69       DOPC     H7R      HAL2     0.900000E-01   1.00800           0
      9943 MEMB     69       DOPC     H7S      HAL2     0.900000E-01   1.00800           0
      9944 MEMB     69       DOPC     C28      CTL2    -0.180000       12.0110           0
      9945 MEMB     69       DOPC     H8R      HAL2     0.900000E-01   1.00800           0
      9946 MEMB     69       DOPC     H8S      HAL2     0.900000E-01   1.00800           0
      9947 MEMB     69       DOPC     C29      CEL1    -0.150000       12.0110           0
      9948 MEMB     69       DOPC     H9R      HEL1     0.150000       1.00800           0
      9949 MEMB     69       DOPC     C210     CEL1    -0.150000       12.0110           0
      9950 MEMB     69       DOPC     H10R     HEL1     0.150000       1.00800           0
      9951 MEMB     69       DOPC     C211     CTL2    -0.180000       12.0110           0
      9952 MEMB     69       DOPC     H11R     HAL2     0.900000E-01   1.00800           0
      9953 MEMB     69       DOPC     H11S     HAL2     0.900000E-01   1.00800           0
      9954 MEMB     69       DOPC     C212     CTL2    -0.180000       12.0110           0
      9955 MEMB     69       DOPC     H12R     HAL2     0.900000E-01   1.00800           0
      9956 MEMB     69       DOPC     H12S     HAL2     0.900000E-01   1.00800           0
      9957 MEMB     69       DOPC     C213     CTL2    -0.180000       12.0110           0
      9958 MEMB     69       DOPC     H13R     HAL2     0.900000E-01   1.00800           0
      9959 MEMB     69       DOPC     H13S     HAL2     0.900000E-01   1.00800           0
      9960 MEMB     69       DOPC     C214     CTL2    -0.180000       12.0110           0
      9961 MEMB     69       DOPC     H14R     HAL2     0.900000E-01   1.00800           0
      9962 MEMB     69       DOPC     H14S     HAL2     0.900000E-01   1.00800           0
      9963 MEMB     69       DOPC     C215     CTL2    -0.180000       12.0110           0
      9964 MEMB     69       DOPC     H15R     HAL2     0.900000E-01   1.00800           0
      9965 MEMB     69       DOPC     H15S     HAL2     0.900000E-01   1.00800           0
      9966 MEMB     69       DOPC     C216     CTL2    -0.180000       12.0110           0
      9967 MEMB     69       DOPC     H16R     HAL2     0.900000E-01   1.00800           0
      9968 MEMB     69       DOPC     H16S     HAL2     0.900000E-01   1.00800           0
      9969 MEMB     69       DOPC     C217     CTL2    -0.180000       12.0110           0
      9970 MEMB     69       DOPC     H17R     HAL2     0.900000E-01   1.00800           0
      9971 MEMB     69       DOPC     H17S     HAL2     0.900000E-01   1.00800           0
      9972 MEMB     69       DOPC     C218     CTL3    -0.270000       12.0110           0
      9973 MEMB     69       DOPC     H18R     HAL3     0.900000E-01   1.00800           0
      9974 MEMB     69       DOPC     H18S     HAL3     0.900000E-01   1.00800           0
      9975 MEMB     69       DOPC     H18T     HAL3     0.900000E-01   1.00800           0
      9976 MEMB     69       DOPC     C33      CTL2    -0.180000       12.0110           0
      9977 MEMB     69       DOPC     H3X      HAL2     0.900000E-01   1.00800           0
      9978 MEMB     69       DOPC     H3Y      HAL2     0.900000E-01   1.00800           0
      9979 MEMB     69       DOPC     C34      CTL2    -0.180000       12.0110           0
      9980 MEMB     69       DOPC     H4X      HAL2     0.900000E-01   1.00800           0
      9981 MEMB     69       DOPC     H4Y      HAL2     0.900000E-01   1.00800           0
      9982 MEMB     69       DOPC     C35      CTL2    -0.180000       12.0110           0
      9983 MEMB     69       DOPC     H5X      HAL2     0.900000E-01   1.00800           0
      9984 MEMB     69       DOPC     H5Y      HAL2     0.900000E-01   1.00800           0
      9985 MEMB     69       DOPC     C36      CTL2    -0.180000       12.0110           0
      9986 MEMB     69       DOPC     H6X      HAL2     0.900000E-01   1.00800           0
      9987 MEMB     69       DOPC     H6Y      HAL2     0.900000E-01   1.00800           0
      9988 MEMB     69       DOPC     C37      CTL2    -0.180000       12.0110           0
      9989 MEMB     69       DOPC     H7X      HAL2     0.900000E-01   1.00800           0
      9990 MEMB     69       DOPC     H7Y      HAL2     0.900000E-01   1.00800           0
      9991 MEMB     69       DOPC     C38      CTL2    -0.180000       12.0110           0
      9992 MEMB     69       DOPC     H8X      HAL2     0.900000E-01   1.00800           0
      9993 MEMB     69       DOPC     H8Y      HAL2     0.900000E-01   1.00800           0
      9994 MEMB     69       DOPC     C39      CEL1    -0.150000       12.0110           0
      9995 MEMB     69       DOPC     H9X      HEL1     0.150000       1.00800           0
      9996 MEMB     69       DOPC     C310     CEL1    -0.150000       12.0110           0
      9997 MEMB     69       DOPC     H10X     HEL1     0.150000       1.00800           0
      9998 MEMB     69       DOPC     C311     CTL2    -0.180000       12.0110           0
      9999 MEMB     69       DOPC     H11X     HAL2     0.900000E-01   1.00800           0
     10000 MEMB     69       DOPC     H11Y     HAL2     0.900000E-01   1.00800           0
     10001 MEMB     69       DOPC     C312     CTL2    -0.180000       12.0110           0
     10002 MEMB     69       DOPC     H12X     HAL2     0.900000E-01   1.00800           0
     10003 MEMB     69       DOPC     H12Y     HAL2     0.900000E-01   1.00800           0
     10004 MEMB     69       DOPC     C313     CTL2    -0.180000       12.0110           0
     10005 MEMB     69       DOPC     H13X     HAL2     0.900000E-01   1.00800           0
     10006 MEMB     69       DOPC     H13Y     HAL2     0.900000E-01   1.00800           0
     10007 MEMB     69       DOPC     C314     CTL2    -0.180000       12.0110           0
     10008 MEMB     69       DOPC     H14X     HAL2     0.900000E-01   1.00800           0
     10009 MEMB     69       DOPC     H14Y     HAL2     0.900000E-01   1.00800           0
     10010 MEMB     69       DOPC     C315     CTL2    -0.180000       12.0110           0
     10011 MEMB     69       DOPC     H15X     HAL2     0.900000E-01   1.00800           0
     10012 MEMB     69       DOPC     H15Y     HAL2     0.900000E-01   1.00800           0
     10013 MEMB     69       DOPC     C316     CTL2    -0.180000       12.0110           0
     10014 MEMB     69       DOPC     H16X     HAL2     0.900000E-01   1.00800           0
     10015 MEMB     69       DOPC     H16Y     HAL2     0.900000E-01   1.00800           0
     10016 MEMB     69       DOPC     C317     CTL2    -0.180000       12.0110           0
     10017 MEMB     69       DOPC     H17X     HAL2     0.900000E-01   1.00800           0
     10018 MEMB     69       DOPC     H17Y     HAL2     0.900000E-01   1.00800           0
     10019 MEMB     69       DOPC     C318     CTL3    -0.270000       12.0110           0
     10020 MEMB     69       DOPC     H18X     HAL3     0.900000E-01   1.00800           0
     10021 MEMB     69       DOPC     H18Y     HAL3     0.900000E-01   1.00800           0
     10022 MEMB     69       DOPC     H18Z     HAL3     0.900000E-01   1.00800           0
     10023 MEMB     70       DOPC     N        NTL     -0.600000       14.0070           0
     10024 MEMB     70       DOPC     C12      CTL2    -0.100000       12.0110           0
     10025 MEMB     70       DOPC     H12A     HL       0.250000       1.00800           0
     10026 MEMB     70       DOPC     H12B     HL       0.250000       1.00800           0
     10027 MEMB     70       DOPC     C13      CTL5    -0.350000       12.0110           0
     10028 MEMB     70       DOPC     H13A     HL       0.250000       1.00800           0
     10029 MEMB     70       DOPC     H13B     HL       0.250000       1.00800           0
     10030 MEMB     70       DOPC     H13C     HL       0.250000       1.00800           0
     10031 MEMB     70       DOPC     C14      CTL5    -0.350000       12.0110           0
     10032 MEMB     70       DOPC     H14A     HL       0.250000       1.00800           0
     10033 MEMB     70       DOPC     H14B     HL       0.250000       1.00800           0
     10034 MEMB     70       DOPC     H14C     HL       0.250000       1.00800           0
     10035 MEMB     70       DOPC     C15      CTL5    -0.350000       12.0110           0
     10036 MEMB     70       DOPC     H15A     HL       0.250000       1.00800           0
     10037 MEMB     70       DOPC     H15B     HL       0.250000       1.00800           0
     10038 MEMB     70       DOPC     H15C     HL       0.250000       1.00800           0
     10039 MEMB     70       DOPC     C11      CTL2    -0.800000E-01   12.0110           0
     10040 MEMB     70       DOPC     H11A     HAL2     0.900000E-01   1.00800           0
     10041 MEMB     70       DOPC     H11B     HAL2     0.900000E-01   1.00800           0
     10042 MEMB     70       DOPC     P        PL        1.50000       30.9740           0
     10043 MEMB     70       DOPC     O13      O2L     -0.780000       15.9994           0
     10044 MEMB     70       DOPC     O14      O2L     -0.780000       15.9994           0
     10045 MEMB     70       DOPC     O12      OSLP    -0.570000       15.9994           0
     10046 MEMB     70       DOPC     O11      OSLP    -0.570000       15.9994           0
     10047 MEMB     70       DOPC     C1       CTL2    -0.800000E-01   12.0110           0
     10048 MEMB     70       DOPC     HA       HAL2     0.900000E-01   1.00800           0
     10049 MEMB     70       DOPC     HB       HAL2     0.900000E-01   1.00800           0
     10050 MEMB     70       DOPC     C2       CTL1     0.170000       12.0110           0
     10051 MEMB     70       DOPC     HS       HAL1     0.900000E-01   1.00800           0
     10052 MEMB     70       DOPC     O21      OSL     -0.490000       15.9994           0
     10053 MEMB     70       DOPC     C21      CL       0.900000       12.0110           0
     10054 MEMB     70       DOPC     O22      OBL     -0.630000       15.9994           0
     10055 MEMB     70       DOPC     C22      CTL2    -0.220000       12.0110           0
     10056 MEMB     70       DOPC     H2R      HAL2     0.900000E-01   1.00800           0
     10057 MEMB     70       DOPC     H2S      HAL2     0.900000E-01   1.00800           0
     10058 MEMB     70       DOPC     C3       CTL2     0.800000E-01   12.0110           0
     10059 MEMB     70       DOPC     HX       HAL2     0.900000E-01   1.00800           0
     10060 MEMB     70       DOPC     HY       HAL2     0.900000E-01   1.00800           0
     10061 MEMB     70       DOPC     O31      OSL     -0.490000       15.9994           0
     10062 MEMB     70       DOPC     C31      CL       0.900000       12.0110           0
     10063 MEMB     70       DOPC     O32      OBL     -0.630000       15.9994           0
     10064 MEMB     70       DOPC     C32      CTL2    -0.220000       12.0110           0
     10065 MEMB     70       DOPC     H2X      HAL2     0.900000E-01   1.00800           0
     10066 MEMB     70       DOPC     H2Y      HAL2     0.900000E-01   1.00800           0
     10067 MEMB     70       DOPC     C23      CTL2    -0.180000       12.0110           0
     10068 MEMB     70       DOPC     H3R      HAL2     0.900000E-01   1.00800           0
     10069 MEMB     70       DOPC     H3S      HAL2     0.900000E-01   1.00800           0
     10070 MEMB     70       DOPC     C24      CTL2    -0.180000       12.0110           0
     10071 MEMB     70       DOPC     H4R      HAL2     0.900000E-01   1.00800           0
     10072 MEMB     70       DOPC     H4S      HAL2     0.900000E-01   1.00800           0
     10073 MEMB     70       DOPC     C25      CTL2    -0.180000       12.0110           0
     10074 MEMB     70       DOPC     H5R      HAL2     0.900000E-01   1.00800           0
     10075 MEMB     70       DOPC     H5S      HAL2     0.900000E-01   1.00800           0
     10076 MEMB     70       DOPC     C26      CTL2    -0.180000       12.0110           0
     10077 MEMB     70       DOPC     H6R      HAL2     0.900000E-01   1.00800           0
     10078 MEMB     70       DOPC     H6S      HAL2     0.900000E-01   1.00800           0
     10079 MEMB     70       DOPC     C27      CTL2    -0.180000       12.0110           0
     10080 MEMB     70       DOPC     H7R      HAL2     0.900000E-01   1.00800           0
     10081 MEMB     70       DOPC     H7S      HAL2     0.900000E-01   1.00800           0
     10082 MEMB     70       DOPC     C28      CTL2    -0.180000       12.0110           0
     10083 MEMB     70       DOPC     H8R      HAL2     0.900000E-01   1.00800           0
     10084 MEMB     70       DOPC     H8S      HAL2     0.900000E-01   1.00800           0
     10085 MEMB     70       DOPC     C29      CEL1    -0.150000       12.0110           0
     10086 MEMB     70       DOPC     H9R      HEL1     0.150000       1.00800           0
     10087 MEMB     70       DOPC     C210     CEL1    -0.150000       12.0110           0
     10088 MEMB     70       DOPC     H10R     HEL1     0.150000       1.00800           0
     10089 MEMB     70       DOPC     C211     CTL2    -0.180000       12.0110           0
     10090 MEMB     70       DOPC     H11R     HAL2     0.900000E-01   1.00800           0
     10091 MEMB     70       DOPC     H11S     HAL2     0.900000E-01   1.00800           0
     10092 MEMB     70       DOPC     C212     CTL2    -0.180000       12.0110           0
     10093 MEMB     70       DOPC     H12R     HAL2     0.900000E-01   1.00800           0
     10094 MEMB     70       DOPC     H12S     HAL2     0.900000E-01   1.00800           0
     10095 MEMB     70       DOPC     C213     CTL2    -0.180000       12.0110           0
     10096 MEMB     70       DOPC     H13R     HAL2     0.900000E-01   1.00800           0
     10097 MEMB     70       DOPC     H13S     HAL2     0.900000E-01   1.00800           0
     10098 MEMB     70       DOPC     C214     CTL2    -0.180000       12.0110           0
     10099 MEMB     70       DOPC     H14R     HAL2     0.900000E-01   1.00800           0
     10100 MEMB     70       DOPC     H14S     HAL2     0.900000E-01   1.00800           0
     10101 MEMB     70       DOPC     C215     CTL2    -0.180000       12.0110           0
     10102 MEMB     70       DOPC     H15R     HAL2     0.900000E-01   1.00800           0
     10103 MEMB     70       DOPC     H15S     HAL2     0.900000E-01   1.00800           0
     10104 MEMB     70       DOPC     C216     CTL2    -0.180000       12.0110           0
     10105 MEMB     70       DOPC     H16R     HAL2     0.900000E-01   1.00800           0
     10106 MEMB     70       DOPC     H16S     HAL2     0.900000E-01   1.00800           0
     10107 MEMB     70       DOPC     C217     CTL2    -0.180000       12.0110           0
     10108 MEMB     70       DOPC     H17R     HAL2     0.900000E-01   1.00800           0
     10109 MEMB     70       DOPC     H17S     HAL2     0.900000E-01   1.00800           0
     10110 MEMB     70       DOPC     C218     CTL3    -0.270000       12.0110           0
     10111 MEMB     70       DOPC     H18R     HAL3     0.900000E-01   1.00800           0
     10112 MEMB     70       DOPC     H18S     HAL3     0.900000E-01   1.00800           0
     10113 MEMB     70       DOPC     H18T     HAL3     0.900000E-01   1.00800           0
     10114 MEMB     70       DOPC     C33      CTL2    -0.180000       12.0110           0
     10115 MEMB     70       DOPC     H3X      HAL2     0.900000E-01   1.00800           0
     10116 MEMB     70       DOPC     H3Y      HAL2     0.900000E-01   1.00800           0
     10117 MEMB     70       DOPC     C34      CTL2    -0.180000       12.0110           0
     10118 MEMB     70       DOPC     H4X      HAL2     0.900000E-01   1.00800           0
     10119 MEMB     70       DOPC     H4Y      HAL2     0.900000E-01   1.00800           0
     10120 MEMB     70       DOPC     C35      CTL2    -0.180000       12.0110           0
     10121 MEMB     70       DOPC     H5X      HAL2     0.900000E-01   1.00800           0
     10122 MEMB     70       DOPC     H5Y      HAL2     0.900000E-01   1.00800           0
     10123 MEMB     70       DOPC     C36      CTL2    -0.180000       12.0110           0
     10124 MEMB     70       DOPC     H6X      HAL2     0.900000E-01   1.00800           0
     10125 MEMB     70       DOPC     H6Y      HAL2     0.900000E-01   1.00800           0
     10126 MEMB     70       DOPC     C37      CTL2    -0.180000       12.0110           0
     10127 MEMB     70       DOPC     H7X      HAL2     0.900000E-01   1.00800           0
     10128 MEMB     70       DOPC     H7Y      HAL2     0.900000E-01   1.00800           0
     10129 MEMB     70       DOPC     C38      CTL2    -0.180000       12.0110           0
     10130 MEMB     70       DOPC     H8X      HAL2     0.900000E-01   1.00800           0
     10131 MEMB     70       DOPC     H8Y      HAL2     0.900000E-01   1.00800           0
     10132 MEMB     70       DOPC     C39      CEL1    -0.150000       12.0110           0
     10133 MEMB     70       DOPC     H9X      HEL1     0.150000       1.00800           0
     10134 MEMB     70       DOPC     C310     CEL1    -0.150000       12.0110           0
     10135 MEMB     70       DOPC     H10X     HEL1     0.150000       1.00800           0
     10136 MEMB     70       DOPC     C311     CTL2    -0.180000       12.0110           0
     10137 MEMB     70       DOPC     H11X     HAL2     0.900000E-01   1.00800           0
     10138 MEMB     70       DOPC     H11Y     HAL2     0.900000E-01   1.00800           0
     10139 MEMB     70       DOPC     C312     CTL2    -0.180000       12.0110           0
     10140 MEMB     70       DOPC     H12X     HAL2     0.900000E-01   1.00800           0
     10141 MEMB     70       DOPC     H12Y     HAL2     0.900000E-01   1.00800           0
     10142 MEMB     70       DOPC     C313     CTL2    -0.180000       12.0110           0
     10143 MEMB     70       DOPC     H13X     HAL2     0.900000E-01   1.00800           0
     10144 MEMB     70       DOPC     H13Y     HAL2     0.900000E-01   1.00800           0
     10145 MEMB     70       DOPC     C314     CTL2    -0.180000       12.0110           0
     10146 MEMB     70       DOPC     H14X     HAL2     0.900000E-01   1.00800           0
     10147 MEMB     70       DOPC     H14Y     HAL2     0.900000E-01   1.00800           0
     10148 MEMB     70       DOPC     C315     CTL2    -0.180000       12.0110           0
     10149 MEMB     70       DOPC     H15X     HAL2     0.900000E-01   1.00800           0
     10150 MEMB     70       DOPC     H15Y     HAL2     0.900000E-01   1.00800           0
     10151 MEMB     70       DOPC     C316     CTL2    -0.180000       12.0110           0
     10152 MEMB     70       DOPC     H16X     HAL2     0.900000E-01   1.00800           0
     10153 MEMB     70       DOPC     H16Y     HAL2     0.900000E-01   1.00800           0
     10154 MEMB     70       DOPC     C317     CTL2    -0.180000       12.0110           0
     10155 MEMB     70       DOPC     H17X     HAL2     0.900000E-01   1.00800           0
     10156 MEMB     70       DOPC     H17Y     HAL2     0.900000E-01   1.00800           0
     10157 MEMB     70       DOPC     C318     CTL3    -0.270000       12.0110           0
     10158 MEMB     70       DOPC     H18X     HAL3     0.900000E-01   1.00800           0
     10159 MEMB     70       DOPC     H18Y     HAL3     0.900000E-01   1.00800           0
     10160 MEMB     70       DOPC     H18Z     HAL3     0.900000E-01   1.00800           0
     10161 MEMB     71       DOPC     N        NTL     -0.600000       14.0070           0
     10162 MEMB     71       DOPC     C12      CTL2    -0.100000       12.0110           0
     10163 MEMB     71       DOPC     H12A     HL       0.250000       1.00800           0
     10164 MEMB     71       DOPC     H12B     HL       0.250000       1.00800           0
     10165 MEMB     71       DOPC     C13      CTL5    -0.350000       12.0110           0
     10166 MEMB     71       DOPC     H13A     HL       0.250000       1.00800           0
     10167 MEMB     71       DOPC     H13B     HL       0.250000       1.00800           0
     10168 MEMB     71       DOPC     H13C     HL       0.250000       1.00800           0
     10169 MEMB     71       DOPC     C14      CTL5    -0.350000       12.0110           0
     10170 MEMB     71       DOPC     H14A     HL       0.250000       1.00800           0
     10171 MEMB     71       DOPC     H14B     HL       0.250000       1.00800           0
     10172 MEMB     71       DOPC     H14C     HL       0.250000       1.00800           0
     10173 MEMB     71       DOPC     C15      CTL5    -0.350000       12.0110           0
     10174 MEMB     71       DOPC     H15A     HL       0.250000       1.00800           0
     10175 MEMB     71       DOPC     H15B     HL       0.250000       1.00800           0
     10176 MEMB     71       DOPC     H15C     HL       0.250000       1.00800           0
     10177 MEMB     71       DOPC     C11      CTL2    -0.800000E-01   12.0110           0
     10178 MEMB     71       DOPC     H11A     HAL2     0.900000E-01   1.00800           0
     10179 MEMB     71       DOPC     H11B     HAL2     0.900000E-01   1.00800           0
     10180 MEMB     71       DOPC     P        PL        1.50000       30.9740           0
     10181 MEMB     71       DOPC     O13      O2L     -0.780000       15.9994           0
     10182 MEMB     71       DOPC     O14      O2L     -0.780000       15.9994           0
     10183 MEMB     71       DOPC     O12      OSLP    -0.570000       15.9994           0
     10184 MEMB     71       DOPC     O11      OSLP    -0.570000       15.9994           0
     10185 MEMB     71       DOPC     C1       CTL2    -0.800000E-01   12.0110           0
     10186 MEMB     71       DOPC     HA       HAL2     0.900000E-01   1.00800           0
     10187 MEMB     71       DOPC     HB       HAL2     0.900000E-01   1.00800           0
     10188 MEMB     71       DOPC     C2       CTL1     0.170000       12.0110           0
     10189 MEMB     71       DOPC     HS       HAL1     0.900000E-01   1.00800           0
     10190 MEMB     71       DOPC     O21      OSL     -0.490000       15.9994           0
     10191 MEMB     71       DOPC     C21      CL       0.900000       12.0110           0
     10192 MEMB     71       DOPC     O22      OBL     -0.630000       15.9994           0
     10193 MEMB     71       DOPC     C22      CTL2    -0.220000       12.0110           0
     10194 MEMB     71       DOPC     H2R      HAL2     0.900000E-01   1.00800           0
     10195 MEMB     71       DOPC     H2S      HAL2     0.900000E-01   1.00800           0
     10196 MEMB     71       DOPC     C3       CTL2     0.800000E-01   12.0110           0
     10197 MEMB     71       DOPC     HX       HAL2     0.900000E-01   1.00800           0
     10198 MEMB     71       DOPC     HY       HAL2     0.900000E-01   1.00800           0
     10199 MEMB     71       DOPC     O31      OSL     -0.490000       15.9994           0
     10200 MEMB     71       DOPC     C31      CL       0.900000       12.0110           0
     10201 MEMB     71       DOPC     O32      OBL     -0.630000       15.9994           0
     10202 MEMB     71       DOPC     C32      CTL2    -0.220000       12.0110           0
     10203 MEMB     71       DOPC     H2X      HAL2     0.900000E-01   1.00800           0
     10204 MEMB     71       DOPC     H2Y      HAL2     0.900000E-01   1.00800           0
     10205 MEMB     71       DOPC     C23      CTL2    -0.180000       12.0110           0
     10206 MEMB     71       DOPC     H3R      HAL2     0.900000E-01   1.00800           0
     10207 MEMB     71       DOPC     H3S      HAL2     0.900000E-01   1.00800           0
     10208 MEMB     71       DOPC     C24      CTL2    -0.180000       12.0110           0
     10209 MEMB     71       DOPC     H4R      HAL2     0.900000E-01   1.00800           0
     10210 MEMB     71       DOPC     H4S      HAL2     0.900000E-01   1.00800           0
     10211 MEMB     71       DOPC     C25      CTL2    -0.180000       12.0110           0
     10212 MEMB     71       DOPC     H5R      HAL2     0.900000E-01   1.00800           0
     10213 MEMB     71       DOPC     H5S      HAL2     0.900000E-01   1.00800           0
     10214 MEMB     71       DOPC     C26      CTL2    -0.180000       12.0110           0
     10215 MEMB     71       DOPC     H6R      HAL2     0.900000E-01   1.00800           0
     10216 MEMB     71       DOPC     H6S      HAL2     0.900000E-01   1.00800           0
     10217 MEMB     71       DOPC     C27      CTL2    -0.180000       12.0110           0
     10218 MEMB     71       DOPC     H7R      HAL2     0.900000E-01   1.00800           0
     10219 MEMB     71       DOPC     H7S      HAL2     0.900000E-01   1.00800           0
     10220 MEMB     71       DOPC     C28      CTL2    -0.180000       12.0110           0
     10221 MEMB     71       DOPC     H8R      HAL2     0.900000E-01   1.00800           0
     10222 MEMB     71       DOPC     H8S      HAL2     0.900000E-01   1.00800           0
     10223 MEMB     71       DOPC     C29      CEL1    -0.150000       12.0110           0
     10224 MEMB     71       DOPC     H9R      HEL1     0.150000       1.00800           0
     10225 MEMB     71       DOPC     C210     CEL1    -0.150000       12.0110           0
     10226 MEMB     71       DOPC     H10R     HEL1     0.150000       1.00800           0
     10227 MEMB     71       DOPC     C211     CTL2    -0.180000       12.0110           0
     10228 MEMB     71       DOPC     H11R     HAL2     0.900000E-01   1.00800           0
     10229 MEMB     71       DOPC     H11S     HAL2     0.900000E-01   1.00800           0
     10230 MEMB     71       DOPC     C212     CTL2    -0.180000       12.0110           0
     10231 MEMB     71       DOPC     H12R     HAL2     0.900000E-01   1.00800           0
     10232 MEMB     71       DOPC     H12S     HAL2     0.900000E-01   1.00800           0
     10233 MEMB     71       DOPC     C213     CTL2    -0.180000       12.0110           0
     10234 MEMB     71       DOPC     H13R     HAL2     0.900000E-01   1.00800           0
     10235 MEMB     71       DOPC     H13S     HAL2     0.900000E-01   1.00800           0
     10236 MEMB     71       DOPC     C214     CTL2    -0.180000       12.0110           0
     10237 MEMB     71       DOPC     H14R     HAL2     0.900000E-01   1.00800           0
     10238 MEMB     71       DOPC     H14S     HAL2     0.900000E-01   1.00800           0
     10239 MEMB     71       DOPC     C215     CTL2    -0.180000       12.0110           0
     10240 MEMB     71       DOPC     H15R     HAL2     0.900000E-01   1.00800           0
     10241 MEMB     71       DOPC     H15S     HAL2     0.900000E-01   1.00800           0
     10242 MEMB     71       DOPC     C216     CTL2    -0.180000       12.0110           0
     10243 MEMB     71       DOPC     H16R     HAL2     0.900000E-01   1.00800           0
     10244 MEMB     71       DOPC     H16S     HAL2     0.900000E-01   1.00800           0
     10245 MEMB     71       DOPC     C217     CTL2    -0.180000       12.0110           0
     10246 MEMB     71       DOPC     H17R     HAL2     0.900000E-01   1.00800           0
     10247 MEMB     71       DOPC     H17S     HAL2     0.900000E-01   1.00800           0
     10248 MEMB     71       DOPC     C218     CTL3    -0.270000       12.0110           0
     10249 MEMB     71       DOPC     H18R     HAL3     0.900000E-01   1.00800           0
     10250 MEMB     71       DOPC     H18S     HAL3     0.900000E-01   1.00800           0
     10251 MEMB     71       DOPC     H18T     HAL3     0.900000E-01   1.00800           0
     10252 MEMB     71       DOPC     C33      CTL2    -0.180000       12.0110           0
     10253 MEMB     71       DOPC     H3X      HAL2     0.900000E-01   1.00800           0
     10254 MEMB     71       DOPC     H3Y      HAL2     0.900000E-01   1.00800           0
     10255 MEMB     71       DOPC     C34      CTL2    -0.180000       12.0110           0
     10256 MEMB     71       DOPC     H4X      HAL2     0.900000E-01   1.00800           0
     10257 MEMB     71       DOPC     H4Y      HAL2     0.900000E-01   1.00800           0
     10258 MEMB     71       DOPC     C35      CTL2    -0.180000       12.0110           0
     10259 MEMB     71       DOPC     H5X      HAL2     0.900000E-01   1.00800           0
     10260 MEMB     71       DOPC     H5Y      HAL2     0.900000E-01   1.00800           0
     10261 MEMB     71       DOPC     C36      CTL2    -0.180000       12.0110           0
     10262 MEMB     71       DOPC     H6X      HAL2     0.900000E-01   1.00800           0
     10263 MEMB     71       DOPC     H6Y      HAL2     0.900000E-01   1.00800           0
     10264 MEMB     71       DOPC     C37      CTL2    -0.180000       12.0110           0
     10265 MEMB     71       DOPC     H7X      HAL2     0.900000E-01   1.00800           0
     10266 MEMB     71       DOPC     H7Y      HAL2     0.900000E-01   1.00800           0
     10267 MEMB     71       DOPC     C38      CTL2    -0.180000       12.0110           0
     10268 MEMB     71       DOPC     H8X      HAL2     0.900000E-01   1.00800           0
     10269 MEMB     71       DOPC     H8Y      HAL2     0.900000E-01   1.00800           0
     10270 MEMB     71       DOPC     C39      CEL1    -0.150000       12.0110           0
     10271 MEMB     71       DOPC     H9X      HEL1     0.150000       1.00800           0
     10272 MEMB     71       DOPC     C310     CEL1    -0.150000       12.0110           0
     10273 MEMB     71       DOPC     H10X     HEL1     0.150000       1.00800           0
     10274 MEMB     71       DOPC     C311     CTL2    -0.180000       12.0110           0
     10275 MEMB     71       DOPC     H11X     HAL2     0.900000E-01   1.00800           0
     10276 MEMB     71       DOPC     H11Y     HAL2     0.900000E-01   1.00800           0
     10277 MEMB     71       DOPC     C312     CTL2    -0.180000       12.0110           0
     10278 MEMB     71       DOPC     H12X     HAL2     0.900000E-01   1.00800           0
     10279 MEMB     71       DOPC     H12Y     HAL2     0.900000E-01   1.00800           0
     10280 MEMB     71       DOPC     C313     CTL2    -0.180000       12.0110           0
     10281 MEMB     71       DOPC     H13X     HAL2     0.900000E-01   1.00800           0
     10282 MEMB     71       DOPC     H13Y     HAL2     0.900000E-01   1.00800           0
     10283 MEMB     71       DOPC     C314     CTL2    -0.180000       12.0110           0
     10284 MEMB     71       DOPC     H14X     HAL2     0.900000E-01   1.00800           0
     10285 MEMB     71       DOPC     H14Y     HAL2     0.900000E-01   1.00800           0
     10286 MEMB     71       DOPC     C315     CTL2    -0.180000       12.0110           0
     10287 MEMB     71       DOPC     H15X     HAL2     0.900000E-01   1.00800           0
     10288 MEMB     71       DOPC     H15Y     HAL2     0.900000E-01   1.00800           0
     10289 MEMB     71       DOPC     C316     CTL2    -0.180000       12.0110           0
     10290 MEMB     71       DOPC     H16X     HAL2     0.900000E-01   1.00800           0
     10291 MEMB     71       DOPC     H16Y     HAL2     0.900000E-01   1.00800           0
     10292 MEMB     71       DOPC     C317     CTL2    -0.180000       12.0110           0
     10293 MEMB     71       DOPC     H17X     HAL2     0.900000E-01   1.00800           0
     10294 MEMB     71       DOPC     H17Y     HAL2     0.900000E-01   1.00800           0
     10295 MEMB     71       DOPC     C318     CTL3    -0.270000       12.0110           0
     10296 MEMB     71       DOPC     H18X     HAL3     0.900000E-01   1.00800           0
     10297 MEMB     71       DOPC     H18Y     HAL3     0.900000E-01   1.00800           0
     10298 MEMB     71       DOPC     H18Z     HAL3     0.900000E-01   1.00800           0
     10299 MEMB     72       DOPC     N        NTL     -0.600000       14.0070           0
     10300 MEMB     72       DOPC     C12      CTL2    -0.100000       12.0110           0
     10301 MEMB     72       DOPC     H12A     HL       0.250000       1.00800           0
     10302 MEMB     72       DOPC     H12B     HL       0.250000       1.00800           0
     10303 MEMB     72       DOPC     C13      CTL5    -0.350000       12.0110           0
     10304 MEMB     72       DOPC     H13A     HL       0.250000       1.00800           0
     10305 MEMB     72       DOPC     H13B     HL       0.250000       1.00800           0
     10306 MEMB     72       DOPC     H13C     HL       0.250000       1.00800           0
     10307 MEMB     72       DOPC     C14      CTL5    -0.350000       12.0110           0
     10308 MEMB     72       DOPC     H14A     HL       0.250000       1.00800           0
     10309 MEMB     72       DOPC     H14B     HL       0.250000       1.00800           0
     10310 MEMB     72       DOPC     H14C     HL       0.250000       1.00800           0
     10311 MEMB     72       DOPC     C15      CTL5    -0.350000       12.0110           0
     10312 MEMB     72       DOPC     H15A     HL       0.250000       1.00800           0
     10313 MEMB     72       DOPC     H15B     HL       0.250000       1.00800           0
     10314 MEMB     72       DOPC     H15C     HL       0.250000       1.00800           0
     10315 MEMB     72       DOPC     C11      CTL2    -0.800000E-01   12.0110           0
     10316 MEMB     72       DOPC     H11A     HAL2     0.900000E-01   1.00800           0
     10317 MEMB     72       DOPC     H11B     HAL2     0.900000E-01   1.00800           0
     10318 MEMB     72       DOPC     P        PL        1.50000       30.9740           0
     10319 MEMB     72       DOPC     O13      O2L     -0.780000       15.9994           0
     10320 MEMB     72       DOPC     O14      O2L     -0.780000       15.9994           0
     10321 MEMB     72       DOPC     O12      OSLP    -0.570000       15.9994           0
     10322 MEMB     72       DOPC     O11      OSLP    -0.570000       15.9994           0
     10323 MEMB     72       DOPC     C1       CTL2    -0.800000E-01   12.0110           0
     10324 MEMB     72       DOPC     HA       HAL2     0.900000E-01   1.00800           0
     10325 MEMB     72       DOPC     HB       HAL2     0.900000E-01   1.00800           0
     10326 MEMB     72       DOPC     C2       CTL1     0.170000       12.0110           0
     10327 MEMB     72       DOPC     HS       HAL1     0.900000E-01   1.00800           0
     10328 MEMB     72       DOPC     O21      OSL     -0.490000       15.9994           0
     10329 MEMB     72       DOPC     C21      CL       0.900000       12.0110           0
     10330 MEMB     72       DOPC     O22      OBL     -0.630000       15.9994           0
     10331 MEMB     72       DOPC     C22      CTL2    -0.220000       12.0110           0
     10332 MEMB     72       DOPC     H2R      HAL2     0.900000E-01   1.00800           0
     10333 MEMB     72       DOPC     H2S      HAL2     0.900000E-01   1.00800           0
     10334 MEMB     72       DOPC     C3       CTL2     0.800000E-01   12.0110           0
     10335 MEMB     72       DOPC     HX       HAL2     0.900000E-01   1.00800           0
     10336 MEMB     72       DOPC     HY       HAL2     0.900000E-01   1.00800           0
     10337 MEMB     72       DOPC     O31      OSL     -0.490000       15.9994           0
     10338 MEMB     72       DOPC     C31      CL       0.900000       12.0110           0
     10339 MEMB     72       DOPC     O32      OBL     -0.630000       15.9994           0
     10340 MEMB     72       DOPC     C32      CTL2    -0.220000       12.0110           0
     10341 MEMB     72       DOPC     H2X      HAL2     0.900000E-01   1.00800           0
     10342 MEMB     72       DOPC     H2Y      HAL2     0.900000E-01   1.00800           0
     10343 MEMB     72       DOPC     C23      CTL2    -0.180000       12.0110           0
     10344 MEMB     72       DOPC     H3R      HAL2     0.900000E-01   1.00800           0
     10345 MEMB     72       DOPC     H3S      HAL2     0.900000E-01   1.00800           0
     10346 MEMB     72       DOPC     C24      CTL2    -0.180000       12.0110           0
     10347 MEMB     72       DOPC     H4R      HAL2     0.900000E-01   1.00800           0
     10348 MEMB     72       DOPC     H4S      HAL2     0.900000E-01   1.00800           0
     10349 MEMB     72       DOPC     C25      CTL2    -0.180000       12.0110           0
     10350 MEMB     72       DOPC     H5R      HAL2     0.900000E-01   1.00800           0
     10351 MEMB     72       DOPC     H5S      HAL2     0.900000E-01   1.00800           0
     10352 MEMB     72       DOPC     C26      CTL2    -0.180000       12.0110           0
     10353 MEMB     72       DOPC     H6R      HAL2     0.900000E-01   1.00800           0
     10354 MEMB     72       DOPC     H6S      HAL2     0.900000E-01   1.00800           0
     10355 MEMB     72       DOPC     C27      CTL2    -0.180000       12.0110           0
     10356 MEMB     72       DOPC     H7R      HAL2     0.900000E-01   1.00800           0
     10357 MEMB     72       DOPC     H7S      HAL2     0.900000E-01   1.00800           0
     10358 MEMB     72       DOPC     C28      CTL2    -0.180000       12.0110           0
     10359 MEMB     72       DOPC     H8R      HAL2     0.900000E-01   1.00800           0
     10360 MEMB     72       DOPC     H8S      HAL2     0.900000E-01   1.00800           0
     10361 MEMB     72       DOPC     C29      CEL1    -0.150000       12.0110           0
     10362 MEMB     72       DOPC     H9R      HEL1     0.150000       1.00800           0
     10363 MEMB     72       DOPC     C210     CEL1    -0.150000       12.0110           0
     10364 MEMB     72       DOPC     H10R     HEL1     0.150000       1.00800           0
     10365 MEMB     72       DOPC     C211     CTL2    -0.180000       12.0110           0
     10366 MEMB     72       DOPC     H11R     HAL2     0.900000E-01   1.00800           0
     10367 MEMB     72       DOPC     H11S     HAL2     0.900000E-01   1.00800           0
     10368 MEMB     72       DOPC     C212     CTL2    -0.180000       12.0110           0
     10369 MEMB     72       DOPC     H12R     HAL2     0.900000E-01   1.00800           0
     10370 MEMB     72       DOPC     H12S     HAL2     0.900000E-01   1.00800           0
     10371 MEMB     72       DOPC     C213     CTL2    -0.180000       12.0110           0
     10372 MEMB     72       DOPC     H13R     HAL2     0.900000E-01   1.00800           0
     10373 MEMB     72       DOPC     H13S     HAL2     0.900000E-01   1.00800           0
     10374 MEMB     72       DOPC     C214     CTL2    -0.180000       12.0110           0
     10375 MEMB     72       DOPC     H14R     HAL2     0.900000E-01   1.00800           0
     10376 MEMB     72       DOPC     H14S     HAL2     0.900000E-01   1.00800           0
     10377 MEMB     72       DOPC     C215     CTL2    -0.180000       12.0110           0
     10378 MEMB     72       DOPC     H15R     HAL2     0.900000E-01   1.00800           0
     10379 MEMB     72       DOPC     H15S     HAL2     0.900000E-01   1.00800           0
     10380 MEMB     72       DOPC     C216     CTL2    -0.180000       12.0110           0
     10381 MEMB     72       DOPC     H16R     HAL2     0.900000E-01   1.00800           0
     10382 MEMB     72       DOPC     H16S     HAL2     0.900000E-01   1.00800           0
     10383 MEMB     72       DOPC     C217     CTL2    -0.180000       12.0110           0
     10384 MEMB     72       DOPC     H17R     HAL2     0.900000E-01   1.00800           0
     10385 MEMB     72       DOPC     H17S     HAL2     0.900000E-01   1.00800           0
     10386 MEMB     72       DOPC     C218     CTL3    -0.270000       12.0110           0
     10387 MEMB     72       DOPC     H18R     HAL3     0.900000E-01   1.00800           0
     10388 MEMB     72       DOPC     H18S     HAL3     0.900000E-01   1.00800           0
     10389 MEMB     72       DOPC     H18T     HAL3     0.900000E-01   1.00800           0
     10390 MEMB     72       DOPC     C33      CTL2    -0.180000       12.0110           0
     10391 MEMB     72       DOPC     H3X      HAL2     0.900000E-01   1.00800           0
     10392 MEMB     72       DOPC     H3Y      HAL2     0.900000E-01   1.00800           0
     10393 MEMB     72       DOPC     C34      CTL2    -0.180000       12.0110           0
     10394 MEMB     72       DOPC     H4X      HAL2     0.900000E-01   1.00800           0
     10395 MEMB     72       DOPC     H4Y      HAL2     0.900000E-01   1.00800           0
     10396 MEMB     72       DOPC     C35      CTL2    -0.180000       12.0110           0
     10397 MEMB     72       DOPC     H5X      HAL2     0.900000E-01   1.00800           0
     10398 MEMB     72       DOPC     H5Y      HAL2     0.900000E-01   1.00800           0
     10399 MEMB     72       DOPC     C36      CTL2    -0.180000       12.0110           0
     10400 MEMB     72       DOPC     H6X      HAL2     0.900000E-01   1.00800           0
     10401 MEMB     72       DOPC     H6Y      HAL2     0.900000E-01   1.00800           0
     10402 MEMB     72       DOPC     C37      CTL2    -0.180000       12.0110           0
     10403 MEMB     72       DOPC     H7X      HAL2     0.900000E-01   1.00800           0
     10404 MEMB     72       DOPC     H7Y      HAL2     0.900000E-01   1.00800           0
     10405 MEMB     72       DOPC     C38      CTL2    -0.180000       12.0110           0
     10406 MEMB     72       DOPC     H8X      HAL2     0.900000E-01   1.00800           0
     10407 MEMB     72       DOPC     H8Y      HAL2     0.900000E-01   1.00800           0
     10408 MEMB     72       DOPC     C39      CEL1    -0.150000       12.0110           0
     10409 MEMB     72       DOPC     H9X      HEL1     0.150000       1.00800           0
     10410 MEMB     72       DOPC     C310     CEL1    -0.150000       12.0110           0
     10411 MEMB     72       DOPC     H10X     HEL1     0.150000       1.00800           0
     10412 MEMB     72       DOPC     C311     CTL2    -0.180000       12.0110           0
     10413 MEMB     72       DOPC     H11X     HAL2     0.900000E-01   1.00800           0
     10414 MEMB     72       DOPC     H11Y     HAL2     0.900000E-01   1.00800           0
     10415 MEMB     72       DOPC     C312     CTL2    -0.180000       12.0110           0
     10416 MEMB     72       DOPC     H12X     HAL2     0.900000E-01   1.00800           0
     10417 MEMB     72       DOPC     H12Y     HAL2     0.900000E-01   1.00800           0
     10418 MEMB     72       DOPC     C313     CTL2    -0.180000       12.0110           0
     10419 MEMB     72       DOPC     H13X     HAL2     0.900000E-01   1.00800           0
     10420 MEMB     72       DOPC     H13Y     HAL2     0.900000E-01   1.00800           0
     10421 MEMB     72       DOPC     C314     CTL2    -0.180000       12.0110           0
     10422 MEMB     72       DOPC     H14X     HAL2     0.900000E-01   1.00800           0
     10423 MEMB     72       DOPC     H14Y     HAL2     0.900000E-01   1.00800           0
     10424 MEMB     72       DOPC     C315     CTL2    -0.180000       12.0110           0
     10425 MEMB     72       DOPC     H15X     HAL2     0.900000E-01   1.00800           0
     10426 MEMB     72       DOPC     H15Y     HAL2     0.900000E-01   1.00800           0
     10427 MEMB     72       DOPC     C316     CTL2    -0.180000       12.0110           0
     10428 MEMB     72       DOPC     H16X     HAL2     0.900000E-01   1.00800           0
     10429 MEMB     72       DOPC     H16Y     HAL2     0.900000E-01   1.00800           0
     10430 MEMB     72       DOPC     C317     CTL2    -0.180000       12.0110           0
     10431 MEMB     72       DOPC     H17X     HAL2     0.900000E-01   1.00800           0
     10432 MEMB     72       DOPC     H17Y     HAL2     0.900000E-01   1.00800           0
     10433 MEMB     72       DOPC     C318     CTL3    -0.270000       12.0110           0
     10434 MEMB     72       DOPC     H18X     HAL3     0.900000E-01   1.00800           0
     10435 MEMB     72       DOPC     H18Y     HAL3     0.900000E-01   1.00800           0
     10436 MEMB     72       DOPC     H18Z     HAL3     0.900000E-01   1.00800           0
     10437 MEMB     73       DOPC     N        NTL     -0.600000       14.0070           0
     10438 MEMB     73       DOPC     C12      CTL2    -0.100000       12.0110           0
     10439 MEMB     73       DOPC     H12A     HL       0.250000       1.00800           0
     10440 MEMB     73       DOPC     H12B     HL       0.250000       1.00800           0
     10441 MEMB     73       DOPC     C13      CTL5    -0.350000       12.0110           0
     10442 MEMB     73       DOPC     H13A     HL       0.250000       1.00800           0
     10443 MEMB     73       DOPC     H13B     HL       0.250000       1.00800           0
     10444 MEMB     73       DOPC     H13C     HL       0.250000       1.00800           0
     10445 MEMB     73       DOPC     C14      CTL5    -0.350000       12.0110           0
     10446 MEMB     73       DOPC     H14A     HL       0.250000       1.00800           0
     10447 MEMB     73       DOPC     H14B     HL       0.250000       1.00800           0
     10448 MEMB     73       DOPC     H14C     HL       0.250000       1.00800           0
     10449 MEMB     73       DOPC     C15      CTL5    -0.350000       12.0110           0
     10450 MEMB     73       DOPC     H15A     HL       0.250000       1.00800           0
     10451 MEMB     73       DOPC     H15B     HL       0.250000       1.00800           0
     10452 MEMB     73       DOPC     H15C     HL       0.250000       1.00800           0
     10453 MEMB     73       DOPC     C11      CTL2    -0.800000E-01   12.0110           0
     10454 MEMB     73       DOPC     H11A     HAL2     0.900000E-01   1.00800           0
     10455 MEMB     73       DOPC     H11B     HAL2     0.900000E-01   1.00800           0
     10456 MEMB     73       DOPC     P        PL        1.50000       30.9740           0
     10457 MEMB     73       DOPC     O13      O2L     -0.780000       15.9994           0
     10458 MEMB     73       DOPC     O14      O2L     -0.780000       15.9994           0
     10459 MEMB     73       DOPC     O12      OSLP    -0.570000       15.9994           0
     10460 MEMB     73       DOPC     O11      OSLP    -0.570000       15.9994           0
     10461 MEMB     73       DOPC     C1       CTL2    -0.800000E-01   12.0110           0
     10462 MEMB     73       DOPC     HA       HAL2     0.900000E-01   1.00800           0
     10463 MEMB     73       DOPC     HB       HAL2     0.900000E-01   1.00800           0
     10464 MEMB     73       DOPC     C2       CTL1     0.170000       12.0110           0
     10465 MEMB     73       DOPC     HS       HAL1     0.900000E-01   1.00800           0
     10466 MEMB     73       DOPC     O21      OSL     -0.490000       15.9994           0
     10467 MEMB     73       DOPC     C21      CL       0.900000       12.0110           0
     10468 MEMB     73       DOPC     O22      OBL     -0.630000       15.9994           0
     10469 MEMB     73       DOPC     C22      CTL2    -0.220000       12.0110           0
     10470 MEMB     73       DOPC     H2R      HAL2     0.900000E-01   1.00800           0
     10471 MEMB     73       DOPC     H2S      HAL2     0.900000E-01   1.00800           0
     10472 MEMB     73       DOPC     C3       CTL2     0.800000E-01   12.0110           0
     10473 MEMB     73       DOPC     HX       HAL2     0.900000E-01   1.00800           0
     10474 MEMB     73       DOPC     HY       HAL2     0.900000E-01   1.00800           0
     10475 MEMB     73       DOPC     O31      OSL     -0.490000       15.9994           0
     10476 MEMB     73       DOPC     C31      CL       0.900000       12.0110           0
     10477 MEMB     73       DOPC     O32      OBL     -0.630000       15.9994           0
     10478 MEMB     73       DOPC     C32      CTL2    -0.220000       12.0110           0
     10479 MEMB     73       DOPC     H2X      HAL2     0.900000E-01   1.00800           0
     10480 MEMB     73       DOPC     H2Y      HAL2     0.900000E-01   1.00800           0
     10481 MEMB     73       DOPC     C23      CTL2    -0.180000       12.0110           0
     10482 MEMB     73       DOPC     H3R      HAL2     0.900000E-01   1.00800           0
     10483 MEMB     73       DOPC     H3S      HAL2     0.900000E-01   1.00800           0
     10484 MEMB     73       DOPC     C24      CTL2    -0.180000       12.0110           0
     10485 MEMB     73       DOPC     H4R      HAL2     0.900000E-01   1.00800           0
     10486 MEMB     73       DOPC     H4S      HAL2     0.900000E-01   1.00800           0
     10487 MEMB     73       DOPC     C25      CTL2    -0.180000       12.0110           0
     10488 MEMB     73       DOPC     H5R      HAL2     0.900000E-01   1.00800           0
     10489 MEMB     73       DOPC     H5S      HAL2     0.900000E-01   1.00800           0
     10490 MEMB     73       DOPC     C26      CTL2    -0.180000       12.0110           0
     10491 MEMB     73       DOPC     H6R      HAL2     0.900000E-01   1.00800           0
     10492 MEMB     73       DOPC     H6S      HAL2     0.900000E-01   1.00800           0
     10493 MEMB     73       DOPC     C27      CTL2    -0.180000       12.0110           0
     10494 MEMB     73       DOPC     H7R      HAL2     0.900000E-01   1.00800           0
     10495 MEMB     73       DOPC     H7S      HAL2     0.900000E-01   1.00800           0
     10496 MEMB     73       DOPC     C28      CTL2    -0.180000       12.0110           0
     10497 MEMB     73       DOPC     H8R      HAL2     0.900000E-01   1.00800           0
     10498 MEMB     73       DOPC     H8S      HAL2     0.900000E-01   1.00800           0
     10499 MEMB     73       DOPC     C29      CEL1    -0.150000       12.0110           0
     10500 MEMB     73       DOPC     H9R      HEL1     0.150000       1.00800           0
     10501 MEMB     73       DOPC     C210     CEL1    -0.150000       12.0110           0
     10502 MEMB     73       DOPC     H10R     HEL1     0.150000       1.00800           0
     10503 MEMB     73       DOPC     C211     CTL2    -0.180000       12.0110           0
     10504 MEMB     73       DOPC     H11R     HAL2     0.900000E-01   1.00800           0
     10505 MEMB     73       DOPC     H11S     HAL2     0.900000E-01   1.00800           0
     10506 MEMB     73       DOPC     C212     CTL2    -0.180000       12.0110           0
     10507 MEMB     73       DOPC     H12R     HAL2     0.900000E-01   1.00800           0
     10508 MEMB     73       DOPC     H12S     HAL2     0.900000E-01   1.00800           0
     10509 MEMB     73       DOPC     C213     CTL2    -0.180000       12.0110           0
     10510 MEMB     73       DOPC     H13R     HAL2     0.900000E-01   1.00800           0
     10511 MEMB     73       DOPC     H13S     HAL2     0.900000E-01   1.00800           0
     10512 MEMB     73       DOPC     C214     CTL2    -0.180000       12.0110           0
     10513 MEMB     73       DOPC     H14R     HAL2     0.900000E-01   1.00800           0
     10514 MEMB     73       DOPC     H14S     HAL2     0.900000E-01   1.00800           0
     10515 MEMB     73       DOPC     C215     CTL2    -0.180000       12.0110           0
     10516 MEMB     73       DOPC     H15R     HAL2     0.900000E-01   1.00800           0
     10517 MEMB     73       DOPC     H15S     HAL2     0.900000E-01   1.00800           0
     10518 MEMB     73       DOPC     C216     CTL2    -0.180000       12.0110           0
     10519 MEMB     73       DOPC     H16R     HAL2     0.900000E-01   1.00800           0
     10520 MEMB     73       DOPC     H16S     HAL2     0.900000E-01   1.00800           0
     10521 MEMB     73       DOPC     C217     CTL2    -0.180000       12.0110           0
     10522 MEMB     73       DOPC     H17R     HAL2     0.900000E-01   1.00800           0
     10523 MEMB     73       DOPC     H17S     HAL2     0.900000E-01   1.00800           0
     10524 MEMB     73       DOPC     C218     CTL3    -0.270000       12.0110           0
     10525 MEMB     73       DOPC     H18R     HAL3     0.900000E-01   1.00800           0
     10526 MEMB     73       DOPC     H18S     HAL3     0.900000E-01   1.00800           0
     10527 MEMB     73       DOPC     H18T     HAL3     0.900000E-01   1.00800           0
     10528 MEMB     73       DOPC     C33      CTL2    -0.180000       12.0110           0
     10529 MEMB     73       DOPC     H3X      HAL2     0.900000E-01   1.00800           0
     10530 MEMB     73       DOPC     H3Y      HAL2     0.900000E-01   1.00800           0
     10531 MEMB     73       DOPC     C34      CTL2    -0.180000       12.0110           0
     10532 MEMB     73       DOPC     H4X      HAL2     0.900000E-01   1.00800           0
     10533 MEMB     73       DOPC     H4Y      HAL2     0.900000E-01   1.00800           0
     10534 MEMB     73       DOPC     C35      CTL2    -0.180000       12.0110           0
     10535 MEMB     73       DOPC     H5X      HAL2     0.900000E-01   1.00800           0
     10536 MEMB     73       DOPC     H5Y      HAL2     0.900000E-01   1.00800           0
     10537 MEMB     73       DOPC     C36      CTL2    -0.180000       12.0110           0
     10538 MEMB     73       DOPC     H6X      HAL2     0.900000E-01   1.00800           0
     10539 MEMB     73       DOPC     H6Y      HAL2     0.900000E-01   1.00800           0
     10540 MEMB     73       DOPC     C37      CTL2    -0.180000       12.0110           0
     10541 MEMB     73       DOPC     H7X      HAL2     0.900000E-01   1.00800           0
     10542 MEMB     73       DOPC     H7Y      HAL2     0.900000E-01   1.00800           0
     10543 MEMB     73       DOPC     C38      CTL2    -0.180000       12.0110           0
     10544 MEMB     73       DOPC     H8X      HAL2     0.900000E-01   1.00800           0
     10545 MEMB     73       DOPC     H8Y      HAL2     0.900000E-01   1.00800           0
     10546 MEMB     73       DOPC     C39      CEL1    -0.150000       12.0110           0
     10547 MEMB     73       DOPC     H9X      HEL1     0.150000       1.00800           0
     10548 MEMB     73       DOPC     C310     CEL1    -0.150000       12.0110           0
     10549 MEMB     73       DOPC     H10X     HEL1     0.150000       1.00800           0
     10550 MEMB     73       DOPC     C311     CTL2    -0.180000       12.0110           0
     10551 MEMB     73       DOPC     H11X     HAL2     0.900000E-01   1.00800           0
     10552 MEMB     73       DOPC     H11Y     HAL2     0.900000E-01   1.00800           0
     10553 MEMB     73       DOPC     C312     CTL2    -0.180000       12.0110           0
     10554 MEMB     73       DOPC     H12X     HAL2     0.900000E-01   1.00800           0
     10555 MEMB     73       DOPC     H12Y     HAL2     0.900000E-01   1.00800           0
     10556 MEMB     73       DOPC     C313     CTL2    -0.180000       12.0110           0
     10557 MEMB     73       DOPC     H13X     HAL2     0.900000E-01   1.00800           0
     10558 MEMB     73       DOPC     H13Y     HAL2     0.900000E-01   1.00800           0
     10559 MEMB     73       DOPC     C314     CTL2    -0.180000       12.0110           0
     10560 MEMB     73       DOPC     H14X     HAL2     0.900000E-01   1.00800           0
     10561 MEMB     73       DOPC     H14Y     HAL2     0.900000E-01   1.00800           0
     10562 MEMB     73       DOPC     C315     CTL2    -0.180000       12.0110           0
     10563 MEMB     73       DOPC     H15X     HAL2     0.900000E-01   1.00800           0
     10564 MEMB     73       DOPC     H15Y     HAL2     0.900000E-01   1.00800           0
     10565 MEMB     73       DOPC     C316     CTL2    -0.180000       12.0110           0
     10566 MEMB     73       DOPC     H16X     HAL2     0.900000E-01   1.00800           0
     10567 MEMB     73       DOPC     H16Y     HAL2     0.900000E-01   1.00800           0
     10568 MEMB     73       DOPC     C317     CTL2    -0.180000       12.0110           0
     10569 MEMB     73       DOPC     H17X     HAL2     0.900000E-01   1.00800           0
     10570 MEMB     73       DOPC     H17Y     HAL2     0.900000E-01   1.00800           0
     10571 MEMB     73       DOPC     C318     CTL3    -0.270000       12.0110           0
     10572 MEMB     73       DOPC     H18X     HAL3     0.900000E-01   1.00800           0
     10573 MEMB     73       DOPC     H18Y     HAL3     0.900000E-01   1.00800           0
     10574 MEMB     73       DOPC     H18Z     HAL3     0.900000E-01   1.00800           0
     10575 MEMB     74       DOPC     N        NTL     -0.600000       14.0070           0
     10576 MEMB     74       DOPC     C12      CTL2    -0.100000       12.0110           0
     10577 MEMB     74       DOPC     H12A     HL       0.250000       1.00800           0
     10578 MEMB     74       DOPC     H12B     HL       0.250000       1.00800           0
     10579 MEMB     74       DOPC     C13      CTL5    -0.350000       12.0110           0
     10580 MEMB     74       DOPC     H13A     HL       0.250000       1.00800           0
     10581 MEMB     74       DOPC     H13B     HL       0.250000       1.00800           0
     10582 MEMB     74       DOPC     H13C     HL       0.250000       1.00800           0
     10583 MEMB     74       DOPC     C14      CTL5    -0.350000       12.0110           0
     10584 MEMB     74       DOPC     H14A     HL       0.250000       1.00800           0
     10585 MEMB     74       DOPC     H14B     HL       0.250000       1.00800           0
     10586 MEMB     74       DOPC     H14C     HL       0.250000       1.00800           0
     10587 MEMB     74       DOPC     C15      CTL5    -0.350000       12.0110           0
     10588 MEMB     74       DOPC     H15A     HL       0.250000       1.00800           0
     10589 MEMB     74       DOPC     H15B     HL       0.250000       1.00800           0
     10590 MEMB     74       DOPC     H15C     HL       0.250000       1.00800           0
     10591 MEMB     74       DOPC     C11      CTL2    -0.800000E-01   12.0110           0
     10592 MEMB     74       DOPC     H11A     HAL2     0.900000E-01   1.00800           0
     10593 MEMB     74       DOPC     H11B     HAL2     0.900000E-01   1.00800           0
     10594 MEMB     74       DOPC     P        PL        1.50000       30.9740           0
     10595 MEMB     74       DOPC     O13      O2L     -0.780000       15.9994           0
     10596 MEMB     74       DOPC     O14      O2L     -0.780000       15.9994           0
     10597 MEMB     74       DOPC     O12      OSLP    -0.570000       15.9994           0
     10598 MEMB     74       DOPC     O11      OSLP    -0.570000       15.9994           0
     10599 MEMB     74       DOPC     C1       CTL2    -0.800000E-01   12.0110           0
     10600 MEMB     74       DOPC     HA       HAL2     0.900000E-01   1.00800           0
     10601 MEMB     74       DOPC     HB       HAL2     0.900000E-01   1.00800           0
     10602 MEMB     74       DOPC     C2       CTL1     0.170000       12.0110           0
     10603 MEMB     74       DOPC     HS       HAL1     0.900000E-01   1.00800           0
     10604 MEMB     74       DOPC     O21      OSL     -0.490000       15.9994           0
     10605 MEMB     74       DOPC     C21      CL       0.900000       12.0110           0
     10606 MEMB     74       DOPC     O22      OBL     -0.630000       15.9994           0
     10607 MEMB     74       DOPC     C22      CTL2    -0.220000       12.0110           0
     10608 MEMB     74       DOPC     H2R      HAL2     0.900000E-01   1.00800           0
     10609 MEMB     74       DOPC     H2S      HAL2     0.900000E-01   1.00800           0
     10610 MEMB     74       DOPC     C3       CTL2     0.800000E-01   12.0110           0
     10611 MEMB     74       DOPC     HX       HAL2     0.900000E-01   1.00800           0
     10612 MEMB     74       DOPC     HY       HAL2     0.900000E-01   1.00800           0
     10613 MEMB     74       DOPC     O31      OSL     -0.490000       15.9994           0
     10614 MEMB     74       DOPC     C31      CL       0.900000       12.0110           0
     10615 MEMB     74       DOPC     O32      OBL     -0.630000       15.9994           0
     10616 MEMB     74       DOPC     C32      CTL2    -0.220000       12.0110           0
     10617 MEMB     74       DOPC     H2X      HAL2     0.900000E-01   1.00800           0
     10618 MEMB     74       DOPC     H2Y      HAL2     0.900000E-01   1.00800           0
     10619 MEMB     74       DOPC     C23      CTL2    -0.180000       12.0110           0
     10620 MEMB     74       DOPC     H3R      HAL2     0.900000E-01   1.00800           0
     10621 MEMB     74       DOPC     H3S      HAL2     0.900000E-01   1.00800           0
     10622 MEMB     74       DOPC     C24      CTL2    -0.180000       12.0110           0
     10623 MEMB     74       DOPC     H4R      HAL2     0.900000E-01   1.00800           0
     10624 MEMB     74       DOPC     H4S      HAL2     0.900000E-01   1.00800           0
     10625 MEMB     74       DOPC     C25      CTL2    -0.180000       12.0110           0
     10626 MEMB     74       DOPC     H5R      HAL2     0.900000E-01   1.00800           0
     10627 MEMB     74       DOPC     H5S      HAL2     0.900000E-01   1.00800           0
     10628 MEMB     74       DOPC     C26      CTL2    -0.180000       12.0110           0
     10629 MEMB     74       DOPC     H6R      HAL2     0.900000E-01   1.00800           0
     10630 MEMB     74       DOPC     H6S      HAL2     0.900000E-01   1.00800           0
     10631 MEMB     74       DOPC     C27      CTL2    -0.180000       12.0110           0
     10632 MEMB     74       DOPC     H7R      HAL2     0.900000E-01   1.00800           0
     10633 MEMB     74       DOPC     H7S      HAL2     0.900000E-01   1.00800           0
     10634 MEMB     74       DOPC     C28      CTL2    -0.180000       12.0110           0
     10635 MEMB     74       DOPC     H8R      HAL2     0.900000E-01   1.00800           0
     10636 MEMB     74       DOPC     H8S      HAL2     0.900000E-01   1.00800           0
     10637 MEMB     74       DOPC     C29      CEL1    -0.150000       12.0110           0
     10638 MEMB     74       DOPC     H9R      HEL1     0.150000       1.00800           0
     10639 MEMB     74       DOPC     C210     CEL1    -0.150000       12.0110           0
     10640 MEMB     74       DOPC     H10R     HEL1     0.150000       1.00800           0
     10641 MEMB     74       DOPC     C211     CTL2    -0.180000       12.0110           0
     10642 MEMB     74       DOPC     H11R     HAL2     0.900000E-01   1.00800           0
     10643 MEMB     74       DOPC     H11S     HAL2     0.900000E-01   1.00800           0
     10644 MEMB     74       DOPC     C212     CTL2    -0.180000       12.0110           0
     10645 MEMB     74       DOPC     H12R     HAL2     0.900000E-01   1.00800           0
     10646 MEMB     74       DOPC     H12S     HAL2     0.900000E-01   1.00800           0
     10647 MEMB     74       DOPC     C213     CTL2    -0.180000       12.0110           0
     10648 MEMB     74       DOPC     H13R     HAL2     0.900000E-01   1.00800           0
     10649 MEMB     74       DOPC     H13S     HAL2     0.900000E-01   1.00800           0
     10650 MEMB     74       DOPC     C214     CTL2    -0.180000       12.0110           0
     10651 MEMB     74       DOPC     H14R     HAL2     0.900000E-01   1.00800           0
     10652 MEMB     74       DOPC     H14S     HAL2     0.900000E-01   1.00800           0
     10653 MEMB     74       DOPC     C215     CTL2    -0.180000       12.0110           0
     10654 MEMB     74       DOPC     H15R     HAL2     0.900000E-01   1.00800           0
     10655 MEMB     74       DOPC     H15S     HAL2     0.900000E-01   1.00800           0
     10656 MEMB     74       DOPC     C216     CTL2    -0.180000       12.0110           0
     10657 MEMB     74       DOPC     H16R     HAL2     0.900000E-01   1.00800           0
     10658 MEMB     74       DOPC     H16S     HAL2     0.900000E-01   1.00800           0
     10659 MEMB     74       DOPC     C217     CTL2    -0.180000       12.0110           0
     10660 MEMB     74       DOPC     H17R     HAL2     0.900000E-01   1.00800           0
     10661 MEMB     74       DOPC     H17S     HAL2     0.900000E-01   1.00800           0
     10662 MEMB     74       DOPC     C218     CTL3    -0.270000       12.0110           0
     10663 MEMB     74       DOPC     H18R     HAL3     0.900000E-01   1.00800           0
     10664 MEMB     74       DOPC     H18S     HAL3     0.900000E-01   1.00800           0
     10665 MEMB     74       DOPC     H18T     HAL3     0.900000E-01   1.00800           0
     10666 MEMB     74       DOPC     C33      CTL2    -0.180000       12.0110           0
     10667 MEMB     74       DOPC     H3X      HAL2     0.900000E-01   1.00800           0
     10668 MEMB     74       DOPC     H3Y      HAL2     0.900000E-01   1.00800           0
     10669 MEMB     74       DOPC     C34      CTL2    -0.180000       12.0110           0
     10670 MEMB     74       DOPC     H4X      HAL2     0.900000E-01   1.00800           0
     10671 MEMB     74       DOPC     H4Y      HAL2     0.900000E-01   1.00800           0
     10672 MEMB     74       DOPC     C35      CTL2    -0.180000       12.0110           0
     10673 MEMB     74       DOPC     H5X      HAL2     0.900000E-01   1.00800           0
     10674 MEMB     74       DOPC     H5Y      HAL2     0.900000E-01   1.00800           0
     10675 MEMB     74       DOPC     C36      CTL2    -0.180000       12.0110           0
     10676 MEMB     74       DOPC     H6X      HAL2     0.900000E-01   1.00800           0
     10677 MEMB     74       DOPC     H6Y      HAL2     0.900000E-01   1.00800           0
     10678 MEMB     74       DOPC     C37      CTL2    -0.180000       12.0110           0
     10679 MEMB     74       DOPC     H7X      HAL2     0.900000E-01   1.00800           0
     10680 MEMB     74       DOPC     H7Y      HAL2     0.900000E-01   1.00800           0
     10681 MEMB     74       DOPC     C38      CTL2    -0.180000       12.0110           0
     10682 MEMB     74       DOPC     H8X      HAL2     0.900000E-01   1.00800           0
     10683 MEMB     74       DOPC     H8Y      HAL2     0.900000E-01   1.00800           0
     10684 MEMB     74       DOPC     C39      CEL1    -0.150000       12.0110           0
     10685 MEMB     74       DOPC     H9X      HEL1     0.150000       1.00800           0
     10686 MEMB     74       DOPC     C310     CEL1    -0.150000       12.0110           0
     10687 MEMB     74       DOPC     H10X     HEL1     0.150000       1.00800           0
     10688 MEMB     74       DOPC     C311     CTL2    -0.180000       12.0110           0
     10689 MEMB     74       DOPC     H11X     HAL2     0.900000E-01   1.00800           0
     10690 MEMB     74       DOPC     H11Y     HAL2     0.900000E-01   1.00800           0
     10691 MEMB     74       DOPC     C312     CTL2    -0.180000       12.0110           0
     10692 MEMB     74       DOPC     H12X     HAL2     0.900000E-01   1.00800           0
     10693 MEMB     74       DOPC     H12Y     HAL2     0.900000E-01   1.00800           0
     10694 MEMB     74       DOPC     C313     CTL2    -0.180000       12.0110           0
     10695 MEMB     74       DOPC     H13X     HAL2     0.900000E-01   1.00800           0
     10696 MEMB     74       DOPC     H13Y     HAL2     0.900000E-01   1.00800           0
     10697 MEMB     74       DOPC     C314     CTL2    -0.180000       12.0110           0
     10698 MEMB     74       DOPC     H14X     HAL2     0.900000E-01   1.00800           0
     10699 MEMB     74       DOPC     H14Y     HAL2     0.900000E-01   1.00800           0
     10700 MEMB     74       DOPC     C315     CTL2    -0.180000       12.0110           0
     10701 MEMB     74       DOPC     H15X     HAL2     0.900000E-01   1.00800           0
     10702 MEMB     74       DOPC     H15Y     HAL2     0.900000E-01   1.00800           0
     10703 MEMB     74       DOPC     C316     CTL2    -0.180000       12.0110           0
     10704 MEMB     74       DOPC     H16X     HAL2     0.900000E-01   1.00800           0
     10705 MEMB     74       DOPC     H16Y     HAL2     0.900000E-01   1.00800           0
     10706 MEMB     74       DOPC     C317     CTL2    -0.180000       12.0110           0
     10707 MEMB     74       DOPC     H17X     HAL2     0.900000E-01   1.00800           0
     10708 MEMB     74       DOPC     H17Y     HAL2     0.900000E-01   1.00800           0
     10709 MEMB     74       DOPC     C318     CTL3    -0.270000       12.0110           0
     10710 MEMB     74       DOPC     H18X     HAL3     0.900000E-01   1.00800           0
     10711 MEMB     74       DOPC     H18Y     HAL3     0.900000E-01   1.00800           0
     10712 MEMB     74       DOPC     H18Z     HAL3     0.900000E-01   1.00800           0
     10713 MEMB     75       DOPC     N        NTL     -0.600000       14.0070           0
     10714 MEMB     75       DOPC     C12      CTL2    -0.100000       12.0110           0
     10715 MEMB     75       DOPC     H12A     HL       0.250000       1.00800           0
     10716 MEMB     75       DOPC     H12B     HL       0.250000       1.00800           0
     10717 MEMB     75       DOPC     C13      CTL5    -0.350000       12.0110           0
     10718 MEMB     75       DOPC     H13A     HL       0.250000       1.00800           0
     10719 MEMB     75       DOPC     H13B     HL       0.250000       1.00800           0
     10720 MEMB     75       DOPC     H13C     HL       0.250000       1.00800           0
     10721 MEMB     75       DOPC     C14      CTL5    -0.350000       12.0110           0
     10722 MEMB     75       DOPC     H14A     HL       0.250000       1.00800           0
     10723 MEMB     75       DOPC     H14B     HL       0.250000       1.00800           0
     10724 MEMB     75       DOPC     H14C     HL       0.250000       1.00800           0
     10725 MEMB     75       DOPC     C15      CTL5    -0.350000       12.0110           0
     10726 MEMB     75       DOPC     H15A     HL       0.250000       1.00800           0
     10727 MEMB     75       DOPC     H15B     HL       0.250000       1.00800           0
     10728 MEMB     75       DOPC     H15C     HL       0.250000       1.00800           0
     10729 MEMB     75       DOPC     C11      CTL2    -0.800000E-01   12.0110           0
     10730 MEMB     75       DOPC     H11A     HAL2     0.900000E-01   1.00800           0
     10731 MEMB     75       DOPC     H11B     HAL2     0.900000E-01   1.00800           0
     10732 MEMB     75       DOPC     P        PL        1.50000       30.9740           0
     10733 MEMB     75       DOPC     O13      O2L     -0.780000       15.9994           0
     10734 MEMB     75       DOPC     O14      O2L     -0.780000       15.9994           0
     10735 MEMB     75       DOPC     O12      OSLP    -0.570000       15.9994           0
     10736 MEMB     75       DOPC     O11      OSLP    -0.570000       15.9994           0
     10737 MEMB     75       DOPC     C1       CTL2    -0.800000E-01   12.0110           0
     10738 MEMB     75       DOPC     HA       HAL2     0.900000E-01   1.00800           0
     10739 MEMB     75       DOPC     HB       HAL2     0.900000E-01   1.00800           0
     10740 MEMB     75       DOPC     C2       CTL1     0.170000       12.0110           0
     10741 MEMB     75       DOPC     HS       HAL1     0.900000E-01   1.00800           0
     10742 MEMB     75       DOPC     O21      OSL     -0.490000       15.9994           0
     10743 MEMB     75       DOPC     C21      CL       0.900000       12.0110           0
     10744 MEMB     75       DOPC     O22      OBL     -0.630000       15.9994           0
     10745 MEMB     75       DOPC     C22      CTL2    -0.220000       12.0110           0
     10746 MEMB     75       DOPC     H2R      HAL2     0.900000E-01   1.00800           0
     10747 MEMB     75       DOPC     H2S      HAL2     0.900000E-01   1.00800           0
     10748 MEMB     75       DOPC     C3       CTL2     0.800000E-01   12.0110           0
     10749 MEMB     75       DOPC     HX       HAL2     0.900000E-01   1.00800           0
     10750 MEMB     75       DOPC     HY       HAL2     0.900000E-01   1.00800           0
     10751 MEMB     75       DOPC     O31      OSL     -0.490000       15.9994           0
     10752 MEMB     75       DOPC     C31      CL       0.900000       12.0110           0
     10753 MEMB     75       DOPC     O32      OBL     -0.630000       15.9994           0
     10754 MEMB     75       DOPC     C32      CTL2    -0.220000       12.0110           0
     10755 MEMB     75       DOPC     H2X      HAL2     0.900000E-01   1.00800           0
     10756 MEMB     75       DOPC     H2Y      HAL2     0.900000E-01   1.00800           0
     10757 MEMB     75       DOPC     C23      CTL2    -0.180000       12.0110           0
     10758 MEMB     75       DOPC     H3R      HAL2     0.900000E-01   1.00800           0
     10759 MEMB     75       DOPC     H3S      HAL2     0.900000E-01   1.00800           0
     10760 MEMB     75       DOPC     C24      CTL2    -0.180000       12.0110           0
     10761 MEMB     75       DOPC     H4R      HAL2     0.900000E-01   1.00800           0
     10762 MEMB     75       DOPC     H4S      HAL2     0.900000E-01   1.00800           0
     10763 MEMB     75       DOPC     C25      CTL2    -0.180000       12.0110           0
     10764 MEMB     75       DOPC     H5R      HAL2     0.900000E-01   1.00800           0
     10765 MEMB     75       DOPC     H5S      HAL2     0.900000E-01   1.00800           0
     10766 MEMB     75       DOPC     C26      CTL2    -0.180000       12.0110           0
     10767 MEMB     75       DOPC     H6R      HAL2     0.900000E-01   1.00800           0
     10768 MEMB     75       DOPC     H6S      HAL2     0.900000E-01   1.00800           0
     10769 MEMB     75       DOPC     C27      CTL2    -0.180000       12.0110           0
     10770 MEMB     75       DOPC     H7R      HAL2     0.900000E-01   1.00800           0
     10771 MEMB     75       DOPC     H7S      HAL2     0.900000E-01   1.00800           0
     10772 MEMB     75       DOPC     C28      CTL2    -0.180000       12.0110           0
     10773 MEMB     75       DOPC     H8R      HAL2     0.900000E-01   1.00800           0
     10774 MEMB     75       DOPC     H8S      HAL2     0.900000E-01   1.00800           0
     10775 MEMB     75       DOPC     C29      CEL1    -0.150000       12.0110           0
     10776 MEMB     75       DOPC     H9R      HEL1     0.150000       1.00800           0
     10777 MEMB     75       DOPC     C210     CEL1    -0.150000       12.0110           0
     10778 MEMB     75       DOPC     H10R     HEL1     0.150000       1.00800           0
     10779 MEMB     75       DOPC     C211     CTL2    -0.180000       12.0110           0
     10780 MEMB     75       DOPC     H11R     HAL2     0.900000E-01   1.00800           0
     10781 MEMB     75       DOPC     H11S     HAL2     0.900000E-01   1.00800           0
     10782 MEMB     75       DOPC     C212     CTL2    -0.180000       12.0110           0
     10783 MEMB     75       DOPC     H12R     HAL2     0.900000E-01   1.00800           0
     10784 MEMB     75       DOPC     H12S     HAL2     0.900000E-01   1.00800           0
     10785 MEMB     75       DOPC     C213     CTL2    -0.180000       12.0110           0
     10786 MEMB     75       DOPC     H13R     HAL2     0.900000E-01   1.00800           0
     10787 MEMB     75       DOPC     H13S     HAL2     0.900000E-01   1.00800           0
     10788 MEMB     75       DOPC     C214     CTL2    -0.180000       12.0110           0
     10789 MEMB     75       DOPC     H14R     HAL2     0.900000E-01   1.00800           0
     10790 MEMB     75       DOPC     H14S     HAL2     0.900000E-01   1.00800           0
     10791 MEMB     75       DOPC     C215     CTL2    -0.180000       12.0110           0
     10792 MEMB     75       DOPC     H15R     HAL2     0.900000E-01   1.00800           0
     10793 MEMB     75       DOPC     H15S     HAL2     0.900000E-01   1.00800           0
     10794 MEMB     75       DOPC     C216     CTL2    -0.180000       12.0110           0
     10795 MEMB     75       DOPC     H16R     HAL2     0.900000E-01   1.00800           0
     10796 MEMB     75       DOPC     H16S     HAL2     0.900000E-01   1.00800           0
     10797 MEMB     75       DOPC     C217     CTL2    -0.180000       12.0110           0
     10798 MEMB     75       DOPC     H17R     HAL2     0.900000E-01   1.00800           0
     10799 MEMB     75       DOPC     H17S     HAL2     0.900000E-01   1.00800           0
     10800 MEMB     75       DOPC     C218     CTL3    -0.270000       12.0110           0
     10801 MEMB     75       DOPC     H18R     HAL3     0.900000E-01   1.00800           0
     10802 MEMB     75       DOPC     H18S     HAL3     0.900000E-01   1.00800           0
     10803 MEMB     75       DOPC     H18T     HAL3     0.900000E-01   1.00800           0
     10804 MEMB     75       DOPC     C33      CTL2    -0.180000       12.0110           0
     10805 MEMB     75       DOPC     H3X      HAL2     0.900000E-01   1.00800           0
     10806 MEMB     75       DOPC     H3Y      HAL2     0.900000E-01   1.00800           0
     10807 MEMB     75       DOPC     C34      CTL2    -0.180000       12.0110           0
     10808 MEMB     75       DOPC     H4X      HAL2     0.900000E-01   1.00800           0
     10809 MEMB     75       DOPC     H4Y      HAL2     0.900000E-01   1.00800           0
     10810 MEMB     75       DOPC     C35      CTL2    -0.180000       12.0110           0
     10811 MEMB     75       DOPC     H5X      HAL2     0.900000E-01   1.00800           0
     10812 MEMB     75       DOPC     H5Y      HAL2     0.900000E-01   1.00800           0
     10813 MEMB     75       DOPC     C36      CTL2    -0.180000       12.0110           0
     10814 MEMB     75       DOPC     H6X      HAL2     0.900000E-01   1.00800           0
     10815 MEMB     75       DOPC     H6Y      HAL2     0.900000E-01   1.00800           0
     10816 MEMB     75       DOPC     C37      CTL2    -0.180000       12.0110           0
     10817 MEMB     75       DOPC     H7X      HAL2     0.900000E-01   1.00800           0
     10818 MEMB     75       DOPC     H7Y      HAL2     0.900000E-01   1.00800           0
     10819 MEMB     75       DOPC     C38      CTL2    -0.180000       12.0110           0
     10820 MEMB     75       DOPC     H8X      HAL2     0.900000E-01   1.00800           0
     10821 MEMB     75       DOPC     H8Y      HAL2     0.900000E-01   1.00800           0
     10822 MEMB     75       DOPC     C39      CEL1    -0.150000       12.0110           0
     10823 MEMB     75       DOPC     H9X      HEL1     0.150000       1.00800           0
     10824 MEMB     75       DOPC     C310     CEL1    -0.150000       12.0110           0
     10825 MEMB     75       DOPC     H10X     HEL1     0.150000       1.00800           0
     10826 MEMB     75       DOPC     C311     CTL2    -0.180000       12.0110           0
     10827 MEMB     75       DOPC     H11X     HAL2     0.900000E-01   1.00800           0
     10828 MEMB     75       DOPC     H11Y     HAL2     0.900000E-01   1.00800           0
     10829 MEMB     75       DOPC     C312     CTL2    -0.180000       12.0110           0
     10830 MEMB     75       DOPC     H12X     HAL2     0.900000E-01   1.00800           0
     10831 MEMB     75       DOPC     H12Y     HAL2     0.900000E-01   1.00800           0
     10832 MEMB     75       DOPC     C313     CTL2    -0.180000       12.0110           0
     10833 MEMB     75       DOPC     H13X     HAL2     0.900000E-01   1.00800           0
     10834 MEMB     75       DOPC     H13Y     HAL2     0.900000E-01   1.00800           0
     10835 MEMB     75       DOPC     C314     CTL2    -0.180000       12.0110           0
     10836 MEMB     75       DOPC     H14X     HAL2     0.900000E-01   1.00800           0
     10837 MEMB     75       DOPC     H14Y     HAL2     0.900000E-01   1.00800           0
     10838 MEMB     75       DOPC     C315     CTL2    -0.180000       12.0110           0
     10839 MEMB     75       DOPC     H15X     HAL2     0.900000E-01   1.00800           0
     10840 MEMB     75       DOPC     H15Y     HAL2     0.900000E-01   1.00800           0
     10841 MEMB     75       DOPC     C316     CTL2    -0.180000       12.0110           0
     10842 MEMB     75       DOPC     H16X     HAL2     0.900000E-01   1.00800           0
     10843 MEMB     75       DOPC     H16Y     HAL2     0.900000E-01   1.00800           0
     10844 MEMB     75       DOPC     C317     CTL2    -0.180000       12.0110           0
     10845 MEMB     75       DOPC     H17X     HAL2     0.900000E-01   1.00800           0
     10846 MEMB     75       DOPC     H17Y     HAL2     0.900000E-01   1.00800           0
     10847 MEMB     75       DOPC     C318     CTL3    -0.270000       12.0110           0
     10848 MEMB     75       DOPC     H18X     HAL3     0.900000E-01   1.00800           0
     10849 MEMB     75       DOPC     H18Y     HAL3     0.900000E-01   1.00800           0
     10850 MEMB     75       DOPC     H18Z     HAL3     0.900000E-01   1.00800           0
     10851 MEMB     76       DOPC     N        NTL     -0.600000       14.0070           0
     10852 MEMB     76       DOPC     C12      CTL2    -0.100000       12.0110           0
     10853 MEMB     76       DOPC     H12A     HL       0.250000       1.00800           0
     10854 MEMB     76       DOPC     H12B     HL       0.250000       1.00800           0
     10855 MEMB     76       DOPC     C13      CTL5    -0.350000       12.0110           0
     10856 MEMB     76       DOPC     H13A     HL       0.250000       1.00800           0
     10857 MEMB     76       DOPC     H13B     HL       0.250000       1.00800           0
     10858 MEMB     76       DOPC     H13C     HL       0.250000       1.00800           0
     10859 MEMB     76       DOPC     C14      CTL5    -0.350000       12.0110           0
     10860 MEMB     76       DOPC     H14A     HL       0.250000       1.00800           0
     10861 MEMB     76       DOPC     H14B     HL       0.250000       1.00800           0
     10862 MEMB     76       DOPC     H14C     HL       0.250000       1.00800           0
     10863 MEMB     76       DOPC     C15      CTL5    -0.350000       12.0110           0
     10864 MEMB     76       DOPC     H15A     HL       0.250000       1.00800           0
     10865 MEMB     76       DOPC     H15B     HL       0.250000       1.00800           0
     10866 MEMB     76       DOPC     H15C     HL       0.250000       1.00800           0
     10867 MEMB     76       DOPC     C11      CTL2    -0.800000E-01   12.0110           0
     10868 MEMB     76       DOPC     H11A     HAL2     0.900000E-01   1.00800           0
     10869 MEMB     76       DOPC     H11B     HAL2     0.900000E-01   1.00800           0
     10870 MEMB     76       DOPC     P        PL        1.50000       30.9740           0
     10871 MEMB     76       DOPC     O13      O2L     -0.780000       15.9994           0
     10872 MEMB     76       DOPC     O14      O2L     -0.780000       15.9994           0
     10873 MEMB     76       DOPC     O12      OSLP    -0.570000       15.9994           0
     10874 MEMB     76       DOPC     O11      OSLP    -0.570000       15.9994           0
     10875 MEMB     76       DOPC     C1       CTL2    -0.800000E-01   12.0110           0
     10876 MEMB     76       DOPC     HA       HAL2     0.900000E-01   1.00800           0
     10877 MEMB     76       DOPC     HB       HAL2     0.900000E-01   1.00800           0
     10878 MEMB     76       DOPC     C2       CTL1     0.170000       12.0110           0
     10879 MEMB     76       DOPC     HS       HAL1     0.900000E-01   1.00800           0
     10880 MEMB     76       DOPC     O21      OSL     -0.490000       15.9994           0
     10881 MEMB     76       DOPC     C21      CL       0.900000       12.0110           0
     10882 MEMB     76       DOPC     O22      OBL     -0.630000       15.9994           0
     10883 MEMB     76       DOPC     C22      CTL2    -0.220000       12.0110           0
     10884 MEMB     76       DOPC     H2R      HAL2     0.900000E-01   1.00800           0
     10885 MEMB     76       DOPC     H2S      HAL2     0.900000E-01   1.00800           0
     10886 MEMB     76       DOPC     C3       CTL2     0.800000E-01   12.0110           0
     10887 MEMB     76       DOPC     HX       HAL2     0.900000E-01   1.00800           0
     10888 MEMB     76       DOPC     HY       HAL2     0.900000E-01   1.00800           0
     10889 MEMB     76       DOPC     O31      OSL     -0.490000       15.9994           0
     10890 MEMB     76       DOPC     C31      CL       0.900000       12.0110           0
     10891 MEMB     76       DOPC     O32      OBL     -0.630000       15.9994           0
     10892 MEMB     76       DOPC     C32      CTL2    -0.220000       12.0110           0
     10893 MEMB     76       DOPC     H2X      HAL2     0.900000E-01   1.00800           0
     10894 MEMB     76       DOPC     H2Y      HAL2     0.900000E-01   1.00800           0
     10895 MEMB     76       DOPC     C23      CTL2    -0.180000       12.0110           0
     10896 MEMB     76       DOPC     H3R      HAL2     0.900000E-01   1.00800           0
     10897 MEMB     76       DOPC     H3S      HAL2     0.900000E-01   1.00800           0
     10898 MEMB     76       DOPC     C24      CTL2    -0.180000       12.0110           0
     10899 MEMB     76       DOPC     H4R      HAL2     0.900000E-01   1.00800           0
     10900 MEMB     76       DOPC     H4S      HAL2     0.900000E-01   1.00800           0
     10901 MEMB     76       DOPC     C25      CTL2    -0.180000       12.0110           0
     10902 MEMB     76       DOPC     H5R      HAL2     0.900000E-01   1.00800           0
     10903 MEMB     76       DOPC     H5S      HAL2     0.900000E-01   1.00800           0
     10904 MEMB     76       DOPC     C26      CTL2    -0.180000       12.0110           0
     10905 MEMB     76       DOPC     H6R      HAL2     0.900000E-01   1.00800           0
     10906 MEMB     76       DOPC     H6S      HAL2     0.900000E-01   1.00800           0
     10907 MEMB     76       DOPC     C27      CTL2    -0.180000       12.0110           0
     10908 MEMB     76       DOPC     H7R      HAL2     0.900000E-01   1.00800           0
     10909 MEMB     76       DOPC     H7S      HAL2     0.900000E-01   1.00800           0
     10910 MEMB     76       DOPC     C28      CTL2    -0.180000       12.0110           0
     10911 MEMB     76       DOPC     H8R      HAL2     0.900000E-01   1.00800           0
     10912 MEMB     76       DOPC     H8S      HAL2     0.900000E-01   1.00800           0
     10913 MEMB     76       DOPC     C29      CEL1    -0.150000       12.0110           0
     10914 MEMB     76       DOPC     H9R      HEL1     0.150000       1.00800           0
     10915 MEMB     76       DOPC     C210     CEL1    -0.150000       12.0110           0
     10916 MEMB     76       DOPC     H10R     HEL1     0.150000       1.00800           0
     10917 MEMB     76       DOPC     C211     CTL2    -0.180000       12.0110           0
     10918 MEMB     76       DOPC     H11R     HAL2     0.900000E-01   1.00800           0
     10919 MEMB     76       DOPC     H11S     HAL2     0.900000E-01   1.00800           0
     10920 MEMB     76       DOPC     C212     CTL2    -0.180000       12.0110           0
     10921 MEMB     76       DOPC     H12R     HAL2     0.900000E-01   1.00800           0
     10922 MEMB     76       DOPC     H12S     HAL2     0.900000E-01   1.00800           0
     10923 MEMB     76       DOPC     C213     CTL2    -0.180000       12.0110           0
     10924 MEMB     76       DOPC     H13R     HAL2     0.900000E-01   1.00800           0
     10925 MEMB     76       DOPC     H13S     HAL2     0.900000E-01   1.00800           0
     10926 MEMB     76       DOPC     C214     CTL2    -0.180000       12.0110           0
     10927 MEMB     76       DOPC     H14R     HAL2     0.900000E-01   1.00800           0
     10928 MEMB     76       DOPC     H14S     HAL2     0.900000E-01   1.00800           0
     10929 MEMB     76       DOPC     C215     CTL2    -0.180000       12.0110           0
     10930 MEMB     76       DOPC     H15R     HAL2     0.900000E-01   1.00800           0
     10931 MEMB     76       DOPC     H15S     HAL2     0.900000E-01   1.00800           0
     10932 MEMB     76       DOPC     C216     CTL2    -0.180000       12.0110           0
     10933 MEMB     76       DOPC     H16R     HAL2     0.900000E-01   1.00800           0
     10934 MEMB     76       DOPC     H16S     HAL2     0.900000E-01   1.00800           0
     10935 MEMB     76       DOPC     C217     CTL2    -0.180000       12.0110           0
     10936 MEMB     76       DOPC     H17R     HAL2     0.900000E-01   1.00800           0
     10937 MEMB     76       DOPC     H17S     HAL2     0.900000E-01   1.00800           0
     10938 MEMB     76       DOPC     C218     CTL3    -0.270000       12.0110           0
     10939 MEMB     76       DOPC     H18R     HAL3     0.900000E-01   1.00800           0
     10940 MEMB     76       DOPC     H18S     HAL3     0.900000E-01   1.00800           0
     10941 MEMB     76       DOPC     H18T     HAL3     0.900000E-01   1.00800           0
     10942 MEMB     76       DOPC     C33      CTL2    -0.180000       12.0110           0
     10943 MEMB     76       DOPC     H3X      HAL2     0.900000E-01   1.00800           0
     10944 MEMB     76       DOPC     H3Y      HAL2     0.900000E-01   1.00800           0
     10945 MEMB     76       DOPC     C34      CTL2    -0.180000       12.0110           0
     10946 MEMB     76       DOPC     H4X      HAL2     0.900000E-01   1.00800           0
     10947 MEMB     76       DOPC     H4Y      HAL2     0.900000E-01   1.00800           0
     10948 MEMB     76       DOPC     C35      CTL2    -0.180000       12.0110           0
     10949 MEMB     76       DOPC     H5X      HAL2     0.900000E-01   1.00800           0
     10950 MEMB     76       DOPC     H5Y      HAL2     0.900000E-01   1.00800           0
     10951 MEMB     76       DOPC     C36      CTL2    -0.180000       12.0110           0
     10952 MEMB     76       DOPC     H6X      HAL2     0.900000E-01   1.00800           0
     10953 MEMB     76       DOPC     H6Y      HAL2     0.900000E-01   1.00800           0
     10954 MEMB     76       DOPC     C37      CTL2    -0.180000       12.0110           0
     10955 MEMB     76       DOPC     H7X      HAL2     0.900000E-01   1.00800           0
     10956 MEMB     76       DOPC     H7Y      HAL2     0.900000E-01   1.00800           0
     10957 MEMB     76       DOPC     C38      CTL2    -0.180000       12.0110           0
     10958 MEMB     76       DOPC     H8X      HAL2     0.900000E-01   1.00800           0
     10959 MEMB     76       DOPC     H8Y      HAL2     0.900000E-01   1.00800           0
     10960 MEMB     76       DOPC     C39      CEL1    -0.150000       12.0110           0
     10961 MEMB     76       DOPC     H9X      HEL1     0.150000       1.00800           0
     10962 MEMB     76       DOPC     C310     CEL1    -0.150000       12.0110           0
     10963 MEMB     76       DOPC     H10X     HEL1     0.150000       1.00800           0
     10964 MEMB     76       DOPC     C311     CTL2    -0.180000       12.0110           0
     10965 MEMB     76       DOPC     H11X     HAL2     0.900000E-01   1.00800           0
     10966 MEMB     76       DOPC     H11Y     HAL2     0.900000E-01   1.00800           0
     10967 MEMB     76       DOPC     C312     CTL2    -0.180000       12.0110           0
     10968 MEMB     76       DOPC     H12X     HAL2     0.900000E-01   1.00800           0
     10969 MEMB     76       DOPC     H12Y     HAL2     0.900000E-01   1.00800           0
     10970 MEMB     76       DOPC     C313     CTL2    -0.180000       12.0110           0
     10971 MEMB     76       DOPC     H13X     HAL2     0.900000E-01   1.00800           0
     10972 MEMB     76       DOPC     H13Y     HAL2     0.900000E-01   1.00800           0
     10973 MEMB     76       DOPC     C314     CTL2    -0.180000       12.0110           0
     10974 MEMB     76       DOPC     H14X     HAL2     0.900000E-01   1.00800           0
     10975 MEMB     76       DOPC     H14Y     HAL2     0.900000E-01   1.00800           0
     10976 MEMB     76       DOPC     C315     CTL2    -0.180000       12.0110           0
     10977 MEMB     76       DOPC     H15X     HAL2     0.900000E-01   1.00800           0
     10978 MEMB     76       DOPC     H15Y     HAL2     0.900000E-01   1.00800           0
     10979 MEMB     76       DOPC     C316     CTL2    -0.180000       12.0110           0
     10980 MEMB     76       DOPC     H16X     HAL2     0.900000E-01   1.00800           0
     10981 MEMB     76       DOPC     H16Y     HAL2     0.900000E-01   1.00800           0
     10982 MEMB     76       DOPC     C317     CTL2    -0.180000       12.0110           0
     10983 MEMB     76       DOPC     H17X     HAL2     0.900000E-01   1.00800           0
     10984 MEMB     76       DOPC     H17Y     HAL2     0.900000E-01   1.00800           0
     10985 MEMB     76       DOPC     C318     CTL3    -0.270000       12.0110           0
     10986 MEMB     76       DOPC     H18X     HAL3     0.900000E-01   1.00800           0
     10987 MEMB     76       DOPC     H18Y     HAL3     0.900000E-01   1.00800           0
     10988 MEMB     76       DOPC     H18Z     HAL3     0.900000E-01   1.00800           0
     10989 MEMB     77       DOPC     N        NTL     -0.600000       14.0070           0
     10990 MEMB     77       DOPC     C12      CTL2    -0.100000       12.0110           0
     10991 MEMB     77       DOPC     H12A     HL       0.250000       1.00800           0
     10992 MEMB     77       DOPC     H12B     HL       0.250000       1.00800           0
     10993 MEMB     77       DOPC     C13      CTL5    -0.350000       12.0110           0
     10994 MEMB     77       DOPC     H13A     HL       0.250000       1.00800           0
     10995 MEMB     77       DOPC     H13B     HL       0.250000       1.00800           0
     10996 MEMB     77       DOPC     H13C     HL       0.250000       1.00800           0
     10997 MEMB     77       DOPC     C14      CTL5    -0.350000       12.0110           0
     10998 MEMB     77       DOPC     H14A     HL       0.250000       1.00800           0
     10999 MEMB     77       DOPC     H14B     HL       0.250000       1.00800           0
     11000 MEMB     77       DOPC     H14C     HL       0.250000       1.00800           0
     11001 MEMB     77       DOPC     C15      CTL5    -0.350000       12.0110           0
     11002 MEMB     77       DOPC     H15A     HL       0.250000       1.00800           0
     11003 MEMB     77       DOPC     H15B     HL       0.250000       1.00800           0
     11004 MEMB     77       DOPC     H15C     HL       0.250000       1.00800           0
     11005 MEMB     77       DOPC     C11      CTL2    -0.800000E-01   12.0110           0
     11006 MEMB     77       DOPC     H11A     HAL2     0.900000E-01   1.00800           0
     11007 MEMB     77       DOPC     H11B     HAL2     0.900000E-01   1.00800           0
     11008 MEMB     77       DOPC     P        PL        1.50000       30.9740           0
     11009 MEMB     77       DOPC     O13      O2L     -0.780000       15.9994           0
     11010 MEMB     77       DOPC     O14      O2L     -0.780000       15.9994           0
     11011 MEMB     77       DOPC     O12      OSLP    -0.570000       15.9994           0
     11012 MEMB     77       DOPC     O11      OSLP    -0.570000       15.9994           0
     11013 MEMB     77       DOPC     C1       CTL2    -0.800000E-01   12.0110           0
     11014 MEMB     77       DOPC     HA       HAL2     0.900000E-01   1.00800           0
     11015 MEMB     77       DOPC     HB       HAL2     0.900000E-01   1.00800           0
     11016 MEMB     77       DOPC     C2       CTL1     0.170000       12.0110           0
     11017 MEMB     77       DOPC     HS       HAL1     0.900000E-01   1.00800           0
     11018 MEMB     77       DOPC     O21      OSL     -0.490000       15.9994           0
     11019 MEMB     77       DOPC     C21      CL       0.900000       12.0110           0
     11020 MEMB     77       DOPC     O22      OBL     -0.630000       15.9994           0
     11021 MEMB     77       DOPC     C22      CTL2    -0.220000       12.0110           0
     11022 MEMB     77       DOPC     H2R      HAL2     0.900000E-01   1.00800           0
     11023 MEMB     77       DOPC     H2S      HAL2     0.900000E-01   1.00800           0
     11024 MEMB     77       DOPC     C3       CTL2     0.800000E-01   12.0110           0
     11025 MEMB     77       DOPC     HX       HAL2     0.900000E-01   1.00800           0
     11026 MEMB     77       DOPC     HY       HAL2     0.900000E-01   1.00800           0
     11027 MEMB     77       DOPC     O31      OSL     -0.490000       15.9994           0
     11028 MEMB     77       DOPC     C31      CL       0.900000       12.0110           0
     11029 MEMB     77       DOPC     O32      OBL     -0.630000       15.9994           0
     11030 MEMB     77       DOPC     C32      CTL2    -0.220000       12.0110           0
     11031 MEMB     77       DOPC     H2X      HAL2     0.900000E-01   1.00800           0
     11032 MEMB     77       DOPC     H2Y      HAL2     0.900000E-01   1.00800           0
     11033 MEMB     77       DOPC     C23      CTL2    -0.180000       12.0110           0
     11034 MEMB     77       DOPC     H3R      HAL2     0.900000E-01   1.00800           0
     11035 MEMB     77       DOPC     H3S      HAL2     0.900000E-01   1.00800           0
     11036 MEMB     77       DOPC     C24      CTL2    -0.180000       12.0110           0
     11037 MEMB     77       DOPC     H4R      HAL2     0.900000E-01   1.00800           0
     11038 MEMB     77       DOPC     H4S      HAL2     0.900000E-01   1.00800           0
     11039 MEMB     77       DOPC     C25      CTL2    -0.180000       12.0110           0
     11040 MEMB     77       DOPC     H5R      HAL2     0.900000E-01   1.00800           0
     11041 MEMB     77       DOPC     H5S      HAL2     0.900000E-01   1.00800           0
     11042 MEMB     77       DOPC     C26      CTL2    -0.180000       12.0110           0
     11043 MEMB     77       DOPC     H6R      HAL2     0.900000E-01   1.00800           0
     11044 MEMB     77       DOPC     H6S      HAL2     0.900000E-01   1.00800           0
     11045 MEMB     77       DOPC     C27      CTL2    -0.180000       12.0110           0
     11046 MEMB     77       DOPC     H7R      HAL2     0.900000E-01   1.00800           0
     11047 MEMB     77       DOPC     H7S      HAL2     0.900000E-01   1.00800           0
     11048 MEMB     77       DOPC     C28      CTL2    -0.180000       12.0110           0
     11049 MEMB     77       DOPC     H8R      HAL2     0.900000E-01   1.00800           0
     11050 MEMB     77       DOPC     H8S      HAL2     0.900000E-01   1.00800           0
     11051 MEMB     77       DOPC     C29      CEL1    -0.150000       12.0110           0
     11052 MEMB     77       DOPC     H9R      HEL1     0.150000       1.00800           0
     11053 MEMB     77       DOPC     C210     CEL1    -0.150000       12.0110           0
     11054 MEMB     77       DOPC     H10R     HEL1     0.150000       1.00800           0
     11055 MEMB     77       DOPC     C211     CTL2    -0.180000       12.0110           0
     11056 MEMB     77       DOPC     H11R     HAL2     0.900000E-01   1.00800           0
     11057 MEMB     77       DOPC     H11S     HAL2     0.900000E-01   1.00800           0
     11058 MEMB     77       DOPC     C212     CTL2    -0.180000       12.0110           0
     11059 MEMB     77       DOPC     H12R     HAL2     0.900000E-01   1.00800           0
     11060 MEMB     77       DOPC     H12S     HAL2     0.900000E-01   1.00800           0
     11061 MEMB     77       DOPC     C213     CTL2    -0.180000       12.0110           0
     11062 MEMB     77       DOPC     H13R     HAL2     0.900000E-01   1.00800           0
     11063 MEMB     77       DOPC     H13S     HAL2     0.900000E-01   1.00800           0
     11064 MEMB     77       DOPC     C214     CTL2    -0.180000       12.0110           0
     11065 MEMB     77       DOPC     H14R     HAL2     0.900000E-01   1.00800           0
     11066 MEMB     77       DOPC     H14S     HAL2     0.900000E-01   1.00800           0
     11067 MEMB     77       DOPC     C215     CTL2    -0.180000       12.0110           0
     11068 MEMB     77       DOPC     H15R     HAL2     0.900000E-01   1.00800           0
     11069 MEMB     77       DOPC     H15S     HAL2     0.900000E-01   1.00800           0
     11070 MEMB     77       DOPC     C216     CTL2    -0.180000       12.0110           0
     11071 MEMB     77       DOPC     H16R     HAL2     0.900000E-01   1.00800           0
     11072 MEMB     77       DOPC     H16S     HAL2     0.900000E-01   1.00800           0
     11073 MEMB     77       DOPC     C217     CTL2    -0.180000       12.0110           0
     11074 MEMB     77       DOPC     H17R     HAL2     0.900000E-01   1.00800           0
     11075 MEMB     77       DOPC     H17S     HAL2     0.900000E-01   1.00800           0
     11076 MEMB     77       DOPC     C218     CTL3    -0.270000       12.0110           0
     11077 MEMB     77       DOPC     H18R     HAL3     0.900000E-01   1.00800           0
     11078 MEMB     77       DOPC     H18S     HAL3     0.900000E-01   1.00800           0
     11079 MEMB     77       DOPC     H18T     HAL3     0.900000E-01   1.00800           0
     11080 MEMB     77       DOPC     C33      CTL2    -0.180000       12.0110           0
     11081 MEMB     77       DOPC     H3X      HAL2     0.900000E-01   1.00800           0
     11082 MEMB     77       DOPC     H3Y      HAL2     0.900000E-01   1.00800           0
     11083 MEMB     77       DOPC     C34      CTL2    -0.180000       12.0110           0
     11084 MEMB     77       DOPC     H4X      HAL2     0.900000E-01   1.00800           0
     11085 MEMB     77       DOPC     H4Y      HAL2     0.900000E-01   1.00800           0
     11086 MEMB     77       DOPC     C35      CTL2    -0.180000       12.0110           0
     11087 MEMB     77       DOPC     H5X      HAL2     0.900000E-01   1.00800           0
     11088 MEMB     77       DOPC     H5Y      HAL2     0.900000E-01   1.00800           0
     11089 MEMB     77       DOPC     C36      CTL2    -0.180000       12.0110           0
     11090 MEMB     77       DOPC     H6X      HAL2     0.900000E-01   1.00800           0
     11091 MEMB     77       DOPC     H6Y      HAL2     0.900000E-01   1.00800           0
     11092 MEMB     77       DOPC     C37      CTL2    -0.180000       12.0110           0
     11093 MEMB     77       DOPC     H7X      HAL2     0.900000E-01   1.00800           0
     11094 MEMB     77       DOPC     H7Y      HAL2     0.900000E-01   1.00800           0
     11095 MEMB     77       DOPC     C38      CTL2    -0.180000       12.0110           0
     11096 MEMB     77       DOPC     H8X      HAL2     0.900000E-01   1.00800           0
     11097 MEMB     77       DOPC     H8Y      HAL2     0.900000E-01   1.00800           0
     11098 MEMB     77       DOPC     C39      CEL1    -0.150000       12.0110           0
     11099 MEMB     77       DOPC     H9X      HEL1     0.150000       1.00800           0
     11100 MEMB     77       DOPC     C310     CEL1    -0.150000       12.0110           0
     11101 MEMB     77       DOPC     H10X     HEL1     0.150000       1.00800           0
     11102 MEMB     77       DOPC     C311     CTL2    -0.180000       12.0110           0
     11103 MEMB     77       DOPC     H11X     HAL2     0.900000E-01   1.00800           0
     11104 MEMB     77       DOPC     H11Y     HAL2     0.900000E-01   1.00800           0
     11105 MEMB     77       DOPC     C312     CTL2    -0.180000       12.0110           0
     11106 MEMB     77       DOPC     H12X     HAL2     0.900000E-01   1.00800           0
     11107 MEMB     77       DOPC     H12Y     HAL2     0.900000E-01   1.00800           0
     11108 MEMB     77       DOPC     C313     CTL2    -0.180000       12.0110           0
     11109 MEMB     77       DOPC     H13X     HAL2     0.900000E-01   1.00800           0
     11110 MEMB     77       DOPC     H13Y     HAL2     0.900000E-01   1.00800           0
     11111 MEMB     77       DOPC     C314     CTL2    -0.180000       12.0110           0
     11112 MEMB     77       DOPC     H14X     HAL2     0.900000E-01   1.00800           0
     11113 MEMB     77       DOPC     H14Y     HAL2     0.900000E-01   1.00800           0
     11114 MEMB     77       DOPC     C315     CTL2    -0.180000       12.0110           0
     11115 MEMB     77       DOPC     H15X     HAL2     0.900000E-01   1.00800           0
     11116 MEMB     77       DOPC     H15Y     HAL2     0.900000E-01   1.00800           0
     11117 MEMB     77       DOPC     C316     CTL2    -0.180000       12.0110           0
     11118 MEMB     77       DOPC     H16X     HAL2     0.900000E-01   1.00800           0
     11119 MEMB     77       DOPC     H16Y     HAL2     0.900000E-01   1.00800           0
     11120 MEMB     77       DOPC     C317     CTL2    -0.180000       12.0110           0
     11121 MEMB     77       DOPC     H17X     HAL2     0.900000E-01   1.00800           0
     11122 MEMB     77       DOPC     H17Y     HAL2     0.900000E-01   1.00800           0
     11123 MEMB     77       DOPC     C318     CTL3    -0.270000       12.0110           0
     11124 MEMB     77       DOPC     H18X     HAL3     0.900000E-01   1.00800           0
     11125 MEMB     77       DOPC     H18Y     HAL3     0.900000E-01   1.00800           0
     11126 MEMB     77       DOPC     H18Z     HAL3     0.900000E-01   1.00800           0
     11127 MEMB     78       DOPC     N        NTL     -0.600000       14.0070           0
     11128 MEMB     78       DOPC     C12      CTL2    -0.100000       12.0110           0
     11129 MEMB     78       DOPC     H12A     HL       0.250000       1.00800           0
     11130 MEMB     78       DOPC     H12B     HL       0.250000       1.00800           0
     11131 MEMB     78       DOPC     C13      CTL5    -0.350000       12.0110           0
     11132 MEMB     78       DOPC     H13A     HL       0.250000       1.00800           0
     11133 MEMB     78       DOPC     H13B     HL       0.250000       1.00800           0
     11134 MEMB     78       DOPC     H13C     HL       0.250000       1.00800           0
     11135 MEMB     78       DOPC     C14      CTL5    -0.350000       12.0110           0
     11136 MEMB     78       DOPC     H14A     HL       0.250000       1.00800           0
     11137 MEMB     78       DOPC     H14B     HL       0.250000       1.00800           0
     11138 MEMB     78       DOPC     H14C     HL       0.250000       1.00800           0
     11139 MEMB     78       DOPC     C15      CTL5    -0.350000       12.0110           0
     11140 MEMB     78       DOPC     H15A     HL       0.250000       1.00800           0
     11141 MEMB     78       DOPC     H15B     HL       0.250000       1.00800           0
     11142 MEMB     78       DOPC     H15C     HL       0.250000       1.00800           0
     11143 MEMB     78       DOPC     C11      CTL2    -0.800000E-01   12.0110           0
     11144 MEMB     78       DOPC     H11A     HAL2     0.900000E-01   1.00800           0
     11145 MEMB     78       DOPC     H11B     HAL2     0.900000E-01   1.00800           0
     11146 MEMB     78       DOPC     P        PL        1.50000       30.9740           0
     11147 MEMB     78       DOPC     O13      O2L     -0.780000       15.9994           0
     11148 MEMB     78       DOPC     O14      O2L     -0.780000       15.9994           0
     11149 MEMB     78       DOPC     O12      OSLP    -0.570000       15.9994           0
     11150 MEMB     78       DOPC     O11      OSLP    -0.570000       15.9994           0
     11151 MEMB     78       DOPC     C1       CTL2    -0.800000E-01   12.0110           0
     11152 MEMB     78       DOPC     HA       HAL2     0.900000E-01   1.00800           0
     11153 MEMB     78       DOPC     HB       HAL2     0.900000E-01   1.00800           0
     11154 MEMB     78       DOPC     C2       CTL1     0.170000       12.0110           0
     11155 MEMB     78       DOPC     HS       HAL1     0.900000E-01   1.00800           0
     11156 MEMB     78       DOPC     O21      OSL     -0.490000       15.9994           0
     11157 MEMB     78       DOPC     C21      CL       0.900000       12.0110           0
     11158 MEMB     78       DOPC     O22      OBL     -0.630000       15.9994           0
     11159 MEMB     78       DOPC     C22      CTL2    -0.220000       12.0110           0
     11160 MEMB     78       DOPC     H2R      HAL2     0.900000E-01   1.00800           0
     11161 MEMB     78       DOPC     H2S      HAL2     0.900000E-01   1.00800           0
     11162 MEMB     78       DOPC     C3       CTL2     0.800000E-01   12.0110           0
     11163 MEMB     78       DOPC     HX       HAL2     0.900000E-01   1.00800           0
     11164 MEMB     78       DOPC     HY       HAL2     0.900000E-01   1.00800           0
     11165 MEMB     78       DOPC     O31      OSL     -0.490000       15.9994           0
     11166 MEMB     78       DOPC     C31      CL       0.900000       12.0110           0
     11167 MEMB     78       DOPC     O32      OBL     -0.630000       15.9994           0
     11168 MEMB     78       DOPC     C32      CTL2    -0.220000       12.0110           0
     11169 MEMB     78       DOPC     H2X      HAL2     0.900000E-01   1.00800           0
     11170 MEMB     78       DOPC     H2Y      HAL2     0.900000E-01   1.00800           0
     11171 MEMB     78       DOPC     C23      CTL2    -0.180000       12.0110           0
     11172 MEMB     78       DOPC     H3R      HAL2     0.900000E-01   1.00800           0
     11173 MEMB     78       DOPC     H3S      HAL2     0.900000E-01   1.00800           0
     11174 MEMB     78       DOPC     C24      CTL2    -0.180000       12.0110           0
     11175 MEMB     78       DOPC     H4R      HAL2     0.900000E-01   1.00800           0
     11176 MEMB     78       DOPC     H4S      HAL2     0.900000E-01   1.00800           0
     11177 MEMB     78       DOPC     C25      CTL2    -0.180000       12.0110           0
     11178 MEMB     78       DOPC     H5R      HAL2     0.900000E-01   1.00800           0
     11179 MEMB     78       DOPC     H5S      HAL2     0.900000E-01   1.00800           0
     11180 MEMB     78       DOPC     C26      CTL2    -0.180000       12.0110           0
     11181 MEMB     78       DOPC     H6R      HAL2     0.900000E-01   1.00800           0
     11182 MEMB     78       DOPC     H6S      HAL2     0.900000E-01   1.00800           0
     11183 MEMB     78       DOPC     C27      CTL2    -0.180000       12.0110           0
     11184 MEMB     78       DOPC     H7R      HAL2     0.900000E-01   1.00800           0
     11185 MEMB     78       DOPC     H7S      HAL2     0.900000E-01   1.00800           0
     11186 MEMB     78       DOPC     C28      CTL2    -0.180000       12.0110           0
     11187 MEMB     78       DOPC     H8R      HAL2     0.900000E-01   1.00800           0
     11188 MEMB     78       DOPC     H8S      HAL2     0.900000E-01   1.00800           0
     11189 MEMB     78       DOPC     C29      CEL1    -0.150000       12.0110           0
     11190 MEMB     78       DOPC     H9R      HEL1     0.150000       1.00800           0
     11191 MEMB     78       DOPC     C210     CEL1    -0.150000       12.0110           0
     11192 MEMB     78       DOPC     H10R     HEL1     0.150000       1.00800           0
     11193 MEMB     78       DOPC     C211     CTL2    -0.180000       12.0110           0
     11194 MEMB     78       DOPC     H11R     HAL2     0.900000E-01   1.00800           0
     11195 MEMB     78       DOPC     H11S     HAL2     0.900000E-01   1.00800           0
     11196 MEMB     78       DOPC     C212     CTL2    -0.180000       12.0110           0
     11197 MEMB     78       DOPC     H12R     HAL2     0.900000E-01   1.00800           0
     11198 MEMB     78       DOPC     H12S     HAL2     0.900000E-01   1.00800           0
     11199 MEMB     78       DOPC     C213     CTL2    -0.180000       12.0110           0
     11200 MEMB     78       DOPC     H13R     HAL2     0.900000E-01   1.00800           0
     11201 MEMB     78       DOPC     H13S     HAL2     0.900000E-01   1.00800           0
     11202 MEMB     78       DOPC     C214     CTL2    -0.180000       12.0110           0
     11203 MEMB     78       DOPC     H14R     HAL2     0.900000E-01   1.00800           0
     11204 MEMB     78       DOPC     H14S     HAL2     0.900000E-01   1.00800           0
     11205 MEMB     78       DOPC     C215     CTL2    -0.180000       12.0110           0
     11206 MEMB     78       DOPC     H15R     HAL2     0.900000E-01   1.00800           0
     11207 MEMB     78       DOPC     H15S     HAL2     0.900000E-01   1.00800           0
     11208 MEMB     78       DOPC     C216     CTL2    -0.180000       12.0110           0
     11209 MEMB     78       DOPC     H16R     HAL2     0.900000E-01   1.00800           0
     11210 MEMB     78       DOPC     H16S     HAL2     0.900000E-01   1.00800           0
     11211 MEMB     78       DOPC     C217     CTL2    -0.180000       12.0110           0
     11212 MEMB     78       DOPC     H17R     HAL2     0.900000E-01   1.00800           0
     11213 MEMB     78       DOPC     H17S     HAL2     0.900000E-01   1.00800           0
     11214 MEMB     78       DOPC     C218     CTL3    -0.270000       12.0110           0
     11215 MEMB     78       DOPC     H18R     HAL3     0.900000E-01   1.00800           0
     11216 MEMB     78       DOPC     H18S     HAL3     0.900000E-01   1.00800           0
     11217 MEMB     78       DOPC     H18T     HAL3     0.900000E-01   1.00800           0
     11218 MEMB     78       DOPC     C33      CTL2    -0.180000       12.0110           0
     11219 MEMB     78       DOPC     H3X      HAL2     0.900000E-01   1.00800           0
     11220 MEMB     78       DOPC     H3Y      HAL2     0.900000E-01   1.00800           0
     11221 MEMB     78       DOPC     C34      CTL2    -0.180000       12.0110           0
     11222 MEMB     78       DOPC     H4X      HAL2     0.900000E-01   1.00800           0
     11223 MEMB     78       DOPC     H4Y      HAL2     0.900000E-01   1.00800           0
     11224 MEMB     78       DOPC     C35      CTL2    -0.180000       12.0110           0
     11225 MEMB     78       DOPC     H5X      HAL2     0.900000E-01   1.00800           0
     11226 MEMB     78       DOPC     H5Y      HAL2     0.900000E-01   1.00800           0
     11227 MEMB     78       DOPC     C36      CTL2    -0.180000       12.0110           0
     11228 MEMB     78       DOPC     H6X      HAL2     0.900000E-01   1.00800           0
     11229 MEMB     78       DOPC     H6Y      HAL2     0.900000E-01   1.00800           0
     11230 MEMB     78       DOPC     C37      CTL2    -0.180000       12.0110           0
     11231 MEMB     78       DOPC     H7X      HAL2     0.900000E-01   1.00800           0
     11232 MEMB     78       DOPC     H7Y      HAL2     0.900000E-01   1.00800           0
     11233 MEMB     78       DOPC     C38      CTL2    -0.180000       12.0110           0
     11234 MEMB     78       DOPC     H8X      HAL2     0.900000E-01   1.00800           0
     11235 MEMB     78       DOPC     H8Y      HAL2     0.900000E-01   1.00800           0
     11236 MEMB     78       DOPC     C39      CEL1    -0.150000       12.0110           0
     11237 MEMB     78       DOPC     H9X      HEL1     0.150000       1.00800           0
     11238 MEMB     78       DOPC     C310     CEL1    -0.150000       12.0110           0
     11239 MEMB     78       DOPC     H10X     HEL1     0.150000       1.00800           0
     11240 MEMB     78       DOPC     C311     CTL2    -0.180000       12.0110           0
     11241 MEMB     78       DOPC     H11X     HAL2     0.900000E-01   1.00800           0
     11242 MEMB     78       DOPC     H11Y     HAL2     0.900000E-01   1.00800           0
     11243 MEMB     78       DOPC     C312     CTL2    -0.180000       12.0110           0
     11244 MEMB     78       DOPC     H12X     HAL2     0.900000E-01   1.00800           0
     11245 MEMB     78       DOPC     H12Y     HAL2     0.900000E-01   1.00800           0
     11246 MEMB     78       DOPC     C313     CTL2    -0.180000       12.0110           0
     11247 MEMB     78       DOPC     H13X     HAL2     0.900000E-01   1.00800           0
     11248 MEMB     78       DOPC     H13Y     HAL2     0.900000E-01   1.00800           0
     11249 MEMB     78       DOPC     C314     CTL2    -0.180000       12.0110           0
     11250 MEMB     78       DOPC     H14X     HAL2     0.900000E-01   1.00800           0
     11251 MEMB     78       DOPC     H14Y     HAL2     0.900000E-01   1.00800           0
     11252 MEMB     78       DOPC     C315     CTL2    -0.180000       12.0110           0
     11253 MEMB     78       DOPC     H15X     HAL2     0.900000E-01   1.00800           0
     11254 MEMB     78       DOPC     H15Y     HAL2     0.900000E-01   1.00800           0
     11255 MEMB     78       DOPC     C316     CTL2    -0.180000       12.0110           0
     11256 MEMB     78       DOPC     H16X     HAL2     0.900000E-01   1.00800           0
     11257 MEMB     78       DOPC     H16Y     HAL2     0.900000E-01   1.00800           0
     11258 MEMB     78       DOPC     C317     CTL2    -0.180000       12.0110           0
     11259 MEMB     78       DOPC     H17X     HAL2     0.900000E-01   1.00800           0
     11260 MEMB     78       DOPC     H17Y     HAL2     0.900000E-01   1.00800           0
     11261 MEMB     78       DOPC     C318     CTL3    -0.270000       12.0110           0
     11262 MEMB     78       DOPC     H18X     HAL3     0.900000E-01   1.00800           0
     11263 MEMB     78       DOPC     H18Y     HAL3     0.900000E-01   1.00800           0
     11264 MEMB     78       DOPC     H18Z     HAL3     0.900000E-01   1.00800           0
     11265 MEMB     79       DOPC     N        NTL     -0.600000       14.0070           0
     11266 MEMB     79       DOPC     C12      CTL2    -0.100000       12.0110           0
     11267 MEMB     79       DOPC     H12A     HL       0.250000       1.00800           0
     11268 MEMB     79       DOPC     H12B     HL       0.250000       1.00800           0
     11269 MEMB     79       DOPC     C13      CTL5    -0.350000       12.0110           0
     11270 MEMB     79       DOPC     H13A     HL       0.250000       1.00800           0
     11271 MEMB     79       DOPC     H13B     HL       0.250000       1.00800           0
     11272 MEMB     79       DOPC     H13C     HL       0.250000       1.00800           0
     11273 MEMB     79       DOPC     C14      CTL5    -0.350000       12.0110           0
     11274 MEMB     79       DOPC     H14A     HL       0.250000       1.00800           0
     11275 MEMB     79       DOPC     H14B     HL       0.250000       1.00800           0
     11276 MEMB     79       DOPC     H14C     HL       0.250000       1.00800           0
     11277 MEMB     79       DOPC     C15      CTL5    -0.350000       12.0110           0
     11278 MEMB     79       DOPC     H15A     HL       0.250000       1.00800           0
     11279 MEMB     79       DOPC     H15B     HL       0.250000       1.00800           0
     11280 MEMB     79       DOPC     H15C     HL       0.250000       1.00800           0
     11281 MEMB     79       DOPC     C11      CTL2    -0.800000E-01   12.0110           0
     11282 MEMB     79       DOPC     H11A     HAL2     0.900000E-01   1.00800           0
     11283 MEMB     79       DOPC     H11B     HAL2     0.900000E-01   1.00800           0
     11284 MEMB     79       DOPC     P        PL        1.50000       30.9740           0
     11285 MEMB     79       DOPC     O13      O2L     -0.780000       15.9994           0
     11286 MEMB     79       DOPC     O14      O2L     -0.780000       15.9994           0
     11287 MEMB     79       DOPC     O12      OSLP    -0.570000       15.9994           0
     11288 MEMB     79       DOPC     O11      OSLP    -0.570000       15.9994           0
     11289 MEMB     79       DOPC     C1       CTL2    -0.800000E-01   12.0110           0
     11290 MEMB     79       DOPC     HA       HAL2     0.900000E-01   1.00800           0
     11291 MEMB     79       DOPC     HB       HAL2     0.900000E-01   1.00800           0
     11292 MEMB     79       DOPC     C2       CTL1     0.170000       12.0110           0
     11293 MEMB     79       DOPC     HS       HAL1     0.900000E-01   1.00800           0
     11294 MEMB     79       DOPC     O21      OSL     -0.490000       15.9994           0
     11295 MEMB     79       DOPC     C21      CL       0.900000       12.0110           0
     11296 MEMB     79       DOPC     O22      OBL     -0.630000       15.9994           0
     11297 MEMB     79       DOPC     C22      CTL2    -0.220000       12.0110           0
     11298 MEMB     79       DOPC     H2R      HAL2     0.900000E-01   1.00800           0
     11299 MEMB     79       DOPC     H2S      HAL2     0.900000E-01   1.00800           0
     11300 MEMB     79       DOPC     C3       CTL2     0.800000E-01   12.0110           0
     11301 MEMB     79       DOPC     HX       HAL2     0.900000E-01   1.00800           0
     11302 MEMB     79       DOPC     HY       HAL2     0.900000E-01   1.00800           0
     11303 MEMB     79       DOPC     O31      OSL     -0.490000       15.9994           0
     11304 MEMB     79       DOPC     C31      CL       0.900000       12.0110           0
     11305 MEMB     79       DOPC     O32      OBL     -0.630000       15.9994           0
     11306 MEMB     79       DOPC     C32      CTL2    -0.220000       12.0110           0
     11307 MEMB     79       DOPC     H2X      HAL2     0.900000E-01   1.00800           0
     11308 MEMB     79       DOPC     H2Y      HAL2     0.900000E-01   1.00800           0
     11309 MEMB     79       DOPC     C23      CTL2    -0.180000       12.0110           0
     11310 MEMB     79       DOPC     H3R      HAL2     0.900000E-01   1.00800           0
     11311 MEMB     79       DOPC     H3S      HAL2     0.900000E-01   1.00800           0
     11312 MEMB     79       DOPC     C24      CTL2    -0.180000       12.0110           0
     11313 MEMB     79       DOPC     H4R      HAL2     0.900000E-01   1.00800           0
     11314 MEMB     79       DOPC     H4S      HAL2     0.900000E-01   1.00800           0
     11315 MEMB     79       DOPC     C25      CTL2    -0.180000       12.0110           0
     11316 MEMB     79       DOPC     H5R      HAL2     0.900000E-01   1.00800           0
     11317 MEMB     79       DOPC     H5S      HAL2     0.900000E-01   1.00800           0
     11318 MEMB     79       DOPC     C26      CTL2    -0.180000       12.0110           0
     11319 MEMB     79       DOPC     H6R      HAL2     0.900000E-01   1.00800           0
     11320 MEMB     79       DOPC     H6S      HAL2     0.900000E-01   1.00800           0
     11321 MEMB     79       DOPC     C27      CTL2    -0.180000       12.0110           0
     11322 MEMB     79       DOPC     H7R      HAL2     0.900000E-01   1.00800           0
     11323 MEMB     79       DOPC     H7S      HAL2     0.900000E-01   1.00800           0
     11324 MEMB     79       DOPC     C28      CTL2    -0.180000       12.0110           0
     11325 MEMB     79       DOPC     H8R      HAL2     0.900000E-01   1.00800           0
     11326 MEMB     79       DOPC     H8S      HAL2     0.900000E-01   1.00800           0
     11327 MEMB     79       DOPC     C29      CEL1    -0.150000       12.0110           0
     11328 MEMB     79       DOPC     H9R      HEL1     0.150000       1.00800           0
     11329 MEMB     79       DOPC     C210     CEL1    -0.150000       12.0110           0
     11330 MEMB     79       DOPC     H10R     HEL1     0.150000       1.00800           0
     11331 MEMB     79       DOPC     C211     CTL2    -0.180000       12.0110           0
     11332 MEMB     79       DOPC     H11R     HAL2     0.900000E-01   1.00800           0
     11333 MEMB     79       DOPC     H11S     HAL2     0.900000E-01   1.00800           0
     11334 MEMB     79       DOPC     C212     CTL2    -0.180000       12.0110           0
     11335 MEMB     79       DOPC     H12R     HAL2     0.900000E-01   1.00800           0
     11336 MEMB     79       DOPC     H12S     HAL2     0.900000E-01   1.00800           0
     11337 MEMB     79       DOPC     C213     CTL2    -0.180000       12.0110           0
     11338 MEMB     79       DOPC     H13R     HAL2     0.900000E-01   1.00800           0
     11339 MEMB     79       DOPC     H13S     HAL2     0.900000E-01   1.00800           0
     11340 MEMB     79       DOPC     C214     CTL2    -0.180000       12.0110           0
     11341 MEMB     79       DOPC     H14R     HAL2     0.900000E-01   1.00800           0
     11342 MEMB     79       DOPC     H14S     HAL2     0.900000E-01   1.00800           0
     11343 MEMB     79       DOPC     C215     CTL2    -0.180000       12.0110           0
     11344 MEMB     79       DOPC     H15R     HAL2     0.900000E-01   1.00800           0
     11345 MEMB     79       DOPC     H15S     HAL2     0.900000E-01   1.00800           0
     11346 MEMB     79       DOPC     C216     CTL2    -0.180000       12.0110           0
     11347 MEMB     79       DOPC     H16R     HAL2     0.900000E-01   1.00800           0
     11348 MEMB     79       DOPC     H16S     HAL2     0.900000E-01   1.00800           0
     11349 MEMB     79       DOPC     C217     CTL2    -0.180000       12.0110           0
     11350 MEMB     79       DOPC     H17R     HAL2     0.900000E-01   1.00800           0
     11351 MEMB     79       DOPC     H17S     HAL2     0.900000E-01   1.00800           0
     11352 MEMB     79       DOPC     C218     CTL3    -0.270000       12.0110           0
     11353 MEMB     79       DOPC     H18R     HAL3     0.900000E-01   1.00800           0
     11354 MEMB     79       DOPC     H18S     HAL3     0.900000E-01   1.00800           0
     11355 MEMB     79       DOPC     H18T     HAL3     0.900000E-01   1.00800           0
     11356 MEMB     79       DOPC     C33      CTL2    -0.180000       12.0110           0
     11357 MEMB     79       DOPC     H3X      HAL2     0.900000E-01   1.00800           0
     11358 MEMB     79       DOPC     H3Y      HAL2     0.900000E-01   1.00800           0
     11359 MEMB     79       DOPC     C34      CTL2    -0.180000       12.0110           0
     11360 MEMB     79       DOPC     H4X      HAL2     0.900000E-01   1.00800           0
     11361 MEMB     79       DOPC     H4Y      HAL2     0.900000E-01   1.00800           0
     11362 MEMB     79       DOPC     C35      CTL2    -0.180000       12.0110           0
     11363 MEMB     79       DOPC     H5X      HAL2     0.900000E-01   1.00800           0
     11364 MEMB     79       DOPC     H5Y      HAL2     0.900000E-01   1.00800           0
     11365 MEMB     79       DOPC     C36      CTL2    -0.180000       12.0110           0
     11366 MEMB     79       DOPC     H6X      HAL2     0.900000E-01   1.00800           0
     11367 MEMB     79       DOPC     H6Y      HAL2     0.900000E-01   1.00800           0
     11368 MEMB     79       DOPC     C37      CTL2    -0.180000       12.0110           0
     11369 MEMB     79       DOPC     H7X      HAL2     0.900000E-01   1.00800           0
     11370 MEMB     79       DOPC     H7Y      HAL2     0.900000E-01   1.00800           0
     11371 MEMB     79       DOPC     C38      CTL2    -0.180000       12.0110           0
     11372 MEMB     79       DOPC     H8X      HAL2     0.900000E-01   1.00800           0
     11373 MEMB     79       DOPC     H8Y      HAL2     0.900000E-01   1.00800           0
     11374 MEMB     79       DOPC     C39      CEL1    -0.150000       12.0110           0
     11375 MEMB     79       DOPC     H9X      HEL1     0.150000       1.00800           0
     11376 MEMB     79       DOPC     C310     CEL1    -0.150000       12.0110           0
     11377 MEMB     79       DOPC     H10X     HEL1     0.150000       1.00800           0
     11378 MEMB     79       DOPC     C311     CTL2    -0.180000       12.0110           0
     11379 MEMB     79       DOPC     H11X     HAL2     0.900000E-01   1.00800           0
     11380 MEMB     79       DOPC     H11Y     HAL2     0.900000E-01   1.00800           0
     11381 MEMB     79       DOPC     C312     CTL2    -0.180000       12.0110           0
     11382 MEMB     79       DOPC     H12X     HAL2     0.900000E-01   1.00800           0
     11383 MEMB     79       DOPC     H12Y     HAL2     0.900000E-01   1.00800           0
     11384 MEMB     79       DOPC     C313     CTL2    -0.180000       12.0110           0
     11385 MEMB     79       DOPC     H13X     HAL2     0.900000E-01   1.00800           0
     11386 MEMB     79       DOPC     H13Y     HAL2     0.900000E-01   1.00800           0
     11387 MEMB     79       DOPC     C314     CTL2    -0.180000       12.0110           0
     11388 MEMB     79       DOPC     H14X     HAL2     0.900000E-01   1.00800           0
     11389 MEMB     79       DOPC     H14Y     HAL2     0.900000E-01   1.00800           0
     11390 MEMB     79       DOPC     C315     CTL2    -0.180000       12.0110           0
     11391 MEMB     79       DOPC     H15X     HAL2     0.900000E-01   1.00800           0
     11392 MEMB     79       DOPC     H15Y     HAL2     0.900000E-01   1.00800           0
     11393 MEMB     79       DOPC     C316     CTL2    -0.180000       12.0110           0
     11394 MEMB     79       DOPC     H16X     HAL2     0.900000E-01   1.00800           0
     11395 MEMB     79       DOPC     H16Y     HAL2     0.900000E-01   1.00800           0
     11396 MEMB     79       DOPC     C317     CTL2    -0.180000       12.0110           0
     11397 MEMB     79       DOPC     H17X     HAL2     0.900000E-01   1.00800           0
     11398 MEMB     79       DOPC     H17Y     HAL2     0.900000E-01   1.00800           0
     11399 MEMB     79       DOPC     C318     CTL3    -0.270000       12.0110           0
     11400 MEMB     79       DOPC     H18X     HAL3     0.900000E-01   1.00800           0
     11401 MEMB     79       DOPC     H18Y     HAL3     0.900000E-01   1.00800           0
     11402 MEMB     79       DOPC     H18Z     HAL3     0.900000E-01   1.00800           0
     11403 MEMB     80       DOPC     N        NTL     -0.600000       14.0070           0
     11404 MEMB     80       DOPC     C12      CTL2    -0.100000       12.0110           0
     11405 MEMB     80       DOPC     H12A     HL       0.250000       1.00800           0
     11406 MEMB     80       DOPC     H12B     HL       0.250000       1.00800           0
     11407 MEMB     80       DOPC     C13      CTL5    -0.350000       12.0110           0
     11408 MEMB     80       DOPC     H13A     HL       0.250000       1.00800           0
     11409 MEMB     80       DOPC     H13B     HL       0.250000       1.00800           0
     11410 MEMB     80       DOPC     H13C     HL       0.250000       1.00800           0
     11411 MEMB     80       DOPC     C14      CTL5    -0.350000       12.0110           0
     11412 MEMB     80       DOPC     H14A     HL       0.250000       1.00800           0
     11413 MEMB     80       DOPC     H14B     HL       0.250000       1.00800           0
     11414 MEMB     80       DOPC     H14C     HL       0.250000       1.00800           0
     11415 MEMB     80       DOPC     C15      CTL5    -0.350000       12.0110           0
     11416 MEMB     80       DOPC     H15A     HL       0.250000       1.00800           0
     11417 MEMB     80       DOPC     H15B     HL       0.250000       1.00800           0
     11418 MEMB     80       DOPC     H15C     HL       0.250000       1.00800           0
     11419 MEMB     80       DOPC     C11      CTL2    -0.800000E-01   12.0110           0
     11420 MEMB     80       DOPC     H11A     HAL2     0.900000E-01   1.00800           0
     11421 MEMB     80       DOPC     H11B     HAL2     0.900000E-01   1.00800           0
     11422 MEMB     80       DOPC     P        PL        1.50000       30.9740           0
     11423 MEMB     80       DOPC     O13      O2L     -0.780000       15.9994           0
     11424 MEMB     80       DOPC     O14      O2L     -0.780000       15.9994           0
     11425 MEMB     80       DOPC     O12      OSLP    -0.570000       15.9994           0
     11426 MEMB     80       DOPC     O11      OSLP    -0.570000       15.9994           0
     11427 MEMB     80       DOPC     C1       CTL2    -0.800000E-01   12.0110           0
     11428 MEMB     80       DOPC     HA       HAL2     0.900000E-01   1.00800           0
     11429 MEMB     80       DOPC     HB       HAL2     0.900000E-01   1.00800           0
     11430 MEMB     80       DOPC     C2       CTL1     0.170000       12.0110           0
     11431 MEMB     80       DOPC     HS       HAL1     0.900000E-01   1.00800           0
     11432 MEMB     80       DOPC     O21      OSL     -0.490000       15.9994           0
     11433 MEMB     80       DOPC     C21      CL       0.900000       12.0110           0
     11434 MEMB     80       DOPC     O22      OBL     -0.630000       15.9994           0
     11435 MEMB     80       DOPC     C22      CTL2    -0.220000       12.0110           0
     11436 MEMB     80       DOPC     H2R      HAL2     0.900000E-01   1.00800           0
     11437 MEMB     80       DOPC     H2S      HAL2     0.900000E-01   1.00800           0
     11438 MEMB     80       DOPC     C3       CTL2     0.800000E-01   12.0110           0
     11439 MEMB     80       DOPC     HX       HAL2     0.900000E-01   1.00800           0
     11440 MEMB     80       DOPC     HY       HAL2     0.900000E-01   1.00800           0
     11441 MEMB     80       DOPC     O31      OSL     -0.490000       15.9994           0
     11442 MEMB     80       DOPC     C31      CL       0.900000       12.0110           0
     11443 MEMB     80       DOPC     O32      OBL     -0.630000       15.9994           0
     11444 MEMB     80       DOPC     C32      CTL2    -0.220000       12.0110           0
     11445 MEMB     80       DOPC     H2X      HAL2     0.900000E-01   1.00800           0
     11446 MEMB     80       DOPC     H2Y      HAL2     0.900000E-01   1.00800           0
     11447 MEMB     80       DOPC     C23      CTL2    -0.180000       12.0110           0
     11448 MEMB     80       DOPC     H3R      HAL2     0.900000E-01   1.00800           0
     11449 MEMB     80       DOPC     H3S      HAL2     0.900000E-01   1.00800           0
     11450 MEMB     80       DOPC     C24      CTL2    -0.180000       12.0110           0
     11451 MEMB     80       DOPC     H4R      HAL2     0.900000E-01   1.00800           0
     11452 MEMB     80       DOPC     H4S      HAL2     0.900000E-01   1.00800           0
     11453 MEMB     80       DOPC     C25      CTL2    -0.180000       12.0110           0
     11454 MEMB     80       DOPC     H5R      HAL2     0.900000E-01   1.00800           0
     11455 MEMB     80       DOPC     H5S      HAL2     0.900000E-01   1.00800           0
     11456 MEMB     80       DOPC     C26      CTL2    -0.180000       12.0110           0
     11457 MEMB     80       DOPC     H6R      HAL2     0.900000E-01   1.00800           0
     11458 MEMB     80       DOPC     H6S      HAL2     0.900000E-01   1.00800           0
     11459 MEMB     80       DOPC     C27      CTL2    -0.180000       12.0110           0
     11460 MEMB     80       DOPC     H7R      HAL2     0.900000E-01   1.00800           0
     11461 MEMB     80       DOPC     H7S      HAL2     0.900000E-01   1.00800           0
     11462 MEMB     80       DOPC     C28      CTL2    -0.180000       12.0110           0
     11463 MEMB     80       DOPC     H8R      HAL2     0.900000E-01   1.00800           0
     11464 MEMB     80       DOPC     H8S      HAL2     0.900000E-01   1.00800           0
     11465 MEMB     80       DOPC     C29      CEL1    -0.150000       12.0110           0
     11466 MEMB     80       DOPC     H9R      HEL1     0.150000       1.00800           0
     11467 MEMB     80       DOPC     C210     CEL1    -0.150000       12.0110           0
     11468 MEMB     80       DOPC     H10R     HEL1     0.150000       1.00800           0
     11469 MEMB     80       DOPC     C211     CTL2    -0.180000       12.0110           0
     11470 MEMB     80       DOPC     H11R     HAL2     0.900000E-01   1.00800           0
     11471 MEMB     80       DOPC     H11S     HAL2     0.900000E-01   1.00800           0
     11472 MEMB     80       DOPC     C212     CTL2    -0.180000       12.0110           0
     11473 MEMB     80       DOPC     H12R     HAL2     0.900000E-01   1.00800           0
     11474 MEMB     80       DOPC     H12S     HAL2     0.900000E-01   1.00800           0
     11475 MEMB     80       DOPC     C213     CTL2    -0.180000       12.0110           0
     11476 MEMB     80       DOPC     H13R     HAL2     0.900000E-01   1.00800           0
     11477 MEMB     80       DOPC     H13S     HAL2     0.900000E-01   1.00800           0
     11478 MEMB     80       DOPC     C214     CTL2    -0.180000       12.0110           0
     11479 MEMB     80       DOPC     H14R     HAL2     0.900000E-01   1.00800           0
     11480 MEMB     80       DOPC     H14S     HAL2     0.900000E-01   1.00800           0
     11481 MEMB     80       DOPC     C215     CTL2    -0.180000       12.0110           0
     11482 MEMB     80       DOPC     H15R     HAL2     0.900000E-01   1.00800           0
     11483 MEMB     80       DOPC     H15S     HAL2     0.900000E-01   1.00800           0
     11484 MEMB     80       DOPC     C216     CTL2    -0.180000       12.0110           0
     11485 MEMB     80       DOPC     H16R     HAL2     0.900000E-01   1.00800           0
     11486 MEMB     80       DOPC     H16S     HAL2     0.900000E-01   1.00800           0
     11487 MEMB     80       DOPC     C217     CTL2    -0.180000       12.0110           0
     11488 MEMB     80       DOPC     H17R     HAL2     0.900000E-01   1.00800           0
     11489 MEMB     80       DOPC     H17S     HAL2     0.900000E-01   1.00800           0
     11490 MEMB     80       DOPC     C218     CTL3    -0.270000       12.0110           0
     11491 MEMB     80       DOPC     H18R     HAL3     0.900000E-01   1.00800           0
     11492 MEMB     80       DOPC     H18S     HAL3     0.900000E-01   1.00800           0
     11493 MEMB     80       DOPC     H18T     HAL3     0.900000E-01   1.00800           0
     11494 MEMB     80       DOPC     C33      CTL2    -0.180000       12.0110           0
     11495 MEMB     80       DOPC     H3X      HAL2     0.900000E-01   1.00800           0
     11496 MEMB     80       DOPC     H3Y      HAL2     0.900000E-01   1.00800           0
     11497 MEMB     80       DOPC     C34      CTL2    -0.180000       12.0110           0
     11498 MEMB     80       DOPC     H4X      HAL2     0.900000E-01   1.00800           0
     11499 MEMB     80       DOPC     H4Y      HAL2     0.900000E-01   1.00800           0
     11500 MEMB     80       DOPC     C35      CTL2    -0.180000       12.0110           0
     11501 MEMB     80       DOPC     H5X      HAL2     0.900000E-01   1.00800           0
     11502 MEMB     80       DOPC     H5Y      HAL2     0.900000E-01   1.00800           0
     11503 MEMB     80       DOPC     C36      CTL2    -0.180000       12.0110           0
     11504 MEMB     80       DOPC     H6X      HAL2     0.900000E-01   1.00800           0
     11505 MEMB     80       DOPC     H6Y      HAL2     0.900000E-01   1.00800           0
     11506 MEMB     80       DOPC     C37      CTL2    -0.180000       12.0110           0
     11507 MEMB     80       DOPC     H7X      HAL2     0.900000E-01   1.00800           0
     11508 MEMB     80       DOPC     H7Y      HAL2     0.900000E-01   1.00800           0
     11509 MEMB     80       DOPC     C38      CTL2    -0.180000       12.0110           0
     11510 MEMB     80       DOPC     H8X      HAL2     0.900000E-01   1.00800           0
     11511 MEMB     80       DOPC     H8Y      HAL2     0.900000E-01   1.00800           0
     11512 MEMB     80       DOPC     C39      CEL1    -0.150000       12.0110           0
     11513 MEMB     80       DOPC     H9X      HEL1     0.150000       1.00800           0
     11514 MEMB     80       DOPC     C310     CEL1    -0.150000       12.0110           0
     11515 MEMB     80       DOPC     H10X     HEL1     0.150000       1.00800           0
     11516 MEMB     80       DOPC     C311     CTL2    -0.180000       12.0110           0
     11517 MEMB     80       DOPC     H11X     HAL2     0.900000E-01   1.00800           0
     11518 MEMB     80       DOPC     H11Y     HAL2     0.900000E-01   1.00800           0
     11519 MEMB     80       DOPC     C312     CTL2    -0.180000       12.0110           0
     11520 MEMB     80       DOPC     H12X     HAL2     0.900000E-01   1.00800           0
     11521 MEMB     80       DOPC     H12Y     HAL2     0.900000E-01   1.00800           0
     11522 MEMB     80       DOPC     C313     CTL2    -0.180000       12.0110           0
     11523 MEMB     80       DOPC     H13X     HAL2     0.900000E-01   1.00800           0
     11524 MEMB     80       DOPC     H13Y     HAL2     0.900000E-01   1.00800           0
     11525 MEMB     80       DOPC     C314     CTL2    -0.180000       12.0110           0
     11526 MEMB     80       DOPC     H14X     HAL2     0.900000E-01   1.00800           0
     11527 MEMB     80       DOPC     H14Y     HAL2     0.900000E-01   1.00800           0
     11528 MEMB     80       DOPC     C315     CTL2    -0.180000       12.0110           0
     11529 MEMB     80       DOPC     H15X     HAL2     0.900000E-01   1.00800           0
     11530 MEMB     80       DOPC     H15Y     HAL2     0.900000E-01   1.00800           0
     11531 MEMB     80       DOPC     C316     CTL2    -0.180000       12.0110           0
     11532 MEMB     80       DOPC     H16X     HAL2     0.900000E-01   1.00800           0
     11533 MEMB     80       DOPC     H16Y     HAL2     0.900000E-01   1.00800           0
     11534 MEMB     80       DOPC     C317     CTL2    -0.180000       12.0110           0
     11535 MEMB     80       DOPC     H17X     HAL2     0.900000E-01   1.00800           0
     11536 MEMB     80       DOPC     H17Y     HAL2     0.900000E-01   1.00800           0
     11537 MEMB     80       DOPC     C318     CTL3    -0.270000       12.0110           0
     11538 MEMB     80       DOPC     H18X     HAL3     0.900000E-01   1.00800           0
     11539 MEMB     80       DOPC     H18Y     HAL3     0.900000E-01   1.00800           0
     11540 MEMB     80       DOPC     H18Z     HAL3     0.900000E-01   1.00800           0
     11541 MEMB     81       DOPC     N        NTL     -0.600000       14.0070           0
     11542 MEMB     81       DOPC     C12      CTL2    -0.100000       12.0110           0
     11543 MEMB     81       DOPC     H12A     HL       0.250000       1.00800           0
     11544 MEMB     81       DOPC     H12B     HL       0.250000       1.00800           0
     11545 MEMB     81       DOPC     C13      CTL5    -0.350000       12.0110           0
     11546 MEMB     81       DOPC     H13A     HL       0.250000       1.00800           0
     11547 MEMB     81       DOPC     H13B     HL       0.250000       1.00800           0
     11548 MEMB     81       DOPC     H13C     HL       0.250000       1.00800           0
     11549 MEMB     81       DOPC     C14      CTL5    -0.350000       12.0110           0
     11550 MEMB     81       DOPC     H14A     HL       0.250000       1.00800           0
     11551 MEMB     81       DOPC     H14B     HL       0.250000       1.00800           0
     11552 MEMB     81       DOPC     H14C     HL       0.250000       1.00800           0
     11553 MEMB     81       DOPC     C15      CTL5    -0.350000       12.0110           0
     11554 MEMB     81       DOPC     H15A     HL       0.250000       1.00800           0
     11555 MEMB     81       DOPC     H15B     HL       0.250000       1.00800           0
     11556 MEMB     81       DOPC     H15C     HL       0.250000       1.00800           0
     11557 MEMB     81       DOPC     C11      CTL2    -0.800000E-01   12.0110           0
     11558 MEMB     81       DOPC     H11A     HAL2     0.900000E-01   1.00800           0
     11559 MEMB     81       DOPC     H11B     HAL2     0.900000E-01   1.00800           0
     11560 MEMB     81       DOPC     P        PL        1.50000       30.9740           0
     11561 MEMB     81       DOPC     O13      O2L     -0.780000       15.9994           0
     11562 MEMB     81       DOPC     O14      O2L     -0.780000       15.9994           0
     11563 MEMB     81       DOPC     O12      OSLP    -0.570000       15.9994           0
     11564 MEMB     81       DOPC     O11      OSLP    -0.570000       15.9994           0
     11565 MEMB     81       DOPC     C1       CTL2    -0.800000E-01   12.0110           0
     11566 MEMB     81       DOPC     HA       HAL2     0.900000E-01   1.00800           0
     11567 MEMB     81       DOPC     HB       HAL2     0.900000E-01   1.00800           0
     11568 MEMB     81       DOPC     C2       CTL1     0.170000       12.0110           0
     11569 MEMB     81       DOPC     HS       HAL1     0.900000E-01   1.00800           0
     11570 MEMB     81       DOPC     O21      OSL     -0.490000       15.9994           0
     11571 MEMB     81       DOPC     C21      CL       0.900000       12.0110           0
     11572 MEMB     81       DOPC     O22      OBL     -0.630000       15.9994           0
     11573 MEMB     81       DOPC     C22      CTL2    -0.220000       12.0110           0
     11574 MEMB     81       DOPC     H2R      HAL2     0.900000E-01   1.00800           0
     11575 MEMB     81       DOPC     H2S      HAL2     0.900000E-01   1.00800           0
     11576 MEMB     81       DOPC     C3       CTL2     0.800000E-01   12.0110           0
     11577 MEMB     81       DOPC     HX       HAL2     0.900000E-01   1.00800           0
     11578 MEMB     81       DOPC     HY       HAL2     0.900000E-01   1.00800           0
     11579 MEMB     81       DOPC     O31      OSL     -0.490000       15.9994           0
     11580 MEMB     81       DOPC     C31      CL       0.900000       12.0110           0
     11581 MEMB     81       DOPC     O32      OBL     -0.630000       15.9994           0
     11582 MEMB     81       DOPC     C32      CTL2    -0.220000       12.0110           0
     11583 MEMB     81       DOPC     H2X      HAL2     0.900000E-01   1.00800           0
     11584 MEMB     81       DOPC     H2Y      HAL2     0.900000E-01   1.00800           0
     11585 MEMB     81       DOPC     C23      CTL2    -0.180000       12.0110           0
     11586 MEMB     81       DOPC     H3R      HAL2     0.900000E-01   1.00800           0
     11587 MEMB     81       DOPC     H3S      HAL2     0.900000E-01   1.00800           0
     11588 MEMB     81       DOPC     C24      CTL2    -0.180000       12.0110           0
     11589 MEMB     81       DOPC     H4R      HAL2     0.900000E-01   1.00800           0
     11590 MEMB     81       DOPC     H4S      HAL2     0.900000E-01   1.00800           0
     11591 MEMB     81       DOPC     C25      CTL2    -0.180000       12.0110           0
     11592 MEMB     81       DOPC     H5R      HAL2     0.900000E-01   1.00800           0
     11593 MEMB     81       DOPC     H5S      HAL2     0.900000E-01   1.00800           0
     11594 MEMB     81       DOPC     C26      CTL2    -0.180000       12.0110           0
     11595 MEMB     81       DOPC     H6R      HAL2     0.900000E-01   1.00800           0
     11596 MEMB     81       DOPC     H6S      HAL2     0.900000E-01   1.00800           0
     11597 MEMB     81       DOPC     C27      CTL2    -0.180000       12.0110           0
     11598 MEMB     81       DOPC     H7R      HAL2     0.900000E-01   1.00800           0
     11599 MEMB     81       DOPC     H7S      HAL2     0.900000E-01   1.00800           0
     11600 MEMB     81       DOPC     C28      CTL2    -0.180000       12.0110           0
     11601 MEMB     81       DOPC     H8R      HAL2     0.900000E-01   1.00800           0
     11602 MEMB     81       DOPC     H8S      HAL2     0.900000E-01   1.00800           0
     11603 MEMB     81       DOPC     C29      CEL1    -0.150000       12.0110           0
     11604 MEMB     81       DOPC     H9R      HEL1     0.150000       1.00800           0
     11605 MEMB     81       DOPC     C210     CEL1    -0.150000       12.0110           0
     11606 MEMB     81       DOPC     H10R     HEL1     0.150000       1.00800           0
     11607 MEMB     81       DOPC     C211     CTL2    -0.180000       12.0110           0
     11608 MEMB     81       DOPC     H11R     HAL2     0.900000E-01   1.00800           0
     11609 MEMB     81       DOPC     H11S     HAL2     0.900000E-01   1.00800           0
     11610 MEMB     81       DOPC     C212     CTL2    -0.180000       12.0110           0
     11611 MEMB     81       DOPC     H12R     HAL2     0.900000E-01   1.00800           0
     11612 MEMB     81       DOPC     H12S     HAL2     0.900000E-01   1.00800           0
     11613 MEMB     81       DOPC     C213     CTL2    -0.180000       12.0110           0
     11614 MEMB     81       DOPC     H13R     HAL2     0.900000E-01   1.00800           0
     11615 MEMB     81       DOPC     H13S     HAL2     0.900000E-01   1.00800           0
     11616 MEMB     81       DOPC     C214     CTL2    -0.180000       12.0110           0
     11617 MEMB     81       DOPC     H14R     HAL2     0.900000E-01   1.00800           0
     11618 MEMB     81       DOPC     H14S     HAL2     0.900000E-01   1.00800           0
     11619 MEMB     81       DOPC     C215     CTL2    -0.180000       12.0110           0
     11620 MEMB     81       DOPC     H15R     HAL2     0.900000E-01   1.00800           0
     11621 MEMB     81       DOPC     H15S     HAL2     0.900000E-01   1.00800           0
     11622 MEMB     81       DOPC     C216     CTL2    -0.180000       12.0110           0
     11623 MEMB     81       DOPC     H16R     HAL2     0.900000E-01   1.00800           0
     11624 MEMB     81       DOPC     H16S     HAL2     0.900000E-01   1.00800           0
     11625 MEMB     81       DOPC     C217     CTL2    -0.180000       12.0110           0
     11626 MEMB     81       DOPC     H17R     HAL2     0.900000E-01   1.00800           0
     11627 MEMB     81       DOPC     H17S     HAL2     0.900000E-01   1.00800           0
     11628 MEMB     81       DOPC     C218     CTL3    -0.270000       12.0110           0
     11629 MEMB     81       DOPC     H18R     HAL3     0.900000E-01   1.00800           0
     11630 MEMB     81       DOPC     H18S     HAL3     0.900000E-01   1.00800           0
     11631 MEMB     81       DOPC     H18T     HAL3     0.900000E-01   1.00800           0
     11632 MEMB     81       DOPC     C33      CTL2    -0.180000       12.0110           0
     11633 MEMB     81       DOPC     H3X      HAL2     0.900000E-01   1.00800           0
     11634 MEMB     81       DOPC     H3Y      HAL2     0.900000E-01   1.00800           0
     11635 MEMB     81       DOPC     C34      CTL2    -0.180000       12.0110           0
     11636 MEMB     81       DOPC     H4X      HAL2     0.900000E-01   1.00800           0
     11637 MEMB     81       DOPC     H4Y      HAL2     0.900000E-01   1.00800           0
     11638 MEMB     81       DOPC     C35      CTL2    -0.180000       12.0110           0
     11639 MEMB     81       DOPC     H5X      HAL2     0.900000E-01   1.00800           0
     11640 MEMB     81       DOPC     H5Y      HAL2     0.900000E-01   1.00800           0
     11641 MEMB     81       DOPC     C36      CTL2    -0.180000       12.0110           0
     11642 MEMB     81       DOPC     H6X      HAL2     0.900000E-01   1.00800           0
     11643 MEMB     81       DOPC     H6Y      HAL2     0.900000E-01   1.00800           0
     11644 MEMB     81       DOPC     C37      CTL2    -0.180000       12.0110           0
     11645 MEMB     81       DOPC     H7X      HAL2     0.900000E-01   1.00800           0
     11646 MEMB     81       DOPC     H7Y      HAL2     0.900000E-01   1.00800           0
     11647 MEMB     81       DOPC     C38      CTL2    -0.180000       12.0110           0
     11648 MEMB     81       DOPC     H8X      HAL2     0.900000E-01   1.00800           0
     11649 MEMB     81       DOPC     H8Y      HAL2     0.900000E-01   1.00800           0
     11650 MEMB     81       DOPC     C39      CEL1    -0.150000       12.0110           0
     11651 MEMB     81       DOPC     H9X      HEL1     0.150000       1.00800           0
     11652 MEMB     81       DOPC     C310     CEL1    -0.150000       12.0110           0
     11653 MEMB     81       DOPC     H10X     HEL1     0.150000       1.00800           0
     11654 MEMB     81       DOPC     C311     CTL2    -0.180000       12.0110           0
     11655 MEMB     81       DOPC     H11X     HAL2     0.900000E-01   1.00800           0
     11656 MEMB     81       DOPC     H11Y     HAL2     0.900000E-01   1.00800           0
     11657 MEMB     81       DOPC     C312     CTL2    -0.180000       12.0110           0
     11658 MEMB     81       DOPC     H12X     HAL2     0.900000E-01   1.00800           0
     11659 MEMB     81       DOPC     H12Y     HAL2     0.900000E-01   1.00800           0
     11660 MEMB     81       DOPC     C313     CTL2    -0.180000       12.0110           0
     11661 MEMB     81       DOPC     H13X     HAL2     0.900000E-01   1.00800           0
     11662 MEMB     81       DOPC     H13Y     HAL2     0.900000E-01   1.00800           0
     11663 MEMB     81       DOPC     C314     CTL2    -0.180000       12.0110           0
     11664 MEMB     81       DOPC     H14X     HAL2     0.900000E-01   1.00800           0
     11665 MEMB     81       DOPC     H14Y     HAL2     0.900000E-01   1.00800           0
     11666 MEMB     81       DOPC     C315     CTL2    -0.180000       12.0110           0
     11667 MEMB     81       DOPC     H15X     HAL2     0.900000E-01   1.00800           0
     11668 MEMB     81       DOPC     H15Y     HAL2     0.900000E-01   1.00800           0
     11669 MEMB     81       DOPC     C316     CTL2    -0.180000       12.0110           0
     11670 MEMB     81       DOPC     H16X     HAL2     0.900000E-01   1.00800           0
     11671 MEMB     81       DOPC     H16Y     HAL2     0.900000E-01   1.00800           0
     11672 MEMB     81       DOPC     C317     CTL2    -0.180000       12.0110           0
     11673 MEMB     81       DOPC     H17X     HAL2     0.900000E-01   1.00800           0
     11674 MEMB     81       DOPC     H17Y     HAL2     0.900000E-01   1.00800           0
     11675 MEMB     81       DOPC     C318     CTL3    -0.270000       12.0110           0
     11676 MEMB     81       DOPC     H18X     HAL3     0.900000E-01   1.00800           0
     11677 MEMB     81       DOPC     H18Y     HAL3     0.900000E-01   1.00800           0
     11678 MEMB     81       DOPC     H18Z     HAL3     0.900000E-01   1.00800           0
     11679 MEMB     82       DOPC     N        NTL     -0.600000       14.0070           0
     11680 MEMB     82       DOPC     C12      CTL2    -0.100000       12.0110           0
     11681 MEMB     82       DOPC     H12A     HL       0.250000       1.00800           0
     11682 MEMB     82       DOPC     H12B     HL       0.250000       1.00800           0
     11683 MEMB     82       DOPC     C13      CTL5    -0.350000       12.0110           0
     11684 MEMB     82       DOPC     H13A     HL       0.250000       1.00800           0
     11685 MEMB     82       DOPC     H13B     HL       0.250000       1.00800           0
     11686 MEMB     82       DOPC     H13C     HL       0.250000       1.00800           0
     11687 MEMB     82       DOPC     C14      CTL5    -0.350000       12.0110           0
     11688 MEMB     82       DOPC     H14A     HL       0.250000       1.00800           0
     11689 MEMB     82       DOPC     H14B     HL       0.250000       1.00800           0
     11690 MEMB     82       DOPC     H14C     HL       0.250000       1.00800           0
     11691 MEMB     82       DOPC     C15      CTL5    -0.350000       12.0110           0
     11692 MEMB     82       DOPC     H15A     HL       0.250000       1.00800           0
     11693 MEMB     82       DOPC     H15B     HL       0.250000       1.00800           0
     11694 MEMB     82       DOPC     H15C     HL       0.250000       1.00800           0
     11695 MEMB     82       DOPC     C11      CTL2    -0.800000E-01   12.0110           0
     11696 MEMB     82       DOPC     H11A     HAL2     0.900000E-01   1.00800           0
     11697 MEMB     82       DOPC     H11B     HAL2     0.900000E-01   1.00800           0
     11698 MEMB     82       DOPC     P        PL        1.50000       30.9740           0
     11699 MEMB     82       DOPC     O13      O2L     -0.780000       15.9994           0
     11700 MEMB     82       DOPC     O14      O2L     -0.780000       15.9994           0
     11701 MEMB     82       DOPC     O12      OSLP    -0.570000       15.9994           0
     11702 MEMB     82       DOPC     O11      OSLP    -0.570000       15.9994           0
     11703 MEMB     82       DOPC     C1       CTL2    -0.800000E-01   12.0110           0
     11704 MEMB     82       DOPC     HA       HAL2     0.900000E-01   1.00800           0
     11705 MEMB     82       DOPC     HB       HAL2     0.900000E-01   1.00800           0
     11706 MEMB     82       DOPC     C2       CTL1     0.170000       12.0110           0
     11707 MEMB     82       DOPC     HS       HAL1     0.900000E-01   1.00800           0
     11708 MEMB     82       DOPC     O21      OSL     -0.490000       15.9994           0
     11709 MEMB     82       DOPC     C21      CL       0.900000       12.0110           0
     11710 MEMB     82       DOPC     O22      OBL     -0.630000       15.9994           0
     11711 MEMB     82       DOPC     C22      CTL2    -0.220000       12.0110           0
     11712 MEMB     82       DOPC     H2R      HAL2     0.900000E-01   1.00800           0
     11713 MEMB     82       DOPC     H2S      HAL2     0.900000E-01   1.00800           0
     11714 MEMB     82       DOPC     C3       CTL2     0.800000E-01   12.0110           0
     11715 MEMB     82       DOPC     HX       HAL2     0.900000E-01   1.00800           0
     11716 MEMB     82       DOPC     HY       HAL2     0.900000E-01   1.00800           0
     11717 MEMB     82       DOPC     O31      OSL     -0.490000       15.9994           0
     11718 MEMB     82       DOPC     C31      CL       0.900000       12.0110           0
     11719 MEMB     82       DOPC     O32      OBL     -0.630000       15.9994           0
     11720 MEMB     82       DOPC     C32      CTL2    -0.220000       12.0110           0
     11721 MEMB     82       DOPC     H2X      HAL2     0.900000E-01   1.00800           0
     11722 MEMB     82       DOPC     H2Y      HAL2     0.900000E-01   1.00800           0
     11723 MEMB     82       DOPC     C23      CTL2    -0.180000       12.0110           0
     11724 MEMB     82       DOPC     H3R      HAL2     0.900000E-01   1.00800           0
     11725 MEMB     82       DOPC     H3S      HAL2     0.900000E-01   1.00800           0
     11726 MEMB     82       DOPC     C24      CTL2    -0.180000       12.0110           0
     11727 MEMB     82       DOPC     H4R      HAL2     0.900000E-01   1.00800           0
     11728 MEMB     82       DOPC     H4S      HAL2     0.900000E-01   1.00800           0
     11729 MEMB     82       DOPC     C25      CTL2    -0.180000       12.0110           0
     11730 MEMB     82       DOPC     H5R      HAL2     0.900000E-01   1.00800           0
     11731 MEMB     82       DOPC     H5S      HAL2     0.900000E-01   1.00800           0
     11732 MEMB     82       DOPC     C26      CTL2    -0.180000       12.0110           0
     11733 MEMB     82       DOPC     H6R      HAL2     0.900000E-01   1.00800           0
     11734 MEMB     82       DOPC     H6S      HAL2     0.900000E-01   1.00800           0
     11735 MEMB     82       DOPC     C27      CTL2    -0.180000       12.0110           0
     11736 MEMB     82       DOPC     H7R      HAL2     0.900000E-01   1.00800           0
     11737 MEMB     82       DOPC     H7S      HAL2     0.900000E-01   1.00800           0
     11738 MEMB     82       DOPC     C28      CTL2    -0.180000       12.0110           0
     11739 MEMB     82       DOPC     H8R      HAL2     0.900000E-01   1.00800           0
     11740 MEMB     82       DOPC     H8S      HAL2     0.900000E-01   1.00800           0
     11741 MEMB     82       DOPC     C29      CEL1    -0.150000       12.0110           0
     11742 MEMB     82       DOPC     H9R      HEL1     0.150000       1.00800           0
     11743 MEMB     82       DOPC     C210     CEL1    -0.150000       12.0110           0
     11744 MEMB     82       DOPC     H10R     HEL1     0.150000       1.00800           0
     11745 MEMB     82       DOPC     C211     CTL2    -0.180000       12.0110           0
     11746 MEMB     82       DOPC     H11R     HAL2     0.900000E-01   1.00800           0
     11747 MEMB     82       DOPC     H11S     HAL2     0.900000E-01   1.00800           0
     11748 MEMB     82       DOPC     C212     CTL2    -0.180000       12.0110           0
     11749 MEMB     82       DOPC     H12R     HAL2     0.900000E-01   1.00800           0
     11750 MEMB     82       DOPC     H12S     HAL2     0.900000E-01   1.00800           0
     11751 MEMB     82       DOPC     C213     CTL2    -0.180000       12.0110           0
     11752 MEMB     82       DOPC     H13R     HAL2     0.900000E-01   1.00800           0
     11753 MEMB     82       DOPC     H13S     HAL2     0.900000E-01   1.00800           0
     11754 MEMB     82       DOPC     C214     CTL2    -0.180000       12.0110           0
     11755 MEMB     82       DOPC     H14R     HAL2     0.900000E-01   1.00800           0
     11756 MEMB     82       DOPC     H14S     HAL2     0.900000E-01   1.00800           0
     11757 MEMB     82       DOPC     C215     CTL2    -0.180000       12.0110           0
     11758 MEMB     82       DOPC     H15R     HAL2     0.900000E-01   1.00800           0
     11759 MEMB     82       DOPC     H15S     HAL2     0.900000E-01   1.00800           0
     11760 MEMB     82       DOPC     C216     CTL2    -0.180000       12.0110           0
     11761 MEMB     82       DOPC     H16R     HAL2     0.900000E-01   1.00800           0
     11762 MEMB     82       DOPC     H16S     HAL2     0.900000E-01   1.00800           0
     11763 MEMB     82       DOPC     C217     CTL2    -0.180000       12.0110           0
     11764 MEMB     82       DOPC     H17R     HAL2     0.900000E-01   1.00800           0
     11765 MEMB     82       DOPC     H17S     HAL2     0.900000E-01   1.00800           0
     11766 MEMB     82       DOPC     C218     CTL3    -0.270000       12.0110           0
     11767 MEMB     82       DOPC     H18R     HAL3     0.900000E-01   1.00800           0
     11768 MEMB     82       DOPC     H18S     HAL3     0.900000E-01   1.00800           0
     11769 MEMB     82       DOPC     H18T     HAL3     0.900000E-01   1.00800           0
     11770 MEMB     82       DOPC     C33      CTL2    -0.180000       12.0110           0
     11771 MEMB     82       DOPC     H3X      HAL2     0.900000E-01   1.00800           0
     11772 MEMB     82       DOPC     H3Y      HAL2     0.900000E-01   1.00800           0
     11773 MEMB     82       DOPC     C34      CTL2    -0.180000       12.0110           0
     11774 MEMB     82       DOPC     H4X      HAL2     0.900000E-01   1.00800           0
     11775 MEMB     82       DOPC     H4Y      HAL2     0.900000E-01   1.00800           0
     11776 MEMB     82       DOPC     C35      CTL2    -0.180000       12.0110           0
     11777 MEMB     82       DOPC     H5X      HAL2     0.900000E-01   1.00800           0
     11778 MEMB     82       DOPC     H5Y      HAL2     0.900000E-01   1.00800           0
     11779 MEMB     82       DOPC     C36      CTL2    -0.180000       12.0110           0
     11780 MEMB     82       DOPC     H6X      HAL2     0.900000E-01   1.00800           0
     11781 MEMB     82       DOPC     H6Y      HAL2     0.900000E-01   1.00800           0
     11782 MEMB     82       DOPC     C37      CTL2    -0.180000       12.0110           0
     11783 MEMB     82       DOPC     H7X      HAL2     0.900000E-01   1.00800           0
     11784 MEMB     82       DOPC     H7Y      HAL2     0.900000E-01   1.00800           0
     11785 MEMB     82       DOPC     C38      CTL2    -0.180000       12.0110           0
     11786 MEMB     82       DOPC     H8X      HAL2     0.900000E-01   1.00800           0
     11787 MEMB     82       DOPC     H8Y      HAL2     0.900000E-01   1.00800           0
     11788 MEMB     82       DOPC     C39      CEL1    -0.150000       12.0110           0
     11789 MEMB     82       DOPC     H9X      HEL1     0.150000       1.00800           0
     11790 MEMB     82       DOPC     C310     CEL1    -0.150000       12.0110           0
     11791 MEMB     82       DOPC     H10X     HEL1     0.150000       1.00800           0
     11792 MEMB     82       DOPC     C311     CTL2    -0.180000       12.0110           0
     11793 MEMB     82       DOPC     H11X     HAL2     0.900000E-01   1.00800           0
     11794 MEMB     82       DOPC     H11Y     HAL2     0.900000E-01   1.00800           0
     11795 MEMB     82       DOPC     C312     CTL2    -0.180000       12.0110           0
     11796 MEMB     82       DOPC     H12X     HAL2     0.900000E-01   1.00800           0
     11797 MEMB     82       DOPC     H12Y     HAL2     0.900000E-01   1.00800           0
     11798 MEMB     82       DOPC     C313     CTL2    -0.180000       12.0110           0
     11799 MEMB     82       DOPC     H13X     HAL2     0.900000E-01   1.00800           0
     11800 MEMB     82       DOPC     H13Y     HAL2     0.900000E-01   1.00800           0
     11801 MEMB     82       DOPC     C314     CTL2    -0.180000       12.0110           0
     11802 MEMB     82       DOPC     H14X     HAL2     0.900000E-01   1.00800           0
     11803 MEMB     82       DOPC     H14Y     HAL2     0.900000E-01   1.00800           0
     11804 MEMB     82       DOPC     C315     CTL2    -0.180000       12.0110           0
     11805 MEMB     82       DOPC     H15X     HAL2     0.900000E-01   1.00800           0
     11806 MEMB     82       DOPC     H15Y     HAL2     0.900000E-01   1.00800           0
     11807 MEMB     82       DOPC     C316     CTL2    -0.180000       12.0110           0
     11808 MEMB     82       DOPC     H16X     HAL2     0.900000E-01   1.00800           0
     11809 MEMB     82       DOPC     H16Y     HAL2     0.900000E-01   1.00800           0
     11810 MEMB     82       DOPC     C317     CTL2    -0.180000       12.0110           0
     11811 MEMB     82       DOPC     H17X     HAL2     0.900000E-01   1.00800           0
     11812 MEMB     82       DOPC     H17Y     HAL2     0.900000E-01   1.00800           0
     11813 MEMB     82       DOPC     C318     CTL3    -0.270000       12.0110           0
     11814 MEMB     82       DOPC     H18X     HAL3     0.900000E-01   1.00800           0
     11815 MEMB     82       DOPC     H18Y     HAL3     0.900000E-01   1.00800           0
     11816 MEMB     82       DOPC     H18Z     HAL3     0.900000E-01   1.00800           0
     11817 MEMB     83       DOPC     N        NTL     -0.600000       14.0070           0
     11818 MEMB     83       DOPC     C12      CTL2    -0.100000       12.0110           0
     11819 MEMB     83       DOPC     H12A     HL       0.250000       1.00800           0
     11820 MEMB     83       DOPC     H12B     HL       0.250000       1.00800           0
     11821 MEMB     83       DOPC     C13      CTL5    -0.350000       12.0110           0
     11822 MEMB     83       DOPC     H13A     HL       0.250000       1.00800           0
     11823 MEMB     83       DOPC     H13B     HL       0.250000       1.00800           0
     11824 MEMB     83       DOPC     H13C     HL       0.250000       1.00800           0
     11825 MEMB     83       DOPC     C14      CTL5    -0.350000       12.0110           0
     11826 MEMB     83       DOPC     H14A     HL       0.250000       1.00800           0
     11827 MEMB     83       DOPC     H14B     HL       0.250000       1.00800           0
     11828 MEMB     83       DOPC     H14C     HL       0.250000       1.00800           0
     11829 MEMB     83       DOPC     C15      CTL5    -0.350000       12.0110           0
     11830 MEMB     83       DOPC     H15A     HL       0.250000       1.00800           0
     11831 MEMB     83       DOPC     H15B     HL       0.250000       1.00800           0
     11832 MEMB     83       DOPC     H15C     HL       0.250000       1.00800           0
     11833 MEMB     83       DOPC     C11      CTL2    -0.800000E-01   12.0110           0
     11834 MEMB     83       DOPC     H11A     HAL2     0.900000E-01   1.00800           0
     11835 MEMB     83       DOPC     H11B     HAL2     0.900000E-01   1.00800           0
     11836 MEMB     83       DOPC     P        PL        1.50000       30.9740           0
     11837 MEMB     83       DOPC     O13      O2L     -0.780000       15.9994           0
     11838 MEMB     83       DOPC     O14      O2L     -0.780000       15.9994           0
     11839 MEMB     83       DOPC     O12      OSLP    -0.570000       15.9994           0
     11840 MEMB     83       DOPC     O11      OSLP    -0.570000       15.9994           0
     11841 MEMB     83       DOPC     C1       CTL2    -0.800000E-01   12.0110           0
     11842 MEMB     83       DOPC     HA       HAL2     0.900000E-01   1.00800           0
     11843 MEMB     83       DOPC     HB       HAL2     0.900000E-01   1.00800           0
     11844 MEMB     83       DOPC     C2       CTL1     0.170000       12.0110           0
     11845 MEMB     83       DOPC     HS       HAL1     0.900000E-01   1.00800           0
     11846 MEMB     83       DOPC     O21      OSL     -0.490000       15.9994           0
     11847 MEMB     83       DOPC     C21      CL       0.900000       12.0110           0
     11848 MEMB     83       DOPC     O22      OBL     -0.630000       15.9994           0
     11849 MEMB     83       DOPC     C22      CTL2    -0.220000       12.0110           0
     11850 MEMB     83       DOPC     H2R      HAL2     0.900000E-01   1.00800           0
     11851 MEMB     83       DOPC     H2S      HAL2     0.900000E-01   1.00800           0
     11852 MEMB     83       DOPC     C3       CTL2     0.800000E-01   12.0110           0
     11853 MEMB     83       DOPC     HX       HAL2     0.900000E-01   1.00800           0
     11854 MEMB     83       DOPC     HY       HAL2     0.900000E-01   1.00800           0
     11855 MEMB     83       DOPC     O31      OSL     -0.490000       15.9994           0
     11856 MEMB     83       DOPC     C31      CL       0.900000       12.0110           0
     11857 MEMB     83       DOPC     O32      OBL     -0.630000       15.9994           0
     11858 MEMB     83       DOPC     C32      CTL2    -0.220000       12.0110           0
     11859 MEMB     83       DOPC     H2X      HAL2     0.900000E-01   1.00800           0
     11860 MEMB     83       DOPC     H2Y      HAL2     0.900000E-01   1.00800           0
     11861 MEMB     83       DOPC     C23      CTL2    -0.180000       12.0110           0
     11862 MEMB     83       DOPC     H3R      HAL2     0.900000E-01   1.00800           0
     11863 MEMB     83       DOPC     H3S      HAL2     0.900000E-01   1.00800           0
     11864 MEMB     83       DOPC     C24      CTL2    -0.180000       12.0110           0
     11865 MEMB     83       DOPC     H4R      HAL2     0.900000E-01   1.00800           0
     11866 MEMB     83       DOPC     H4S      HAL2     0.900000E-01   1.00800           0
     11867 MEMB     83       DOPC     C25      CTL2    -0.180000       12.0110           0
     11868 MEMB     83       DOPC     H5R      HAL2     0.900000E-01   1.00800           0
     11869 MEMB     83       DOPC     H5S      HAL2     0.900000E-01   1.00800           0
     11870 MEMB     83       DOPC     C26      CTL2    -0.180000       12.0110           0
     11871 MEMB     83       DOPC     H6R      HAL2     0.900000E-01   1.00800           0
     11872 MEMB     83       DOPC     H6S      HAL2     0.900000E-01   1.00800           0
     11873 MEMB     83       DOPC     C27      CTL2    -0.180000       12.0110           0
     11874 MEMB     83       DOPC     H7R      HAL2     0.900000E-01   1.00800           0
     11875 MEMB     83       DOPC     H7S      HAL2     0.900000E-01   1.00800           0
     11876 MEMB     83       DOPC     C28      CTL2    -0.180000       12.0110           0
     11877 MEMB     83       DOPC     H8R      HAL2     0.900000E-01   1.00800           0
     11878 MEMB     83       DOPC     H8S      HAL2     0.900000E-01   1.00800           0
     11879 MEMB     83       DOPC     C29      CEL1    -0.150000       12.0110           0
     11880 MEMB     83       DOPC     H9R      HEL1     0.150000       1.00800           0
     11881 MEMB     83       DOPC     C210     CEL1    -0.150000       12.0110           0
     11882 MEMB     83       DOPC     H10R     HEL1     0.150000       1.00800           0
     11883 MEMB     83       DOPC     C211     CTL2    -0.180000       12.0110           0
     11884 MEMB     83       DOPC     H11R     HAL2     0.900000E-01   1.00800           0
     11885 MEMB     83       DOPC     H11S     HAL2     0.900000E-01   1.00800           0
     11886 MEMB     83       DOPC     C212     CTL2    -0.180000       12.0110           0
     11887 MEMB     83       DOPC     H12R     HAL2     0.900000E-01   1.00800           0
     11888 MEMB     83       DOPC     H12S     HAL2     0.900000E-01   1.00800           0
     11889 MEMB     83       DOPC     C213     CTL2    -0.180000       12.0110           0
     11890 MEMB     83       DOPC     H13R     HAL2     0.900000E-01   1.00800           0
     11891 MEMB     83       DOPC     H13S     HAL2     0.900000E-01   1.00800           0
     11892 MEMB     83       DOPC     C214     CTL2    -0.180000       12.0110           0
     11893 MEMB     83       DOPC     H14R     HAL2     0.900000E-01   1.00800           0
     11894 MEMB     83       DOPC     H14S     HAL2     0.900000E-01   1.00800           0
     11895 MEMB     83       DOPC     C215     CTL2    -0.180000       12.0110           0
     11896 MEMB     83       DOPC     H15R     HAL2     0.900000E-01   1.00800           0
     11897 MEMB     83       DOPC     H15S     HAL2     0.900000E-01   1.00800           0
     11898 MEMB     83       DOPC     C216     CTL2    -0.180000       12.0110           0
     11899 MEMB     83       DOPC     H16R     HAL2     0.900000E-01   1.00800           0
     11900 MEMB     83       DOPC     H16S     HAL2     0.900000E-01   1.00800           0
     11901 MEMB     83       DOPC     C217     CTL2    -0.180000       12.0110           0
     11902 MEMB     83       DOPC     H17R     HAL2     0.900000E-01   1.00800           0
     11903 MEMB     83       DOPC     H17S     HAL2     0.900000E-01   1.00800           0
     11904 MEMB     83       DOPC     C218     CTL3    -0.270000       12.0110           0
     11905 MEMB     83       DOPC     H18R     HAL3     0.900000E-01   1.00800           0
     11906 MEMB     83       DOPC     H18S     HAL3     0.900000E-01   1.00800           0
     11907 MEMB     83       DOPC     H18T     HAL3     0.900000E-01   1.00800           0
     11908 MEMB     83       DOPC     C33      CTL2    -0.180000       12.0110           0
     11909 MEMB     83       DOPC     H3X      HAL2     0.900000E-01   1.00800           0
     11910 MEMB     83       DOPC     H3Y      HAL2     0.900000E-01   1.00800           0
     11911 MEMB     83       DOPC     C34      CTL2    -0.180000       12.0110           0
     11912 MEMB     83       DOPC     H4X      HAL2     0.900000E-01   1.00800           0
     11913 MEMB     83       DOPC     H4Y      HAL2     0.900000E-01   1.00800           0
     11914 MEMB     83       DOPC     C35      CTL2    -0.180000       12.0110           0
     11915 MEMB     83       DOPC     H5X      HAL2     0.900000E-01   1.00800           0
     11916 MEMB     83       DOPC     H5Y      HAL2     0.900000E-01   1.00800           0
     11917 MEMB     83       DOPC     C36      CTL2    -0.180000       12.0110           0
     11918 MEMB     83       DOPC     H6X      HAL2     0.900000E-01   1.00800           0
     11919 MEMB     83       DOPC     H6Y      HAL2     0.900000E-01   1.00800           0
     11920 MEMB     83       DOPC     C37      CTL2    -0.180000       12.0110           0
     11921 MEMB     83       DOPC     H7X      HAL2     0.900000E-01   1.00800           0
     11922 MEMB     83       DOPC     H7Y      HAL2     0.900000E-01   1.00800           0
     11923 MEMB     83       DOPC     C38      CTL2    -0.180000       12.0110           0
     11924 MEMB     83       DOPC     H8X      HAL2     0.900000E-01   1.00800           0
     11925 MEMB     83       DOPC     H8Y      HAL2     0.900000E-01   1.00800           0
     11926 MEMB     83       DOPC     C39      CEL1    -0.150000       12.0110           0
     11927 MEMB     83       DOPC     H9X      HEL1     0.150000       1.00800           0
     11928 MEMB     83       DOPC     C310     CEL1    -0.150000       12.0110           0
     11929 MEMB     83       DOPC     H10X     HEL1     0.150000       1.00800           0
     11930 MEMB     83       DOPC     C311     CTL2    -0.180000       12.0110           0
     11931 MEMB     83       DOPC     H11X     HAL2     0.900000E-01   1.00800           0
     11932 MEMB     83       DOPC     H11Y     HAL2     0.900000E-01   1.00800           0
     11933 MEMB     83       DOPC     C312     CTL2    -0.180000       12.0110           0
     11934 MEMB     83       DOPC     H12X     HAL2     0.900000E-01   1.00800           0
     11935 MEMB     83       DOPC     H12Y     HAL2     0.900000E-01   1.00800           0
     11936 MEMB     83       DOPC     C313     CTL2    -0.180000       12.0110           0
     11937 MEMB     83       DOPC     H13X     HAL2     0.900000E-01   1.00800           0
     11938 MEMB     83       DOPC     H13Y     HAL2     0.900000E-01   1.00800           0
     11939 MEMB     83       DOPC     C314     CTL2    -0.180000       12.0110           0
     11940 MEMB     83       DOPC     H14X     HAL2     0.900000E-01   1.00800           0
     11941 MEMB     83       DOPC     H14Y     HAL2     0.900000E-01   1.00800           0
     11942 MEMB     83       DOPC     C315     CTL2    -0.180000       12.0110           0
     11943 MEMB     83       DOPC     H15X     HAL2     0.900000E-01   1.00800           0
     11944 MEMB     83       DOPC     H15Y     HAL2     0.900000E-01   1.00800           0
     11945 MEMB     83       DOPC     C316     CTL2    -0.180000       12.0110           0
     11946 MEMB     83       DOPC     H16X     HAL2     0.900000E-01   1.00800           0
     11947 MEMB     83       DOPC     H16Y     HAL2     0.900000E-01   1.00800           0
     11948 MEMB     83       DOPC     C317     CTL2    -0.180000       12.0110           0
     11949 MEMB     83       DOPC     H17X     HAL2     0.900000E-01   1.00800           0
     11950 MEMB     83       DOPC     H17Y     HAL2     0.900000E-01   1.00800           0
     11951 MEMB     83       DOPC     C318     CTL3    -0.270000       12.0110           0
     11952 MEMB     83       DOPC     H18X     HAL3     0.900000E-01   1.00800           0
     11953 MEMB     83       DOPC     H18Y     HAL3     0.900000E-01   1.00800           0
     11954 MEMB     83       DOPC     H18Z     HAL3     0.900000E-01   1.00800           0
     11955 MEMB     84       DOPC     N        NTL     -0.600000       14.0070           0
     11956 MEMB     84       DOPC     C12      CTL2    -0.100000       12.0110           0
     11957 MEMB     84       DOPC     H12A     HL       0.250000       1.00800           0
     11958 MEMB     84       DOPC     H12B     HL       0.250000       1.00800           0
     11959 MEMB     84       DOPC     C13      CTL5    -0.350000       12.0110           0
     11960 MEMB     84       DOPC     H13A     HL       0.250000       1.00800           0
     11961 MEMB     84       DOPC     H13B     HL       0.250000       1.00800           0
     11962 MEMB     84       DOPC     H13C     HL       0.250000       1.00800           0
     11963 MEMB     84       DOPC     C14      CTL5    -0.350000       12.0110           0
     11964 MEMB     84       DOPC     H14A     HL       0.250000       1.00800           0
     11965 MEMB     84       DOPC     H14B     HL       0.250000       1.00800           0
     11966 MEMB     84       DOPC     H14C     HL       0.250000       1.00800           0
     11967 MEMB     84       DOPC     C15      CTL5    -0.350000       12.0110           0
     11968 MEMB     84       DOPC     H15A     HL       0.250000       1.00800           0
     11969 MEMB     84       DOPC     H15B     HL       0.250000       1.00800           0
     11970 MEMB     84       DOPC     H15C     HL       0.250000       1.00800           0
     11971 MEMB     84       DOPC     C11      CTL2    -0.800000E-01   12.0110           0
     11972 MEMB     84       DOPC     H11A     HAL2     0.900000E-01   1.00800           0
     11973 MEMB     84       DOPC     H11B     HAL2     0.900000E-01   1.00800           0
     11974 MEMB     84       DOPC     P        PL        1.50000       30.9740           0
     11975 MEMB     84       DOPC     O13      O2L     -0.780000       15.9994           0
     11976 MEMB     84       DOPC     O14      O2L     -0.780000       15.9994           0
     11977 MEMB     84       DOPC     O12      OSLP    -0.570000       15.9994           0
     11978 MEMB     84       DOPC     O11      OSLP    -0.570000       15.9994           0
     11979 MEMB     84       DOPC     C1       CTL2    -0.800000E-01   12.0110           0
     11980 MEMB     84       DOPC     HA       HAL2     0.900000E-01   1.00800           0
     11981 MEMB     84       DOPC     HB       HAL2     0.900000E-01   1.00800           0
     11982 MEMB     84       DOPC     C2       CTL1     0.170000       12.0110           0
     11983 MEMB     84       DOPC     HS       HAL1     0.900000E-01   1.00800           0
     11984 MEMB     84       DOPC     O21      OSL     -0.490000       15.9994           0
     11985 MEMB     84       DOPC     C21      CL       0.900000       12.0110           0
     11986 MEMB     84       DOPC     O22      OBL     -0.630000       15.9994           0
     11987 MEMB     84       DOPC     C22      CTL2    -0.220000       12.0110           0
     11988 MEMB     84       DOPC     H2R      HAL2     0.900000E-01   1.00800           0
     11989 MEMB     84       DOPC     H2S      HAL2     0.900000E-01   1.00800           0
     11990 MEMB     84       DOPC     C3       CTL2     0.800000E-01   12.0110           0
     11991 MEMB     84       DOPC     HX       HAL2     0.900000E-01   1.00800           0
     11992 MEMB     84       DOPC     HY       HAL2     0.900000E-01   1.00800           0
     11993 MEMB     84       DOPC     O31      OSL     -0.490000       15.9994           0
     11994 MEMB     84       DOPC     C31      CL       0.900000       12.0110           0
     11995 MEMB     84       DOPC     O32      OBL     -0.630000       15.9994           0
     11996 MEMB     84       DOPC     C32      CTL2    -0.220000       12.0110           0
     11997 MEMB     84       DOPC     H2X      HAL2     0.900000E-01   1.00800           0
     11998 MEMB     84       DOPC     H2Y      HAL2     0.900000E-01   1.00800           0
     11999 MEMB     84       DOPC     C23      CTL2    -0.180000       12.0110           0
     12000 MEMB     84       DOPC     H3R      HAL2     0.900000E-01   1.00800           0
     12001 MEMB     84       DOPC     H3S      HAL2     0.900000E-01   1.00800           0
     12002 MEMB     84       DOPC     C24      CTL2    -0.180000       12.0110           0
     12003 MEMB     84       DOPC     H4R      HAL2     0.900000E-01   1.00800           0
     12004 MEMB     84       DOPC     H4S      HAL2     0.900000E-01   1.00800           0
     12005 MEMB     84       DOPC     C25      CTL2    -0.180000       12.0110           0
     12006 MEMB     84       DOPC     H5R      HAL2     0.900000E-01   1.00800           0
     12007 MEMB     84       DOPC     H5S      HAL2     0.900000E-01   1.00800           0
     12008 MEMB     84       DOPC     C26      CTL2    -0.180000       12.0110           0
     12009 MEMB     84       DOPC     H6R      HAL2     0.900000E-01   1.00800           0
     12010 MEMB     84       DOPC     H6S      HAL2     0.900000E-01   1.00800           0
     12011 MEMB     84       DOPC     C27      CTL2    -0.180000       12.0110           0
     12012 MEMB     84       DOPC     H7R      HAL2     0.900000E-01   1.00800           0
     12013 MEMB     84       DOPC     H7S      HAL2     0.900000E-01   1.00800           0
     12014 MEMB     84       DOPC     C28      CTL2    -0.180000       12.0110           0
     12015 MEMB     84       DOPC     H8R      HAL2     0.900000E-01   1.00800           0
     12016 MEMB     84       DOPC     H8S      HAL2     0.900000E-01   1.00800           0
     12017 MEMB     84       DOPC     C29      CEL1    -0.150000       12.0110           0
     12018 MEMB     84       DOPC     H9R      HEL1     0.150000       1.00800           0
     12019 MEMB     84       DOPC     C210     CEL1    -0.150000       12.0110           0
     12020 MEMB     84       DOPC     H10R     HEL1     0.150000       1.00800           0
     12021 MEMB     84       DOPC     C211     CTL2    -0.180000       12.0110           0
     12022 MEMB     84       DOPC     H11R     HAL2     0.900000E-01   1.00800           0
     12023 MEMB     84       DOPC     H11S     HAL2     0.900000E-01   1.00800           0
     12024 MEMB     84       DOPC     C212     CTL2    -0.180000       12.0110           0
     12025 MEMB     84       DOPC     H12R     HAL2     0.900000E-01   1.00800           0
     12026 MEMB     84       DOPC     H12S     HAL2     0.900000E-01   1.00800           0
     12027 MEMB     84       DOPC     C213     CTL2    -0.180000       12.0110           0
     12028 MEMB     84       DOPC     H13R     HAL2     0.900000E-01   1.00800           0
     12029 MEMB     84       DOPC     H13S     HAL2     0.900000E-01   1.00800           0
     12030 MEMB     84       DOPC     C214     CTL2    -0.180000       12.0110           0
     12031 MEMB     84       DOPC     H14R     HAL2     0.900000E-01   1.00800           0
     12032 MEMB     84       DOPC     H14S     HAL2     0.900000E-01   1.00800           0
     12033 MEMB     84       DOPC     C215     CTL2    -0.180000       12.0110           0
     12034 MEMB     84       DOPC     H15R     HAL2     0.900000E-01   1.00800           0
     12035 MEMB     84       DOPC     H15S     HAL2     0.900000E-01   1.00800           0
     12036 MEMB     84       DOPC     C216     CTL2    -0.180000       12.0110           0
     12037 MEMB     84       DOPC     H16R     HAL2     0.900000E-01   1.00800           0
     12038 MEMB     84       DOPC     H16S     HAL2     0.900000E-01   1.00800           0
     12039 MEMB     84       DOPC     C217     CTL2    -0.180000       12.0110           0
     12040 MEMB     84       DOPC     H17R     HAL2     0.900000E-01   1.00800           0
     12041 MEMB     84       DOPC     H17S     HAL2     0.900000E-01   1.00800           0
     12042 MEMB     84       DOPC     C218     CTL3    -0.270000       12.0110           0
     12043 MEMB     84       DOPC     H18R     HAL3     0.900000E-01   1.00800           0
     12044 MEMB     84       DOPC     H18S     HAL3     0.900000E-01   1.00800           0
     12045 MEMB     84       DOPC     H18T     HAL3     0.900000E-01   1.00800           0
     12046 MEMB     84       DOPC     C33      CTL2    -0.180000       12.0110           0
     12047 MEMB     84       DOPC     H3X      HAL2     0.900000E-01   1.00800           0
     12048 MEMB     84       DOPC     H3Y      HAL2     0.900000E-01   1.00800           0
     12049 MEMB     84       DOPC     C34      CTL2    -0.180000       12.0110           0
     12050 MEMB     84       DOPC     H4X      HAL2     0.900000E-01   1.00800           0
     12051 MEMB     84       DOPC     H4Y      HAL2     0.900000E-01   1.00800           0
     12052 MEMB     84       DOPC     C35      CTL2    -0.180000       12.0110           0
     12053 MEMB     84       DOPC     H5X      HAL2     0.900000E-01   1.00800           0
     12054 MEMB     84       DOPC     H5Y      HAL2     0.900000E-01   1.00800           0
     12055 MEMB     84       DOPC     C36      CTL2    -0.180000       12.0110           0
     12056 MEMB     84       DOPC     H6X      HAL2     0.900000E-01   1.00800           0
     12057 MEMB     84       DOPC     H6Y      HAL2     0.900000E-01   1.00800           0
     12058 MEMB     84       DOPC     C37      CTL2    -0.180000       12.0110           0
     12059 MEMB     84       DOPC     H7X      HAL2     0.900000E-01   1.00800           0
     12060 MEMB     84       DOPC     H7Y      HAL2     0.900000E-01   1.00800           0
     12061 MEMB     84       DOPC     C38      CTL2    -0.180000       12.0110           0
     12062 MEMB     84       DOPC     H8X      HAL2     0.900000E-01   1.00800           0
     12063 MEMB     84       DOPC     H8Y      HAL2     0.900000E-01   1.00800           0
     12064 MEMB     84       DOPC     C39      CEL1    -0.150000       12.0110           0
     12065 MEMB     84       DOPC     H9X      HEL1     0.150000       1.00800           0
     12066 MEMB     84       DOPC     C310     CEL1    -0.150000       12.0110           0
     12067 MEMB     84       DOPC     H10X     HEL1     0.150000       1.00800           0
     12068 MEMB     84       DOPC     C311     CTL2    -0.180000       12.0110           0
     12069 MEMB     84       DOPC     H11X     HAL2     0.900000E-01   1.00800           0
     12070 MEMB     84       DOPC     H11Y     HAL2     0.900000E-01   1.00800           0
     12071 MEMB     84       DOPC     C312     CTL2    -0.180000       12.0110           0
     12072 MEMB     84       DOPC     H12X     HAL2     0.900000E-01   1.00800           0
     12073 MEMB     84       DOPC     H12Y     HAL2     0.900000E-01   1.00800           0
     12074 MEMB     84       DOPC     C313     CTL2    -0.180000       12.0110           0
     12075 MEMB     84       DOPC     H13X     HAL2     0.900000E-01   1.00800           0
     12076 MEMB     84       DOPC     H13Y     HAL2     0.900000E-01   1.00800           0
     12077 MEMB     84       DOPC     C314     CTL2    -0.180000       12.0110           0
     12078 MEMB     84       DOPC     H14X     HAL2     0.900000E-01   1.00800           0
     12079 MEMB     84       DOPC     H14Y     HAL2     0.900000E-01   1.00800           0
     12080 MEMB     84       DOPC     C315     CTL2    -0.180000       12.0110           0
     12081 MEMB     84       DOPC     H15X     HAL2     0.900000E-01   1.00800           0
     12082 MEMB     84       DOPC     H15Y     HAL2     0.900000E-01   1.00800           0
     12083 MEMB     84       DOPC     C316     CTL2    -0.180000       12.0110           0
     12084 MEMB     84       DOPC     H16X     HAL2     0.900000E-01   1.00800           0
     12085 MEMB     84       DOPC     H16Y     HAL2     0.900000E-01   1.00800           0
     12086 MEMB     84       DOPC     C317     CTL2    -0.180000       12.0110           0
     12087 MEMB     84       DOPC     H17X     HAL2     0.900000E-01   1.00800           0
     12088 MEMB     84       DOPC     H17Y     HAL2     0.900000E-01   1.00800           0
     12089 MEMB     84       DOPC     C318     CTL3    -0.270000       12.0110           0
     12090 MEMB     84       DOPC     H18X     HAL3     0.900000E-01   1.00800           0
     12091 MEMB     84       DOPC     H18Y     HAL3     0.900000E-01   1.00800           0
     12092 MEMB     84       DOPC     H18Z     HAL3     0.900000E-01   1.00800           0
     12093 MEMB     85       DOPC     N        NTL     -0.600000       14.0070           0
     12094 MEMB     85       DOPC     C12      CTL2    -0.100000       12.0110           0
     12095 MEMB     85       DOPC     H12A     HL       0.250000       1.00800           0
     12096 MEMB     85       DOPC     H12B     HL       0.250000       1.00800           0
     12097 MEMB     85       DOPC     C13      CTL5    -0.350000       12.0110           0
     12098 MEMB     85       DOPC     H13A     HL       0.250000       1.00800           0
     12099 MEMB     85       DOPC     H13B     HL       0.250000       1.00800           0
     12100 MEMB     85       DOPC     H13C     HL       0.250000       1.00800           0
     12101 MEMB     85       DOPC     C14      CTL5    -0.350000       12.0110           0
     12102 MEMB     85       DOPC     H14A     HL       0.250000       1.00800           0
     12103 MEMB     85       DOPC     H14B     HL       0.250000       1.00800           0
     12104 MEMB     85       DOPC     H14C     HL       0.250000       1.00800           0
     12105 MEMB     85       DOPC     C15      CTL5    -0.350000       12.0110           0
     12106 MEMB     85       DOPC     H15A     HL       0.250000       1.00800           0
     12107 MEMB     85       DOPC     H15B     HL       0.250000       1.00800           0
     12108 MEMB     85       DOPC     H15C     HL       0.250000       1.00800           0
     12109 MEMB     85       DOPC     C11      CTL2    -0.800000E-01   12.0110           0
     12110 MEMB     85       DOPC     H11A     HAL2     0.900000E-01   1.00800           0
     12111 MEMB     85       DOPC     H11B     HAL2     0.900000E-01   1.00800           0
     12112 MEMB     85       DOPC     P        PL        1.50000       30.9740           0
     12113 MEMB     85       DOPC     O13      O2L     -0.780000       15.9994           0
     12114 MEMB     85       DOPC     O14      O2L     -0.780000       15.9994           0
     12115 MEMB     85       DOPC     O12      OSLP    -0.570000       15.9994           0
     12116 MEMB     85       DOPC     O11      OSLP    -0.570000       15.9994           0
     12117 MEMB     85       DOPC     C1       CTL2    -0.800000E-01   12.0110           0
     12118 MEMB     85       DOPC     HA       HAL2     0.900000E-01   1.00800           0
     12119 MEMB     85       DOPC     HB       HAL2     0.900000E-01   1.00800           0
     12120 MEMB     85       DOPC     C2       CTL1     0.170000       12.0110           0
     12121 MEMB     85       DOPC     HS       HAL1     0.900000E-01   1.00800           0
     12122 MEMB     85       DOPC     O21      OSL     -0.490000       15.9994           0
     12123 MEMB     85       DOPC     C21      CL       0.900000       12.0110           0
     12124 MEMB     85       DOPC     O22      OBL     -0.630000       15.9994           0
     12125 MEMB     85       DOPC     C22      CTL2    -0.220000       12.0110           0
     12126 MEMB     85       DOPC     H2R      HAL2     0.900000E-01   1.00800           0
     12127 MEMB     85       DOPC     H2S      HAL2     0.900000E-01   1.00800           0
     12128 MEMB     85       DOPC     C3       CTL2     0.800000E-01   12.0110           0
     12129 MEMB     85       DOPC     HX       HAL2     0.900000E-01   1.00800           0
     12130 MEMB     85       DOPC     HY       HAL2     0.900000E-01   1.00800           0
     12131 MEMB     85       DOPC     O31      OSL     -0.490000       15.9994           0
     12132 MEMB     85       DOPC     C31      CL       0.900000       12.0110           0
     12133 MEMB     85       DOPC     O32      OBL     -0.630000       15.9994           0
     12134 MEMB     85       DOPC     C32      CTL2    -0.220000       12.0110           0
     12135 MEMB     85       DOPC     H2X      HAL2     0.900000E-01   1.00800           0
     12136 MEMB     85       DOPC     H2Y      HAL2     0.900000E-01   1.00800           0
     12137 MEMB     85       DOPC     C23      CTL2    -0.180000       12.0110           0
     12138 MEMB     85       DOPC     H3R      HAL2     0.900000E-01   1.00800           0
     12139 MEMB     85       DOPC     H3S      HAL2     0.900000E-01   1.00800           0
     12140 MEMB     85       DOPC     C24      CTL2    -0.180000       12.0110           0
     12141 MEMB     85       DOPC     H4R      HAL2     0.900000E-01   1.00800           0
     12142 MEMB     85       DOPC     H4S      HAL2     0.900000E-01   1.00800           0
     12143 MEMB     85       DOPC     C25      CTL2    -0.180000       12.0110           0
     12144 MEMB     85       DOPC     H5R      HAL2     0.900000E-01   1.00800           0
     12145 MEMB     85       DOPC     H5S      HAL2     0.900000E-01   1.00800           0
     12146 MEMB     85       DOPC     C26      CTL2    -0.180000       12.0110           0
     12147 MEMB     85       DOPC     H6R      HAL2     0.900000E-01   1.00800           0
     12148 MEMB     85       DOPC     H6S      HAL2     0.900000E-01   1.00800           0
     12149 MEMB     85       DOPC     C27      CTL2    -0.180000       12.0110           0
     12150 MEMB     85       DOPC     H7R      HAL2     0.900000E-01   1.00800           0
     12151 MEMB     85       DOPC     H7S      HAL2     0.900000E-01   1.00800           0
     12152 MEMB     85       DOPC     C28      CTL2    -0.180000       12.0110           0
     12153 MEMB     85       DOPC     H8R      HAL2     0.900000E-01   1.00800           0
     12154 MEMB     85       DOPC     H8S      HAL2     0.900000E-01   1.00800           0
     12155 MEMB     85       DOPC     C29      CEL1    -0.150000       12.0110           0
     12156 MEMB     85       DOPC     H9R      HEL1     0.150000       1.00800           0
     12157 MEMB     85       DOPC     C210     CEL1    -0.150000       12.0110           0
     12158 MEMB     85       DOPC     H10R     HEL1     0.150000       1.00800           0
     12159 MEMB     85       DOPC     C211     CTL2    -0.180000       12.0110           0
     12160 MEMB     85       DOPC     H11R     HAL2     0.900000E-01   1.00800           0
     12161 MEMB     85       DOPC     H11S     HAL2     0.900000E-01   1.00800           0
     12162 MEMB     85       DOPC     C212     CTL2    -0.180000       12.0110           0
     12163 MEMB     85       DOPC     H12R     HAL2     0.900000E-01   1.00800           0
     12164 MEMB     85       DOPC     H12S     HAL2     0.900000E-01   1.00800           0
     12165 MEMB     85       DOPC     C213     CTL2    -0.180000       12.0110           0
     12166 MEMB     85       DOPC     H13R     HAL2     0.900000E-01   1.00800           0
     12167 MEMB     85       DOPC     H13S     HAL2     0.900000E-01   1.00800           0
     12168 MEMB     85       DOPC     C214     CTL2    -0.180000       12.0110           0
     12169 MEMB     85       DOPC     H14R     HAL2     0.900000E-01   1.00800           0
     12170 MEMB     85       DOPC     H14S     HAL2     0.900000E-01   1.00800           0
     12171 MEMB     85       DOPC     C215     CTL2    -0.180000       12.0110           0
     12172 MEMB     85       DOPC     H15R     HAL2     0.900000E-01   1.00800           0
     12173 MEMB     85       DOPC     H15S     HAL2     0.900000E-01   1.00800           0
     12174 MEMB     85       DOPC     C216     CTL2    -0.180000       12.0110           0
     12175 MEMB     85       DOPC     H16R     HAL2     0.900000E-01   1.00800           0
     12176 MEMB     85       DOPC     H16S     HAL2     0.900000E-01   1.00800           0
     12177 MEMB     85       DOPC     C217     CTL2    -0.180000       12.0110           0
     12178 MEMB     85       DOPC     H17R     HAL2     0.900000E-01   1.00800           0
     12179 MEMB     85       DOPC     H17S     HAL2     0.900000E-01   1.00800           0
     12180 MEMB     85       DOPC     C218     CTL3    -0.270000       12.0110           0
     12181 MEMB     85       DOPC     H18R     HAL3     0.900000E-01   1.00800           0
     12182 MEMB     85       DOPC     H18S     HAL3     0.900000E-01   1.00800           0
     12183 MEMB     85       DOPC     H18T     HAL3     0.900000E-01   1.00800           0
     12184 MEMB     85       DOPC     C33      CTL2    -0.180000       12.0110           0
     12185 MEMB     85       DOPC     H3X      HAL2     0.900000E-01   1.00800           0
     12186 MEMB     85       DOPC     H3Y      HAL2     0.900000E-01   1.00800           0
     12187 MEMB     85       DOPC     C34      CTL2    -0.180000       12.0110           0
     12188 MEMB     85       DOPC     H4X      HAL2     0.900000E-01   1.00800           0
     12189 MEMB     85       DOPC     H4Y      HAL2     0.900000E-01   1.00800           0
     12190 MEMB     85       DOPC     C35      CTL2    -0.180000       12.0110           0
     12191 MEMB     85       DOPC     H5X      HAL2     0.900000E-01   1.00800           0
     12192 MEMB     85       DOPC     H5Y      HAL2     0.900000E-01   1.00800           0
     12193 MEMB     85       DOPC     C36      CTL2    -0.180000       12.0110           0
     12194 MEMB     85       DOPC     H6X      HAL2     0.900000E-01   1.00800           0
     12195 MEMB     85       DOPC     H6Y      HAL2     0.900000E-01   1.00800           0
     12196 MEMB     85       DOPC     C37      CTL2    -0.180000       12.0110           0
     12197 MEMB     85       DOPC     H7X      HAL2     0.900000E-01   1.00800           0
     12198 MEMB     85       DOPC     H7Y      HAL2     0.900000E-01   1.00800           0
     12199 MEMB     85       DOPC     C38      CTL2    -0.180000       12.0110           0
     12200 MEMB     85       DOPC     H8X      HAL2     0.900000E-01   1.00800           0
     12201 MEMB     85       DOPC     H8Y      HAL2     0.900000E-01   1.00800           0
     12202 MEMB     85       DOPC     C39      CEL1    -0.150000       12.0110           0
     12203 MEMB     85       DOPC     H9X      HEL1     0.150000       1.00800           0
     12204 MEMB     85       DOPC     C310     CEL1    -0.150000       12.0110           0
     12205 MEMB     85       DOPC     H10X     HEL1     0.150000       1.00800           0
     12206 MEMB     85       DOPC     C311     CTL2    -0.180000       12.0110           0
     12207 MEMB     85       DOPC     H11X     HAL2     0.900000E-01   1.00800           0
     12208 MEMB     85       DOPC     H11Y     HAL2     0.900000E-01   1.00800           0
     12209 MEMB     85       DOPC     C312     CTL2    -0.180000       12.0110           0
     12210 MEMB     85       DOPC     H12X     HAL2     0.900000E-01   1.00800           0
     12211 MEMB     85       DOPC     H12Y     HAL2     0.900000E-01   1.00800           0
     12212 MEMB     85       DOPC     C313     CTL2    -0.180000       12.0110           0
     12213 MEMB     85       DOPC     H13X     HAL2     0.900000E-01   1.00800           0
     12214 MEMB     85       DOPC     H13Y     HAL2     0.900000E-01   1.00800           0
     12215 MEMB     85       DOPC     C314     CTL2    -0.180000       12.0110           0
     12216 MEMB     85       DOPC     H14X     HAL2     0.900000E-01   1.00800           0
     12217 MEMB     85       DOPC     H14Y     HAL2     0.900000E-01   1.00800           0
     12218 MEMB     85       DOPC     C315     CTL2    -0.180000       12.0110           0
     12219 MEMB     85       DOPC     H15X     HAL2     0.900000E-01   1.00800           0
     12220 MEMB     85       DOPC     H15Y     HAL2     0.900000E-01   1.00800           0
     12221 MEMB     85       DOPC     C316     CTL2    -0.180000       12.0110           0
     12222 MEMB     85       DOPC     H16X     HAL2     0.900000E-01   1.00800           0
     12223 MEMB     85       DOPC     H16Y     HAL2     0.900000E-01   1.00800           0
     12224 MEMB     85       DOPC     C317     CTL2    -0.180000       12.0110           0
     12225 MEMB     85       DOPC     H17X     HAL2     0.900000E-01   1.00800           0
     12226 MEMB     85       DOPC     H17Y     HAL2     0.900000E-01   1.00800           0
     12227 MEMB     85       DOPC     C318     CTL3    -0.270000       12.0110           0
     12228 MEMB     85       DOPC     H18X     HAL3     0.900000E-01   1.00800           0
     12229 MEMB     85       DOPC     H18Y     HAL3     0.900000E-01   1.00800           0
     12230 MEMB     85       DOPC     H18Z     HAL3     0.900000E-01   1.00800           0
     12231 MEMB     86       DOPC     N        NTL     -0.600000       14.0070           0
     12232 MEMB     86       DOPC     C12      CTL2    -0.100000       12.0110           0
     12233 MEMB     86       DOPC     H12A     HL       0.250000       1.00800           0
     12234 MEMB     86       DOPC     H12B     HL       0.250000       1.00800           0
     12235 MEMB     86       DOPC     C13      CTL5    -0.350000       12.0110           0
     12236 MEMB     86       DOPC     H13A     HL       0.250000       1.00800           0
     12237 MEMB     86       DOPC     H13B     HL       0.250000       1.00800           0
     12238 MEMB     86       DOPC     H13C     HL       0.250000       1.00800           0
     12239 MEMB     86       DOPC     C14      CTL5    -0.350000       12.0110           0
     12240 MEMB     86       DOPC     H14A     HL       0.250000       1.00800           0
     12241 MEMB     86       DOPC     H14B     HL       0.250000       1.00800           0
     12242 MEMB     86       DOPC     H14C     HL       0.250000       1.00800           0
     12243 MEMB     86       DOPC     C15      CTL5    -0.350000       12.0110           0
     12244 MEMB     86       DOPC     H15A     HL       0.250000       1.00800           0
     12245 MEMB     86       DOPC     H15B     HL       0.250000       1.00800           0
     12246 MEMB     86       DOPC     H15C     HL       0.250000       1.00800           0
     12247 MEMB     86       DOPC     C11      CTL2    -0.800000E-01   12.0110           0
     12248 MEMB     86       DOPC     H11A     HAL2     0.900000E-01   1.00800           0
     12249 MEMB     86       DOPC     H11B     HAL2     0.900000E-01   1.00800           0
     12250 MEMB     86       DOPC     P        PL        1.50000       30.9740           0
     12251 MEMB     86       DOPC     O13      O2L     -0.780000       15.9994           0
     12252 MEMB     86       DOPC     O14      O2L     -0.780000       15.9994           0
     12253 MEMB     86       DOPC     O12      OSLP    -0.570000       15.9994           0
     12254 MEMB     86       DOPC     O11      OSLP    -0.570000       15.9994           0
     12255 MEMB     86       DOPC     C1       CTL2    -0.800000E-01   12.0110           0
     12256 MEMB     86       DOPC     HA       HAL2     0.900000E-01   1.00800           0
     12257 MEMB     86       DOPC     HB       HAL2     0.900000E-01   1.00800           0
     12258 MEMB     86       DOPC     C2       CTL1     0.170000       12.0110           0
     12259 MEMB     86       DOPC     HS       HAL1     0.900000E-01   1.00800           0
     12260 MEMB     86       DOPC     O21      OSL     -0.490000       15.9994           0
     12261 MEMB     86       DOPC     C21      CL       0.900000       12.0110           0
     12262 MEMB     86       DOPC     O22      OBL     -0.630000       15.9994           0
     12263 MEMB     86       DOPC     C22      CTL2    -0.220000       12.0110           0
     12264 MEMB     86       DOPC     H2R      HAL2     0.900000E-01   1.00800           0
     12265 MEMB     86       DOPC     H2S      HAL2     0.900000E-01   1.00800           0
     12266 MEMB     86       DOPC     C3       CTL2     0.800000E-01   12.0110           0
     12267 MEMB     86       DOPC     HX       HAL2     0.900000E-01   1.00800           0
     12268 MEMB     86       DOPC     HY       HAL2     0.900000E-01   1.00800           0
     12269 MEMB     86       DOPC     O31      OSL     -0.490000       15.9994           0
     12270 MEMB     86       DOPC     C31      CL       0.900000       12.0110           0
     12271 MEMB     86       DOPC     O32      OBL     -0.630000       15.9994           0
     12272 MEMB     86       DOPC     C32      CTL2    -0.220000       12.0110           0
     12273 MEMB     86       DOPC     H2X      HAL2     0.900000E-01   1.00800           0
     12274 MEMB     86       DOPC     H2Y      HAL2     0.900000E-01   1.00800           0
     12275 MEMB     86       DOPC     C23      CTL2    -0.180000       12.0110           0
     12276 MEMB     86       DOPC     H3R      HAL2     0.900000E-01   1.00800           0
     12277 MEMB     86       DOPC     H3S      HAL2     0.900000E-01   1.00800           0
     12278 MEMB     86       DOPC     C24      CTL2    -0.180000       12.0110           0
     12279 MEMB     86       DOPC     H4R      HAL2     0.900000E-01   1.00800           0
     12280 MEMB     86       DOPC     H4S      HAL2     0.900000E-01   1.00800           0
     12281 MEMB     86       DOPC     C25      CTL2    -0.180000       12.0110           0
     12282 MEMB     86       DOPC     H5R      HAL2     0.900000E-01   1.00800           0
     12283 MEMB     86       DOPC     H5S      HAL2     0.900000E-01   1.00800           0
     12284 MEMB     86       DOPC     C26      CTL2    -0.180000       12.0110           0
     12285 MEMB     86       DOPC     H6R      HAL2     0.900000E-01   1.00800           0
     12286 MEMB     86       DOPC     H6S      HAL2     0.900000E-01   1.00800           0
     12287 MEMB     86       DOPC     C27      CTL2    -0.180000       12.0110           0
     12288 MEMB     86       DOPC     H7R      HAL2     0.900000E-01   1.00800           0
     12289 MEMB     86       DOPC     H7S      HAL2     0.900000E-01   1.00800           0
     12290 MEMB     86       DOPC     C28      CTL2    -0.180000       12.0110           0
     12291 MEMB     86       DOPC     H8R      HAL2     0.900000E-01   1.00800           0
     12292 MEMB     86       DOPC     H8S      HAL2     0.900000E-01   1.00800           0
     12293 MEMB     86       DOPC     C29      CEL1    -0.150000       12.0110           0
     12294 MEMB     86       DOPC     H9R      HEL1     0.150000       1.00800           0
     12295 MEMB     86       DOPC     C210     CEL1    -0.150000       12.0110           0
     12296 MEMB     86       DOPC     H10R     HEL1     0.150000       1.00800           0
     12297 MEMB     86       DOPC     C211     CTL2    -0.180000       12.0110           0
     12298 MEMB     86       DOPC     H11R     HAL2     0.900000E-01   1.00800           0
     12299 MEMB     86       DOPC     H11S     HAL2     0.900000E-01   1.00800           0
     12300 MEMB     86       DOPC     C212     CTL2    -0.180000       12.0110           0
     12301 MEMB     86       DOPC     H12R     HAL2     0.900000E-01   1.00800           0
     12302 MEMB     86       DOPC     H12S     HAL2     0.900000E-01   1.00800           0
     12303 MEMB     86       DOPC     C213     CTL2    -0.180000       12.0110           0
     12304 MEMB     86       DOPC     H13R     HAL2     0.900000E-01   1.00800           0
     12305 MEMB     86       DOPC     H13S     HAL2     0.900000E-01   1.00800           0
     12306 MEMB     86       DOPC     C214     CTL2    -0.180000       12.0110           0
     12307 MEMB     86       DOPC     H14R     HAL2     0.900000E-01   1.00800           0
     12308 MEMB     86       DOPC     H14S     HAL2     0.900000E-01   1.00800           0
     12309 MEMB     86       DOPC     C215     CTL2    -0.180000       12.0110           0
     12310 MEMB     86       DOPC     H15R     HAL2     0.900000E-01   1.00800           0
     12311 MEMB     86       DOPC     H15S     HAL2     0.900000E-01   1.00800           0
     12312 MEMB     86       DOPC     C216     CTL2    -0.180000       12.0110           0
     12313 MEMB     86       DOPC     H16R     HAL2     0.900000E-01   1.00800           0
     12314 MEMB     86       DOPC     H16S     HAL2     0.900000E-01   1.00800           0
     12315 MEMB     86       DOPC     C217     CTL2    -0.180000       12.0110           0
     12316 MEMB     86       DOPC     H17R     HAL2     0.900000E-01   1.00800           0
     12317 MEMB     86       DOPC     H17S     HAL2     0.900000E-01   1.00800           0
     12318 MEMB     86       DOPC     C218     CTL3    -0.270000       12.0110           0
     12319 MEMB     86       DOPC     H18R     HAL3     0.900000E-01   1.00800           0
     12320 MEMB     86       DOPC     H18S     HAL3     0.900000E-01   1.00800           0
     12321 MEMB     86       DOPC     H18T     HAL3     0.900000E-01   1.00800           0
     12322 MEMB     86       DOPC     C33      CTL2    -0.180000       12.0110           0
     12323 MEMB     86       DOPC     H3X      HAL2     0.900000E-01   1.00800           0
     12324 MEMB     86       DOPC     H3Y      HAL2     0.900000E-01   1.00800           0
     12325 MEMB     86       DOPC     C34      CTL2    -0.180000       12.0110           0
     12326 MEMB     86       DOPC     H4X      HAL2     0.900000E-01   1.00800           0
     12327 MEMB     86       DOPC     H4Y      HAL2     0.900000E-01   1.00800           0
     12328 MEMB     86       DOPC     C35      CTL2    -0.180000       12.0110           0
     12329 MEMB     86       DOPC     H5X      HAL2     0.900000E-01   1.00800           0
     12330 MEMB     86       DOPC     H5Y      HAL2     0.900000E-01   1.00800           0
     12331 MEMB     86       DOPC     C36      CTL2    -0.180000       12.0110           0
     12332 MEMB     86       DOPC     H6X      HAL2     0.900000E-01   1.00800           0
     12333 MEMB     86       DOPC     H6Y      HAL2     0.900000E-01   1.00800           0
     12334 MEMB     86       DOPC     C37      CTL2    -0.180000       12.0110           0
     12335 MEMB     86       DOPC     H7X      HAL2     0.900000E-01   1.00800           0
     12336 MEMB     86       DOPC     H7Y      HAL2     0.900000E-01   1.00800           0
     12337 MEMB     86       DOPC     C38      CTL2    -0.180000       12.0110           0
     12338 MEMB     86       DOPC     H8X      HAL2     0.900000E-01   1.00800           0
     12339 MEMB     86       DOPC     H8Y      HAL2     0.900000E-01   1.00800           0
     12340 MEMB     86       DOPC     C39      CEL1    -0.150000       12.0110           0
     12341 MEMB     86       DOPC     H9X      HEL1     0.150000       1.00800           0
     12342 MEMB     86       DOPC     C310     CEL1    -0.150000       12.0110           0
     12343 MEMB     86       DOPC     H10X     HEL1     0.150000       1.00800           0
     12344 MEMB     86       DOPC     C311     CTL2    -0.180000       12.0110           0
     12345 MEMB     86       DOPC     H11X     HAL2     0.900000E-01   1.00800           0
     12346 MEMB     86       DOPC     H11Y     HAL2     0.900000E-01   1.00800           0
     12347 MEMB     86       DOPC     C312     CTL2    -0.180000       12.0110           0
     12348 MEMB     86       DOPC     H12X     HAL2     0.900000E-01   1.00800           0
     12349 MEMB     86       DOPC     H12Y     HAL2     0.900000E-01   1.00800           0
     12350 MEMB     86       DOPC     C313     CTL2    -0.180000       12.0110           0
     12351 MEMB     86       DOPC     H13X     HAL2     0.900000E-01   1.00800           0
     12352 MEMB     86       DOPC     H13Y     HAL2     0.900000E-01   1.00800           0
     12353 MEMB     86       DOPC     C314     CTL2    -0.180000       12.0110           0
     12354 MEMB     86       DOPC     H14X     HAL2     0.900000E-01   1.00800           0
     12355 MEMB     86       DOPC     H14Y     HAL2     0.900000E-01   1.00800           0
     12356 MEMB     86       DOPC     C315     CTL2    -0.180000       12.0110           0
     12357 MEMB     86       DOPC     H15X     HAL2     0.900000E-01   1.00800           0
     12358 MEMB     86       DOPC     H15Y     HAL2     0.900000E-01   1.00800           0
     12359 MEMB     86       DOPC     C316     CTL2    -0.180000       12.0110           0
     12360 MEMB     86       DOPC     H16X     HAL2     0.900000E-01   1.00800           0
     12361 MEMB     86       DOPC     H16Y     HAL2     0.900000E-01   1.00800           0
     12362 MEMB     86       DOPC     C317     CTL2    -0.180000       12.0110           0
     12363 MEMB     86       DOPC     H17X     HAL2     0.900000E-01   1.00800           0
     12364 MEMB     86       DOPC     H17Y     HAL2     0.900000E-01   1.00800           0
     12365 MEMB     86       DOPC     C318     CTL3    -0.270000       12.0110           0
     12366 MEMB     86       DOPC     H18X     HAL3     0.900000E-01   1.00800           0
     12367 MEMB     86       DOPC     H18Y     HAL3     0.900000E-01   1.00800           0
     12368 MEMB     86       DOPC     H18Z     HAL3     0.900000E-01   1.00800           0
     12369 MEMB     87       DOPC     N        NTL     -0.600000       14.0070           0
     12370 MEMB     87       DOPC     C12      CTL2    -0.100000       12.0110           0
     12371 MEMB     87       DOPC     H12A     HL       0.250000       1.00800           0
     12372 MEMB     87       DOPC     H12B     HL       0.250000       1.00800           0
     12373 MEMB     87       DOPC     C13      CTL5    -0.350000       12.0110           0
     12374 MEMB     87       DOPC     H13A     HL       0.250000       1.00800           0
     12375 MEMB     87       DOPC     H13B     HL       0.250000       1.00800           0
     12376 MEMB     87       DOPC     H13C     HL       0.250000       1.00800           0
     12377 MEMB     87       DOPC     C14      CTL5    -0.350000       12.0110           0
     12378 MEMB     87       DOPC     H14A     HL       0.250000       1.00800           0
     12379 MEMB     87       DOPC     H14B     HL       0.250000       1.00800           0
     12380 MEMB     87       DOPC     H14C     HL       0.250000       1.00800           0
     12381 MEMB     87       DOPC     C15      CTL5    -0.350000       12.0110           0
     12382 MEMB     87       DOPC     H15A     HL       0.250000       1.00800           0
     12383 MEMB     87       DOPC     H15B     HL       0.250000       1.00800           0
     12384 MEMB     87       DOPC     H15C     HL       0.250000       1.00800           0
     12385 MEMB     87       DOPC     C11      CTL2    -0.800000E-01   12.0110           0
     12386 MEMB     87       DOPC     H11A     HAL2     0.900000E-01   1.00800           0
     12387 MEMB     87       DOPC     H11B     HAL2     0.900000E-01   1.00800           0
     12388 MEMB     87       DOPC     P        PL        1.50000       30.9740           0
     12389 MEMB     87       DOPC     O13      O2L     -0.780000       15.9994           0
     12390 MEMB     87       DOPC     O14      O2L     -0.780000       15.9994           0
     12391 MEMB     87       DOPC     O12      OSLP    -0.570000       15.9994           0
     12392 MEMB     87       DOPC     O11      OSLP    -0.570000       15.9994           0
     12393 MEMB     87       DOPC     C1       CTL2    -0.800000E-01   12.0110           0
     12394 MEMB     87       DOPC     HA       HAL2     0.900000E-01   1.00800           0
     12395 MEMB     87       DOPC     HB       HAL2     0.900000E-01   1.00800           0
     12396 MEMB     87       DOPC     C2       CTL1     0.170000       12.0110           0
     12397 MEMB     87       DOPC     HS       HAL1     0.900000E-01   1.00800           0
     12398 MEMB     87       DOPC     O21      OSL     -0.490000       15.9994           0
     12399 MEMB     87       DOPC     C21      CL       0.900000       12.0110           0
     12400 MEMB     87       DOPC     O22      OBL     -0.630000       15.9994           0
     12401 MEMB     87       DOPC     C22      CTL2    -0.220000       12.0110           0
     12402 MEMB     87       DOPC     H2R      HAL2     0.900000E-01   1.00800           0
     12403 MEMB     87       DOPC     H2S      HAL2     0.900000E-01   1.00800           0
     12404 MEMB     87       DOPC     C3       CTL2     0.800000E-01   12.0110           0
     12405 MEMB     87       DOPC     HX       HAL2     0.900000E-01   1.00800           0
     12406 MEMB     87       DOPC     HY       HAL2     0.900000E-01   1.00800           0
     12407 MEMB     87       DOPC     O31      OSL     -0.490000       15.9994           0
     12408 MEMB     87       DOPC     C31      CL       0.900000       12.0110           0
     12409 MEMB     87       DOPC     O32      OBL     -0.630000       15.9994           0
     12410 MEMB     87       DOPC     C32      CTL2    -0.220000       12.0110           0
     12411 MEMB     87       DOPC     H2X      HAL2     0.900000E-01   1.00800           0
     12412 MEMB     87       DOPC     H2Y      HAL2     0.900000E-01   1.00800           0
     12413 MEMB     87       DOPC     C23      CTL2    -0.180000       12.0110           0
     12414 MEMB     87       DOPC     H3R      HAL2     0.900000E-01   1.00800           0
     12415 MEMB     87       DOPC     H3S      HAL2     0.900000E-01   1.00800           0
     12416 MEMB     87       DOPC     C24      CTL2    -0.180000       12.0110           0
     12417 MEMB     87       DOPC     H4R      HAL2     0.900000E-01   1.00800           0
     12418 MEMB     87       DOPC     H4S      HAL2     0.900000E-01   1.00800           0
     12419 MEMB     87       DOPC     C25      CTL2    -0.180000       12.0110           0
     12420 MEMB     87       DOPC     H5R      HAL2     0.900000E-01   1.00800           0
     12421 MEMB     87       DOPC     H5S      HAL2     0.900000E-01   1.00800           0
     12422 MEMB     87       DOPC     C26      CTL2    -0.180000       12.0110           0
     12423 MEMB     87       DOPC     H6R      HAL2     0.900000E-01   1.00800           0
     12424 MEMB     87       DOPC     H6S      HAL2     0.900000E-01   1.00800           0
     12425 MEMB     87       DOPC     C27      CTL2    -0.180000       12.0110           0
     12426 MEMB     87       DOPC     H7R      HAL2     0.900000E-01   1.00800           0
     12427 MEMB     87       DOPC     H7S      HAL2     0.900000E-01   1.00800           0
     12428 MEMB     87       DOPC     C28      CTL2    -0.180000       12.0110           0
     12429 MEMB     87       DOPC     H8R      HAL2     0.900000E-01   1.00800           0
     12430 MEMB     87       DOPC     H8S      HAL2     0.900000E-01   1.00800           0
     12431 MEMB     87       DOPC     C29      CEL1    -0.150000       12.0110           0
     12432 MEMB     87       DOPC     H9R      HEL1     0.150000       1.00800           0
     12433 MEMB     87       DOPC     C210     CEL1    -0.150000       12.0110           0
     12434 MEMB     87       DOPC     H10R     HEL1     0.150000       1.00800           0
     12435 MEMB     87       DOPC     C211     CTL2    -0.180000       12.0110           0
     12436 MEMB     87       DOPC     H11R     HAL2     0.900000E-01   1.00800           0
     12437 MEMB     87       DOPC     H11S     HAL2     0.900000E-01   1.00800           0
     12438 MEMB     87       DOPC     C212     CTL2    -0.180000       12.0110           0
     12439 MEMB     87       DOPC     H12R     HAL2     0.900000E-01   1.00800           0
     12440 MEMB     87       DOPC     H12S     HAL2     0.900000E-01   1.00800           0
     12441 MEMB     87       DOPC     C213     CTL2    -0.180000       12.0110           0
     12442 MEMB     87       DOPC     H13R     HAL2     0.900000E-01   1.00800           0
     12443 MEMB     87       DOPC     H13S     HAL2     0.900000E-01   1.00800           0
     12444 MEMB     87       DOPC     C214     CTL2    -0.180000       12.0110           0
     12445 MEMB     87       DOPC     H14R     HAL2     0.900000E-01   1.00800           0
     12446 MEMB     87       DOPC     H14S     HAL2     0.900000E-01   1.00800           0
     12447 MEMB     87       DOPC     C215     CTL2    -0.180000       12.0110           0
     12448 MEMB     87       DOPC     H15R     HAL2     0.900000E-01   1.00800           0
     12449 MEMB     87       DOPC     H15S     HAL2     0.900000E-01   1.00800           0
     12450 MEMB     87       DOPC     C216     CTL2    -0.180000       12.0110           0
     12451 MEMB     87       DOPC     H16R     HAL2     0.900000E-01   1.00800           0
     12452 MEMB     87       DOPC     H16S     HAL2     0.900000E-01   1.00800           0
     12453 MEMB     87       DOPC     C217     CTL2    -0.180000       12.0110           0
     12454 MEMB     87       DOPC     H17R     HAL2     0.900000E-01   1.00800           0
     12455 MEMB     87       DOPC     H17S     HAL2     0.900000E-01   1.00800           0
     12456 MEMB     87       DOPC     C218     CTL3    -0.270000       12.0110           0
     12457 MEMB     87       DOPC     H18R     HAL3     0.900000E-01   1.00800           0
     12458 MEMB     87       DOPC     H18S     HAL3     0.900000E-01   1.00800           0
     12459 MEMB     87       DOPC     H18T     HAL3     0.900000E-01   1.00800           0
     12460 MEMB     87       DOPC     C33      CTL2    -0.180000       12.0110           0
     12461 MEMB     87       DOPC     H3X      HAL2     0.900000E-01   1.00800           0
     12462 MEMB     87       DOPC     H3Y      HAL2     0.900000E-01   1.00800           0
     12463 MEMB     87       DOPC     C34      CTL2    -0.180000       12.0110           0
     12464 MEMB     87       DOPC     H4X      HAL2     0.900000E-01   1.00800           0
     12465 MEMB     87       DOPC     H4Y      HAL2     0.900000E-01   1.00800           0
     12466 MEMB     87       DOPC     C35      CTL2    -0.180000       12.0110           0
     12467 MEMB     87       DOPC     H5X      HAL2     0.900000E-01   1.00800           0
     12468 MEMB     87       DOPC     H5Y      HAL2     0.900000E-01   1.00800           0
     12469 MEMB     87       DOPC     C36      CTL2    -0.180000       12.0110           0
     12470 MEMB     87       DOPC     H6X      HAL2     0.900000E-01   1.00800           0
     12471 MEMB     87       DOPC     H6Y      HAL2     0.900000E-01   1.00800           0
     12472 MEMB     87       DOPC     C37      CTL2    -0.180000       12.0110           0
     12473 MEMB     87       DOPC     H7X      HAL2     0.900000E-01   1.00800           0
     12474 MEMB     87       DOPC     H7Y      HAL2     0.900000E-01   1.00800           0
     12475 MEMB     87       DOPC     C38      CTL2    -0.180000       12.0110           0
     12476 MEMB     87       DOPC     H8X      HAL2     0.900000E-01   1.00800           0
     12477 MEMB     87       DOPC     H8Y      HAL2     0.900000E-01   1.00800           0
     12478 MEMB     87       DOPC     C39      CEL1    -0.150000       12.0110           0
     12479 MEMB     87       DOPC     H9X      HEL1     0.150000       1.00800           0
     12480 MEMB     87       DOPC     C310     CEL1    -0.150000       12.0110           0
     12481 MEMB     87       DOPC     H10X     HEL1     0.150000       1.00800           0
     12482 MEMB     87       DOPC     C311     CTL2    -0.180000       12.0110           0
     12483 MEMB     87       DOPC     H11X     HAL2     0.900000E-01   1.00800           0
     12484 MEMB     87       DOPC     H11Y     HAL2     0.900000E-01   1.00800           0
     12485 MEMB     87       DOPC     C312     CTL2    -0.180000       12.0110           0
     12486 MEMB     87       DOPC     H12X     HAL2     0.900000E-01   1.00800           0
     12487 MEMB     87       DOPC     H12Y     HAL2     0.900000E-01   1.00800           0
     12488 MEMB     87       DOPC     C313     CTL2    -0.180000       12.0110           0
     12489 MEMB     87       DOPC     H13X     HAL2     0.900000E-01   1.00800           0
     12490 MEMB     87       DOPC     H13Y     HAL2     0.900000E-01   1.00800           0
     12491 MEMB     87       DOPC     C314     CTL2    -0.180000       12.0110           0
     12492 MEMB     87       DOPC     H14X     HAL2     0.900000E-01   1.00800           0
     12493 MEMB     87       DOPC     H14Y     HAL2     0.900000E-01   1.00800           0
     12494 MEMB     87       DOPC     C315     CTL2    -0.180000       12.0110           0
     12495 MEMB     87       DOPC     H15X     HAL2     0.900000E-01   1.00800           0
     12496 MEMB     87       DOPC     H15Y     HAL2     0.900000E-01   1.00800           0
     12497 MEMB     87       DOPC     C316     CTL2    -0.180000       12.0110           0
     12498 MEMB     87       DOPC     H16X     HAL2     0.900000E-01   1.00800           0
     12499 MEMB     87       DOPC     H16Y     HAL2     0.900000E-01   1.00800           0
     12500 MEMB     87       DOPC     C317     CTL2    -0.180000       12.0110           0
     12501 MEMB     87       DOPC     H17X     HAL2     0.900000E-01   1.00800           0
     12502 MEMB     87       DOPC     H17Y     HAL2     0.900000E-01   1.00800           0
     12503 MEMB     87       DOPC     C318     CTL3    -0.270000       12.0110           0
     12504 MEMB     87       DOPC     H18X     HAL3     0.900000E-01   1.00800           0
     12505 MEMB     87       DOPC     H18Y     HAL3     0.900000E-01   1.00800           0
     12506 MEMB     87       DOPC     H18Z     HAL3     0.900000E-01   1.00800           0
     12507 MEMB     88       DOPC     N        NTL     -0.600000       14.0070           0
     12508 MEMB     88       DOPC     C12      CTL2    -0.100000       12.0110           0
     12509 MEMB     88       DOPC     H12A     HL       0.250000       1.00800           0
     12510 MEMB     88       DOPC     H12B     HL       0.250000       1.00800           0
     12511 MEMB     88       DOPC     C13      CTL5    -0.350000       12.0110           0
     12512 MEMB     88       DOPC     H13A     HL       0.250000       1.00800           0
     12513 MEMB     88       DOPC     H13B     HL       0.250000       1.00800           0
     12514 MEMB     88       DOPC     H13C     HL       0.250000       1.00800           0
     12515 MEMB     88       DOPC     C14      CTL5    -0.350000       12.0110           0
     12516 MEMB     88       DOPC     H14A     HL       0.250000       1.00800           0
     12517 MEMB     88       DOPC     H14B     HL       0.250000       1.00800           0
     12518 MEMB     88       DOPC     H14C     HL       0.250000       1.00800           0
     12519 MEMB     88       DOPC     C15      CTL5    -0.350000       12.0110           0
     12520 MEMB     88       DOPC     H15A     HL       0.250000       1.00800           0
     12521 MEMB     88       DOPC     H15B     HL       0.250000       1.00800           0
     12522 MEMB     88       DOPC     H15C     HL       0.250000       1.00800           0
     12523 MEMB     88       DOPC     C11      CTL2    -0.800000E-01   12.0110           0
     12524 MEMB     88       DOPC     H11A     HAL2     0.900000E-01   1.00800           0
     12525 MEMB     88       DOPC     H11B     HAL2     0.900000E-01   1.00800           0
     12526 MEMB     88       DOPC     P        PL        1.50000       30.9740           0
     12527 MEMB     88       DOPC     O13      O2L     -0.780000       15.9994           0
     12528 MEMB     88       DOPC     O14      O2L     -0.780000       15.9994           0
     12529 MEMB     88       DOPC     O12      OSLP    -0.570000       15.9994           0
     12530 MEMB     88       DOPC     O11      OSLP    -0.570000       15.9994           0
     12531 MEMB     88       DOPC     C1       CTL2    -0.800000E-01   12.0110           0
     12532 MEMB     88       DOPC     HA       HAL2     0.900000E-01   1.00800           0
     12533 MEMB     88       DOPC     HB       HAL2     0.900000E-01   1.00800           0
     12534 MEMB     88       DOPC     C2       CTL1     0.170000       12.0110           0
     12535 MEMB     88       DOPC     HS       HAL1     0.900000E-01   1.00800           0
     12536 MEMB     88       DOPC     O21      OSL     -0.490000       15.9994           0
     12537 MEMB     88       DOPC     C21      CL       0.900000       12.0110           0
     12538 MEMB     88       DOPC     O22      OBL     -0.630000       15.9994           0
     12539 MEMB     88       DOPC     C22      CTL2    -0.220000       12.0110           0
     12540 MEMB     88       DOPC     H2R      HAL2     0.900000E-01   1.00800           0
     12541 MEMB     88       DOPC     H2S      HAL2     0.900000E-01   1.00800           0
     12542 MEMB     88       DOPC     C3       CTL2     0.800000E-01   12.0110           0
     12543 MEMB     88       DOPC     HX       HAL2     0.900000E-01   1.00800           0
     12544 MEMB     88       DOPC     HY       HAL2     0.900000E-01   1.00800           0
     12545 MEMB     88       DOPC     O31      OSL     -0.490000       15.9994           0
     12546 MEMB     88       DOPC     C31      CL       0.900000       12.0110           0
     12547 MEMB     88       DOPC     O32      OBL     -0.630000       15.9994           0
     12548 MEMB     88       DOPC     C32      CTL2    -0.220000       12.0110           0
     12549 MEMB     88       DOPC     H2X      HAL2     0.900000E-01   1.00800           0
     12550 MEMB     88       DOPC     H2Y      HAL2     0.900000E-01   1.00800           0
     12551 MEMB     88       DOPC     C23      CTL2    -0.180000       12.0110           0
     12552 MEMB     88       DOPC     H3R      HAL2     0.900000E-01   1.00800           0
     12553 MEMB     88       DOPC     H3S      HAL2     0.900000E-01   1.00800           0
     12554 MEMB     88       DOPC     C24      CTL2    -0.180000       12.0110           0
     12555 MEMB     88       DOPC     H4R      HAL2     0.900000E-01   1.00800           0
     12556 MEMB     88       DOPC     H4S      HAL2     0.900000E-01   1.00800           0
     12557 MEMB     88       DOPC     C25      CTL2    -0.180000       12.0110           0
     12558 MEMB     88       DOPC     H5R      HAL2     0.900000E-01   1.00800           0
     12559 MEMB     88       DOPC     H5S      HAL2     0.900000E-01   1.00800           0
     12560 MEMB     88       DOPC     C26      CTL2    -0.180000       12.0110           0
     12561 MEMB     88       DOPC     H6R      HAL2     0.900000E-01   1.00800           0
     12562 MEMB     88       DOPC     H6S      HAL2     0.900000E-01   1.00800           0
     12563 MEMB     88       DOPC     C27      CTL2    -0.180000       12.0110           0
     12564 MEMB     88       DOPC     H7R      HAL2     0.900000E-01   1.00800           0
     12565 MEMB     88       DOPC     H7S      HAL2     0.900000E-01   1.00800           0
     12566 MEMB     88       DOPC     C28      CTL2    -0.180000       12.0110           0
     12567 MEMB     88       DOPC     H8R      HAL2     0.900000E-01   1.00800           0
     12568 MEMB     88       DOPC     H8S      HAL2     0.900000E-01   1.00800           0
     12569 MEMB     88       DOPC     C29      CEL1    -0.150000       12.0110           0
     12570 MEMB     88       DOPC     H9R      HEL1     0.150000       1.00800           0
     12571 MEMB     88       DOPC     C210     CEL1    -0.150000       12.0110           0
     12572 MEMB     88       DOPC     H10R     HEL1     0.150000       1.00800           0
     12573 MEMB     88       DOPC     C211     CTL2    -0.180000       12.0110           0
     12574 MEMB     88       DOPC     H11R     HAL2     0.900000E-01   1.00800           0
     12575 MEMB     88       DOPC     H11S     HAL2     0.900000E-01   1.00800           0
     12576 MEMB     88       DOPC     C212     CTL2    -0.180000       12.0110           0
     12577 MEMB     88       DOPC     H12R     HAL2     0.900000E-01   1.00800           0
     12578 MEMB     88       DOPC     H12S     HAL2     0.900000E-01   1.00800           0
     12579 MEMB     88       DOPC     C213     CTL2    -0.180000       12.0110           0
     12580 MEMB     88       DOPC     H13R     HAL2     0.900000E-01   1.00800           0
     12581 MEMB     88       DOPC     H13S     HAL2     0.900000E-01   1.00800           0
     12582 MEMB     88       DOPC     C214     CTL2    -0.180000       12.0110           0
     12583 MEMB     88       DOPC     H14R     HAL2     0.900000E-01   1.00800           0
     12584 MEMB     88       DOPC     H14S     HAL2     0.900000E-01   1.00800           0
     12585 MEMB     88       DOPC     C215     CTL2    -0.180000       12.0110           0
     12586 MEMB     88       DOPC     H15R     HAL2     0.900000E-01   1.00800           0
     12587 MEMB     88       DOPC     H15S     HAL2     0.900000E-01   1.00800           0
     12588 MEMB     88       DOPC     C216     CTL2    -0.180000       12.0110           0
     12589 MEMB     88       DOPC     H16R     HAL2     0.900000E-01   1.00800           0
     12590 MEMB     88       DOPC     H16S     HAL2     0.900000E-01   1.00800           0
     12591 MEMB     88       DOPC     C217     CTL2    -0.180000       12.0110           0
     12592 MEMB     88       DOPC     H17R     HAL2     0.900000E-01   1.00800           0
     12593 MEMB     88       DOPC     H17S     HAL2     0.900000E-01   1.00800           0
     12594 MEMB     88       DOPC     C218     CTL3    -0.270000       12.0110           0
     12595 MEMB     88       DOPC     H18R     HAL3     0.900000E-01   1.00800           0
     12596 MEMB     88       DOPC     H18S     HAL3     0.900000E-01   1.00800           0
     12597 MEMB     88       DOPC     H18T     HAL3     0.900000E-01   1.00800           0
     12598 MEMB     88       DOPC     C33      CTL2    -0.180000       12.0110           0
     12599 MEMB     88       DOPC     H3X      HAL2     0.900000E-01   1.00800           0
     12600 MEMB     88       DOPC     H3Y      HAL2     0.900000E-01   1.00800           0
     12601 MEMB     88       DOPC     C34      CTL2    -0.180000       12.0110           0
     12602 MEMB     88       DOPC     H4X      HAL2     0.900000E-01   1.00800           0
     12603 MEMB     88       DOPC     H4Y      HAL2     0.900000E-01   1.00800           0
     12604 MEMB     88       DOPC     C35      CTL2    -0.180000       12.0110           0
     12605 MEMB     88       DOPC     H5X      HAL2     0.900000E-01   1.00800           0
     12606 MEMB     88       DOPC     H5Y      HAL2     0.900000E-01   1.00800           0
     12607 MEMB     88       DOPC     C36      CTL2    -0.180000       12.0110           0
     12608 MEMB     88       DOPC     H6X      HAL2     0.900000E-01   1.00800           0
     12609 MEMB     88       DOPC     H6Y      HAL2     0.900000E-01   1.00800           0
     12610 MEMB     88       DOPC     C37      CTL2    -0.180000       12.0110           0
     12611 MEMB     88       DOPC     H7X      HAL2     0.900000E-01   1.00800           0
     12612 MEMB     88       DOPC     H7Y      HAL2     0.900000E-01   1.00800           0
     12613 MEMB     88       DOPC     C38      CTL2    -0.180000       12.0110           0
     12614 MEMB     88       DOPC     H8X      HAL2     0.900000E-01   1.00800           0
     12615 MEMB     88       DOPC     H8Y      HAL2     0.900000E-01   1.00800           0
     12616 MEMB     88       DOPC     C39      CEL1    -0.150000       12.0110           0
     12617 MEMB     88       DOPC     H9X      HEL1     0.150000       1.00800           0
     12618 MEMB     88       DOPC     C310     CEL1    -0.150000       12.0110           0
     12619 MEMB     88       DOPC     H10X     HEL1     0.150000       1.00800           0
     12620 MEMB     88       DOPC     C311     CTL2    -0.180000       12.0110           0
     12621 MEMB     88       DOPC     H11X     HAL2     0.900000E-01   1.00800           0
     12622 MEMB     88       DOPC     H11Y     HAL2     0.900000E-01   1.00800           0
     12623 MEMB     88       DOPC     C312     CTL2    -0.180000       12.0110           0
     12624 MEMB     88       DOPC     H12X     HAL2     0.900000E-01   1.00800           0
     12625 MEMB     88       DOPC     H12Y     HAL2     0.900000E-01   1.00800           0
     12626 MEMB     88       DOPC     C313     CTL2    -0.180000       12.0110           0
     12627 MEMB     88       DOPC     H13X     HAL2     0.900000E-01   1.00800           0
     12628 MEMB     88       DOPC     H13Y     HAL2     0.900000E-01   1.00800           0
     12629 MEMB     88       DOPC     C314     CTL2    -0.180000       12.0110           0
     12630 MEMB     88       DOPC     H14X     HAL2     0.900000E-01   1.00800           0
     12631 MEMB     88       DOPC     H14Y     HAL2     0.900000E-01   1.00800           0
     12632 MEMB     88       DOPC     C315     CTL2    -0.180000       12.0110           0
     12633 MEMB     88       DOPC     H15X     HAL2     0.900000E-01   1.00800           0
     12634 MEMB     88       DOPC     H15Y     HAL2     0.900000E-01   1.00800           0
     12635 MEMB     88       DOPC     C316     CTL2    -0.180000       12.0110           0
     12636 MEMB     88       DOPC     H16X     HAL2     0.900000E-01   1.00800           0
     12637 MEMB     88       DOPC     H16Y     HAL2     0.900000E-01   1.00800           0
     12638 MEMB     88       DOPC     C317     CTL2    -0.180000       12.0110           0
     12639 MEMB     88       DOPC     H17X     HAL2     0.900000E-01   1.00800           0
     12640 MEMB     88       DOPC     H17Y     HAL2     0.900000E-01   1.00800           0
     12641 MEMB     88       DOPC     C318     CTL3    -0.270000       12.0110           0
     12642 MEMB     88       DOPC     H18X     HAL3     0.900000E-01   1.00800           0
     12643 MEMB     88       DOPC     H18Y     HAL3     0.900000E-01   1.00800           0
     12644 MEMB     88       DOPC     H18Z     HAL3     0.900000E-01   1.00800           0
     12645 MEMB     89       DOPC     N        NTL     -0.600000       14.0070           0
     12646 MEMB     89       DOPC     C12      CTL2    -0.100000       12.0110           0
     12647 MEMB     89       DOPC     H12A     HL       0.250000       1.00800           0
     12648 MEMB     89       DOPC     H12B     HL       0.250000       1.00800           0
     12649 MEMB     89       DOPC     C13      CTL5    -0.350000       12.0110           0
     12650 MEMB     89       DOPC     H13A     HL       0.250000       1.00800           0
     12651 MEMB     89       DOPC     H13B     HL       0.250000       1.00800           0
     12652 MEMB     89       DOPC     H13C     HL       0.250000       1.00800           0
     12653 MEMB     89       DOPC     C14      CTL5    -0.350000       12.0110           0
     12654 MEMB     89       DOPC     H14A     HL       0.250000       1.00800           0
     12655 MEMB     89       DOPC     H14B     HL       0.250000       1.00800           0
     12656 MEMB     89       DOPC     H14C     HL       0.250000       1.00800           0
     12657 MEMB     89       DOPC     C15      CTL5    -0.350000       12.0110           0
     12658 MEMB     89       DOPC     H15A     HL       0.250000       1.00800           0
     12659 MEMB     89       DOPC     H15B     HL       0.250000       1.00800           0
     12660 MEMB     89       DOPC     H15C     HL       0.250000       1.00800           0
     12661 MEMB     89       DOPC     C11      CTL2    -0.800000E-01   12.0110           0
     12662 MEMB     89       DOPC     H11A     HAL2     0.900000E-01   1.00800           0
     12663 MEMB     89       DOPC     H11B     HAL2     0.900000E-01   1.00800           0
     12664 MEMB     89       DOPC     P        PL        1.50000       30.9740           0
     12665 MEMB     89       DOPC     O13      O2L     -0.780000       15.9994           0
     12666 MEMB     89       DOPC     O14      O2L     -0.780000       15.9994           0
     12667 MEMB     89       DOPC     O12      OSLP    -0.570000       15.9994           0
     12668 MEMB     89       DOPC     O11      OSLP    -0.570000       15.9994           0
     12669 MEMB     89       DOPC     C1       CTL2    -0.800000E-01   12.0110           0
     12670 MEMB     89       DOPC     HA       HAL2     0.900000E-01   1.00800           0
     12671 MEMB     89       DOPC     HB       HAL2     0.900000E-01   1.00800           0
     12672 MEMB     89       DOPC     C2       CTL1     0.170000       12.0110           0
     12673 MEMB     89       DOPC     HS       HAL1     0.900000E-01   1.00800           0
     12674 MEMB     89       DOPC     O21      OSL     -0.490000       15.9994           0
     12675 MEMB     89       DOPC     C21      CL       0.900000       12.0110           0
     12676 MEMB     89       DOPC     O22      OBL     -0.630000       15.9994           0
     12677 MEMB     89       DOPC     C22      CTL2    -0.220000       12.0110           0
     12678 MEMB     89       DOPC     H2R      HAL2     0.900000E-01   1.00800           0
     12679 MEMB     89       DOPC     H2S      HAL2     0.900000E-01   1.00800           0
     12680 MEMB     89       DOPC     C3       CTL2     0.800000E-01   12.0110           0
     12681 MEMB     89       DOPC     HX       HAL2     0.900000E-01   1.00800           0
     12682 MEMB     89       DOPC     HY       HAL2     0.900000E-01   1.00800           0
     12683 MEMB     89       DOPC     O31      OSL     -0.490000       15.9994           0
     12684 MEMB     89       DOPC     C31      CL       0.900000       12.0110           0
     12685 MEMB     89       DOPC     O32      OBL     -0.630000       15.9994           0
     12686 MEMB     89       DOPC     C32      CTL2    -0.220000       12.0110           0
     12687 MEMB     89       DOPC     H2X      HAL2     0.900000E-01   1.00800           0
     12688 MEMB     89       DOPC     H2Y      HAL2     0.900000E-01   1.00800           0
     12689 MEMB     89       DOPC     C23      CTL2    -0.180000       12.0110           0
     12690 MEMB     89       DOPC     H3R      HAL2     0.900000E-01   1.00800           0
     12691 MEMB     89       DOPC     H3S      HAL2     0.900000E-01   1.00800           0
     12692 MEMB     89       DOPC     C24      CTL2    -0.180000       12.0110           0
     12693 MEMB     89       DOPC     H4R      HAL2     0.900000E-01   1.00800           0
     12694 MEMB     89       DOPC     H4S      HAL2     0.900000E-01   1.00800           0
     12695 MEMB     89       DOPC     C25      CTL2    -0.180000       12.0110           0
     12696 MEMB     89       DOPC     H5R      HAL2     0.900000E-01   1.00800           0
     12697 MEMB     89       DOPC     H5S      HAL2     0.900000E-01   1.00800           0
     12698 MEMB     89       DOPC     C26      CTL2    -0.180000       12.0110           0
     12699 MEMB     89       DOPC     H6R      HAL2     0.900000E-01   1.00800           0
     12700 MEMB     89       DOPC     H6S      HAL2     0.900000E-01   1.00800           0
     12701 MEMB     89       DOPC     C27      CTL2    -0.180000       12.0110           0
     12702 MEMB     89       DOPC     H7R      HAL2     0.900000E-01   1.00800           0
     12703 MEMB     89       DOPC     H7S      HAL2     0.900000E-01   1.00800           0
     12704 MEMB     89       DOPC     C28      CTL2    -0.180000       12.0110           0
     12705 MEMB     89       DOPC     H8R      HAL2     0.900000E-01   1.00800           0
     12706 MEMB     89       DOPC     H8S      HAL2     0.900000E-01   1.00800           0
     12707 MEMB     89       DOPC     C29      CEL1    -0.150000       12.0110           0
     12708 MEMB     89       DOPC     H9R      HEL1     0.150000       1.00800           0
     12709 MEMB     89       DOPC     C210     CEL1    -0.150000       12.0110           0
     12710 MEMB     89       DOPC     H10R     HEL1     0.150000       1.00800           0
     12711 MEMB     89       DOPC     C211     CTL2    -0.180000       12.0110           0
     12712 MEMB     89       DOPC     H11R     HAL2     0.900000E-01   1.00800           0
     12713 MEMB     89       DOPC     H11S     HAL2     0.900000E-01   1.00800           0
     12714 MEMB     89       DOPC     C212     CTL2    -0.180000       12.0110           0
     12715 MEMB     89       DOPC     H12R     HAL2     0.900000E-01   1.00800           0
     12716 MEMB     89       DOPC     H12S     HAL2     0.900000E-01   1.00800           0
     12717 MEMB     89       DOPC     C213     CTL2    -0.180000       12.0110           0
     12718 MEMB     89       DOPC     H13R     HAL2     0.900000E-01   1.00800           0
     12719 MEMB     89       DOPC     H13S     HAL2     0.900000E-01   1.00800           0
     12720 MEMB     89       DOPC     C214     CTL2    -0.180000       12.0110           0
     12721 MEMB     89       DOPC     H14R     HAL2     0.900000E-01   1.00800           0
     12722 MEMB     89       DOPC     H14S     HAL2     0.900000E-01   1.00800           0
     12723 MEMB     89       DOPC     C215     CTL2    -0.180000       12.0110           0
     12724 MEMB     89       DOPC     H15R     HAL2     0.900000E-01   1.00800           0
     12725 MEMB     89       DOPC     H15S     HAL2     0.900000E-01   1.00800           0
     12726 MEMB     89       DOPC     C216     CTL2    -0.180000       12.0110           0
     12727 MEMB     89       DOPC     H16R     HAL2     0.900000E-01   1.00800           0
     12728 MEMB     89       DOPC     H16S     HAL2     0.900000E-01   1.00800           0
     12729 MEMB     89       DOPC     C217     CTL2    -0.180000       12.0110           0
     12730 MEMB     89       DOPC     H17R     HAL2     0.900000E-01   1.00800           0
     12731 MEMB     89       DOPC     H17S     HAL2     0.900000E-01   1.00800           0
     12732 MEMB     89       DOPC     C218     CTL3    -0.270000       12.0110           0
     12733 MEMB     89       DOPC     H18R     HAL3     0.900000E-01   1.00800           0
     12734 MEMB     89       DOPC     H18S     HAL3     0.900000E-01   1.00800           0
     12735 MEMB     89       DOPC     H18T     HAL3     0.900000E-01   1.00800           0
     12736 MEMB     89       DOPC     C33      CTL2    -0.180000       12.0110           0
     12737 MEMB     89       DOPC     H3X      HAL2     0.900000E-01   1.00800           0
     12738 MEMB     89       DOPC     H3Y      HAL2     0.900000E-01   1.00800           0
     12739 MEMB     89       DOPC     C34      CTL2    -0.180000       12.0110           0
     12740 MEMB     89       DOPC     H4X      HAL2     0.900000E-01   1.00800           0
     12741 MEMB     89       DOPC     H4Y      HAL2     0.900000E-01   1.00800           0
     12742 MEMB     89       DOPC     C35      CTL2    -0.180000       12.0110           0
     12743 MEMB     89       DOPC     H5X      HAL2     0.900000E-01   1.00800           0
     12744 MEMB     89       DOPC     H5Y      HAL2     0.900000E-01   1.00800           0
     12745 MEMB     89       DOPC     C36      CTL2    -0.180000       12.0110           0
     12746 MEMB     89       DOPC     H6X      HAL2     0.900000E-01   1.00800           0
     12747 MEMB     89       DOPC     H6Y      HAL2     0.900000E-01   1.00800           0
     12748 MEMB     89       DOPC     C37      CTL2    -0.180000       12.0110           0
     12749 MEMB     89       DOPC     H7X      HAL2     0.900000E-01   1.00800           0
     12750 MEMB     89       DOPC     H7Y      HAL2     0.900000E-01   1.00800           0
     12751 MEMB     89       DOPC     C38      CTL2    -0.180000       12.0110           0
     12752 MEMB     89       DOPC     H8X      HAL2     0.900000E-01   1.00800           0
     12753 MEMB     89       DOPC     H8Y      HAL2     0.900000E-01   1.00800           0
     12754 MEMB     89       DOPC     C39      CEL1    -0.150000       12.0110           0
     12755 MEMB     89       DOPC     H9X      HEL1     0.150000       1.00800           0
     12756 MEMB     89       DOPC     C310     CEL1    -0.150000       12.0110           0
     12757 MEMB     89       DOPC     H10X     HEL1     0.150000       1.00800           0
     12758 MEMB     89       DOPC     C311     CTL2    -0.180000       12.0110           0
     12759 MEMB     89       DOPC     H11X     HAL2     0.900000E-01   1.00800           0
     12760 MEMB     89       DOPC     H11Y     HAL2     0.900000E-01   1.00800           0
     12761 MEMB     89       DOPC     C312     CTL2    -0.180000       12.0110           0
     12762 MEMB     89       DOPC     H12X     HAL2     0.900000E-01   1.00800           0
     12763 MEMB     89       DOPC     H12Y     HAL2     0.900000E-01   1.00800           0
     12764 MEMB     89       DOPC     C313     CTL2    -0.180000       12.0110           0
     12765 MEMB     89       DOPC     H13X     HAL2     0.900000E-01   1.00800           0
     12766 MEMB     89       DOPC     H13Y     HAL2     0.900000E-01   1.00800           0
     12767 MEMB     89       DOPC     C314     CTL2    -0.180000       12.0110           0
     12768 MEMB     89       DOPC     H14X     HAL2     0.900000E-01   1.00800           0
     12769 MEMB     89       DOPC     H14Y     HAL2     0.900000E-01   1.00800           0
     12770 MEMB     89       DOPC     C315     CTL2    -0.180000       12.0110           0
     12771 MEMB     89       DOPC     H15X     HAL2     0.900000E-01   1.00800           0
     12772 MEMB     89       DOPC     H15Y     HAL2     0.900000E-01   1.00800           0
     12773 MEMB     89       DOPC     C316     CTL2    -0.180000       12.0110           0
     12774 MEMB     89       DOPC     H16X     HAL2     0.900000E-01   1.00800           0
     12775 MEMB     89       DOPC     H16Y     HAL2     0.900000E-01   1.00800           0
     12776 MEMB     89       DOPC     C317     CTL2    -0.180000       12.0110           0
     12777 MEMB     89       DOPC     H17X     HAL2     0.900000E-01   1.00800           0
     12778 MEMB     89       DOPC     H17Y     HAL2     0.900000E-01   1.00800           0
     12779 MEMB     89       DOPC     C318     CTL3    -0.270000       12.0110           0
     12780 MEMB     89       DOPC     H18X     HAL3     0.900000E-01   1.00800           0
     12781 MEMB     89       DOPC     H18Y     HAL3     0.900000E-01   1.00800           0
     12782 MEMB     89       DOPC     H18Z     HAL3     0.900000E-01   1.00800           0
     12783 MEMB     90       DOPC     N        NTL     -0.600000       14.0070           0
     12784 MEMB     90       DOPC     C12      CTL2    -0.100000       12.0110           0
     12785 MEMB     90       DOPC     H12A     HL       0.250000       1.00800           0
     12786 MEMB     90       DOPC     H12B     HL       0.250000       1.00800           0
     12787 MEMB     90       DOPC     C13      CTL5    -0.350000       12.0110           0
     12788 MEMB     90       DOPC     H13A     HL       0.250000       1.00800           0
     12789 MEMB     90       DOPC     H13B     HL       0.250000       1.00800           0
     12790 MEMB     90       DOPC     H13C     HL       0.250000       1.00800           0
     12791 MEMB     90       DOPC     C14      CTL5    -0.350000       12.0110           0
     12792 MEMB     90       DOPC     H14A     HL       0.250000       1.00800           0
     12793 MEMB     90       DOPC     H14B     HL       0.250000       1.00800           0
     12794 MEMB     90       DOPC     H14C     HL       0.250000       1.00800           0
     12795 MEMB     90       DOPC     C15      CTL5    -0.350000       12.0110           0
     12796 MEMB     90       DOPC     H15A     HL       0.250000       1.00800           0
     12797 MEMB     90       DOPC     H15B     HL       0.250000       1.00800           0
     12798 MEMB     90       DOPC     H15C     HL       0.250000       1.00800           0
     12799 MEMB     90       DOPC     C11      CTL2    -0.800000E-01   12.0110           0
     12800 MEMB     90       DOPC     H11A     HAL2     0.900000E-01   1.00800           0
     12801 MEMB     90       DOPC     H11B     HAL2     0.900000E-01   1.00800           0
     12802 MEMB     90       DOPC     P        PL        1.50000       30.9740           0
     12803 MEMB     90       DOPC     O13      O2L     -0.780000       15.9994           0
     12804 MEMB     90       DOPC     O14      O2L     -0.780000       15.9994           0
     12805 MEMB     90       DOPC     O12      OSLP    -0.570000       15.9994           0
     12806 MEMB     90       DOPC     O11      OSLP    -0.570000       15.9994           0
     12807 MEMB     90       DOPC     C1       CTL2    -0.800000E-01   12.0110           0
     12808 MEMB     90       DOPC     HA       HAL2     0.900000E-01   1.00800           0
     12809 MEMB     90       DOPC     HB       HAL2     0.900000E-01   1.00800           0
     12810 MEMB     90       DOPC     C2       CTL1     0.170000       12.0110           0
     12811 MEMB     90       DOPC     HS       HAL1     0.900000E-01   1.00800           0
     12812 MEMB     90       DOPC     O21      OSL     -0.490000       15.9994           0
     12813 MEMB     90       DOPC     C21      CL       0.900000       12.0110           0
     12814 MEMB     90       DOPC     O22      OBL     -0.630000       15.9994           0
     12815 MEMB     90       DOPC     C22      CTL2    -0.220000       12.0110           0
     12816 MEMB     90       DOPC     H2R      HAL2     0.900000E-01   1.00800           0
     12817 MEMB     90       DOPC     H2S      HAL2     0.900000E-01   1.00800           0
     12818 MEMB     90       DOPC     C3       CTL2     0.800000E-01   12.0110           0
     12819 MEMB     90       DOPC     HX       HAL2     0.900000E-01   1.00800           0
     12820 MEMB     90       DOPC     HY       HAL2     0.900000E-01   1.00800           0
     12821 MEMB     90       DOPC     O31      OSL     -0.490000       15.9994           0
     12822 MEMB     90       DOPC     C31      CL       0.900000       12.0110           0
     12823 MEMB     90       DOPC     O32      OBL     -0.630000       15.9994           0
     12824 MEMB     90       DOPC     C32      CTL2    -0.220000       12.0110           0
     12825 MEMB     90       DOPC     H2X      HAL2     0.900000E-01   1.00800           0
     12826 MEMB     90       DOPC     H2Y      HAL2     0.900000E-01   1.00800           0
     12827 MEMB     90       DOPC     C23      CTL2    -0.180000       12.0110           0
     12828 MEMB     90       DOPC     H3R      HAL2     0.900000E-01   1.00800           0
     12829 MEMB     90       DOPC     H3S      HAL2     0.900000E-01   1.00800           0
     12830 MEMB     90       DOPC     C24      CTL2    -0.180000       12.0110           0
     12831 MEMB     90       DOPC     H4R      HAL2     0.900000E-01   1.00800           0
     12832 MEMB     90       DOPC     H4S      HAL2     0.900000E-01   1.00800           0
     12833 MEMB     90       DOPC     C25      CTL2    -0.180000       12.0110           0
     12834 MEMB     90       DOPC     H5R      HAL2     0.900000E-01   1.00800           0
     12835 MEMB     90       DOPC     H5S      HAL2     0.900000E-01   1.00800           0
     12836 MEMB     90       DOPC     C26      CTL2    -0.180000       12.0110           0
     12837 MEMB     90       DOPC     H6R      HAL2     0.900000E-01   1.00800           0
     12838 MEMB     90       DOPC     H6S      HAL2     0.900000E-01   1.00800           0
     12839 MEMB     90       DOPC     C27      CTL2    -0.180000       12.0110           0
     12840 MEMB     90       DOPC     H7R      HAL2     0.900000E-01   1.00800           0
     12841 MEMB     90       DOPC     H7S      HAL2     0.900000E-01   1.00800           0
     12842 MEMB     90       DOPC     C28      CTL2    -0.180000       12.0110           0
     12843 MEMB     90       DOPC     H8R      HAL2     0.900000E-01   1.00800           0
     12844 MEMB     90       DOPC     H8S      HAL2     0.900000E-01   1.00800           0
     12845 MEMB     90       DOPC     C29      CEL1    -0.150000       12.0110           0
     12846 MEMB     90       DOPC     H9R      HEL1     0.150000       1.00800           0
     12847 MEMB     90       DOPC     C210     CEL1    -0.150000       12.0110           0
     12848 MEMB     90       DOPC     H10R     HEL1     0.150000       1.00800           0
     12849 MEMB     90       DOPC     C211     CTL2    -0.180000       12.0110           0
     12850 MEMB     90       DOPC     H11R     HAL2     0.900000E-01   1.00800           0
     12851 MEMB     90       DOPC     H11S     HAL2     0.900000E-01   1.00800           0
     12852 MEMB     90       DOPC     C212     CTL2    -0.180000       12.0110           0
     12853 MEMB     90       DOPC     H12R     HAL2     0.900000E-01   1.00800           0
     12854 MEMB     90       DOPC     H12S     HAL2     0.900000E-01   1.00800           0
     12855 MEMB     90       DOPC     C213     CTL2    -0.180000       12.0110           0
     12856 MEMB     90       DOPC     H13R     HAL2     0.900000E-01   1.00800           0
     12857 MEMB     90       DOPC     H13S     HAL2     0.900000E-01   1.00800           0
     12858 MEMB     90       DOPC     C214     CTL2    -0.180000       12.0110           0
     12859 MEMB     90       DOPC     H14R     HAL2     0.900000E-01   1.00800           0
     12860 MEMB     90       DOPC     H14S     HAL2     0.900000E-01   1.00800           0
     12861 MEMB     90       DOPC     C215     CTL2    -0.180000       12.0110           0
     12862 MEMB     90       DOPC     H15R     HAL2     0.900000E-01   1.00800           0
     12863 MEMB     90       DOPC     H15S     HAL2     0.900000E-01   1.00800           0
     12864 MEMB     90       DOPC     C216     CTL2    -0.180000       12.0110           0
     12865 MEMB     90       DOPC     H16R     HAL2     0.900000E-01   1.00800           0
     12866 MEMB     90       DOPC     H16S     HAL2     0.900000E-01   1.00800           0
     12867 MEMB     90       DOPC     C217     CTL2    -0.180000       12.0110           0
     12868 MEMB     90       DOPC     H17R     HAL2     0.900000E-01   1.00800           0
     12869 MEMB     90       DOPC     H17S     HAL2     0.900000E-01   1.00800           0
     12870 MEMB     90       DOPC     C218     CTL3    -0.270000       12.0110           0
     12871 MEMB     90       DOPC     H18R     HAL3     0.900000E-01   1.00800           0
     12872 MEMB     90       DOPC     H18S     HAL3     0.900000E-01   1.00800           0
     12873 MEMB     90       DOPC     H18T     HAL3     0.900000E-01   1.00800           0
     12874 MEMB     90       DOPC     C33      CTL2    -0.180000       12.0110           0
     12875 MEMB     90       DOPC     H3X      HAL2     0.900000E-01   1.00800           0
     12876 MEMB     90       DOPC     H3Y      HAL2     0.900000E-01   1.00800           0
     12877 MEMB     90       DOPC     C34      CTL2    -0.180000       12.0110           0
     12878 MEMB     90       DOPC     H4X      HAL2     0.900000E-01   1.00800           0
     12879 MEMB     90       DOPC     H4Y      HAL2     0.900000E-01   1.00800           0
     12880 MEMB     90       DOPC     C35      CTL2    -0.180000       12.0110           0
     12881 MEMB     90       DOPC     H5X      HAL2     0.900000E-01   1.00800           0
     12882 MEMB     90       DOPC     H5Y      HAL2     0.900000E-01   1.00800           0
     12883 MEMB     90       DOPC     C36      CTL2    -0.180000       12.0110           0
     12884 MEMB     90       DOPC     H6X      HAL2     0.900000E-01   1.00800           0
     12885 MEMB     90       DOPC     H6Y      HAL2     0.900000E-01   1.00800           0
     12886 MEMB     90       DOPC     C37      CTL2    -0.180000       12.0110           0
     12887 MEMB     90       DOPC     H7X      HAL2     0.900000E-01   1.00800           0
     12888 MEMB     90       DOPC     H7Y      HAL2     0.900000E-01   1.00800           0
     12889 MEMB     90       DOPC     C38      CTL2    -0.180000       12.0110           0
     12890 MEMB     90       DOPC     H8X      HAL2     0.900000E-01   1.00800           0
     12891 MEMB     90       DOPC     H8Y      HAL2     0.900000E-01   1.00800           0
     12892 MEMB     90       DOPC     C39      CEL1    -0.150000       12.0110           0
     12893 MEMB     90       DOPC     H9X      HEL1     0.150000       1.00800           0
     12894 MEMB     90       DOPC     C310     CEL1    -0.150000       12.0110           0
     12895 MEMB     90       DOPC     H10X     HEL1     0.150000       1.00800           0
     12896 MEMB     90       DOPC     C311     CTL2    -0.180000       12.0110           0
     12897 MEMB     90       DOPC     H11X     HAL2     0.900000E-01   1.00800           0
     12898 MEMB     90       DOPC     H11Y     HAL2     0.900000E-01   1.00800           0
     12899 MEMB     90       DOPC     C312     CTL2    -0.180000       12.0110           0
     12900 MEMB     90       DOPC     H12X     HAL2     0.900000E-01   1.00800           0
     12901 MEMB     90       DOPC     H12Y     HAL2     0.900000E-01   1.00800           0
     12902 MEMB     90       DOPC     C313     CTL2    -0.180000       12.0110           0
     12903 MEMB     90       DOPC     H13X     HAL2     0.900000E-01   1.00800           0
     12904 MEMB     90       DOPC     H13Y     HAL2     0.900000E-01   1.00800           0
     12905 MEMB     90       DOPC     C314     CTL2    -0.180000       12.0110           0
     12906 MEMB     90       DOPC     H14X     HAL2     0.900000E-01   1.00800           0
     12907 MEMB     90       DOPC     H14Y     HAL2     0.900000E-01   1.00800           0
     12908 MEMB     90       DOPC     C315     CTL2    -0.180000       12.0110           0
     12909 MEMB     90       DOPC     H15X     HAL2     0.900000E-01   1.00800           0
     12910 MEMB     90       DOPC     H15Y     HAL2     0.900000E-01   1.00800           0
     12911 MEMB     90       DOPC     C316     CTL2    -0.180000       12.0110           0
     12912 MEMB     90       DOPC     H16X     HAL2     0.900000E-01   1.00800           0
     12913 MEMB     90       DOPC     H16Y     HAL2     0.900000E-01   1.00800           0
     12914 MEMB     90       DOPC     C317     CTL2    -0.180000       12.0110           0
     12915 MEMB     90       DOPC     H17X     HAL2     0.900000E-01   1.00800           0
     12916 MEMB     90       DOPC     H17Y     HAL2     0.900000E-01   1.00800           0
     12917 MEMB     90       DOPC     C318     CTL3    -0.270000       12.0110           0
     12918 MEMB     90       DOPC     H18X     HAL3     0.900000E-01   1.00800           0
     12919 MEMB     90       DOPC     H18Y     HAL3     0.900000E-01   1.00800           0
     12920 MEMB     90       DOPC     H18Z     HAL3     0.900000E-01   1.00800           0
     12921 MEMB     91       DOPC     N        NTL     -0.600000       14.0070           0
     12922 MEMB     91       DOPC     C12      CTL2    -0.100000       12.0110           0
     12923 MEMB     91       DOPC     H12A     HL       0.250000       1.00800           0
     12924 MEMB     91       DOPC     H12B     HL       0.250000       1.00800           0
     12925 MEMB     91       DOPC     C13      CTL5    -0.350000       12.0110           0
     12926 MEMB     91       DOPC     H13A     HL       0.250000       1.00800           0
     12927 MEMB     91       DOPC     H13B     HL       0.250000       1.00800           0
     12928 MEMB     91       DOPC     H13C     HL       0.250000       1.00800           0
     12929 MEMB     91       DOPC     C14      CTL5    -0.350000       12.0110           0
     12930 MEMB     91       DOPC     H14A     HL       0.250000       1.00800           0
     12931 MEMB     91       DOPC     H14B     HL       0.250000       1.00800           0
     12932 MEMB     91       DOPC     H14C     HL       0.250000       1.00800           0
     12933 MEMB     91       DOPC     C15      CTL5    -0.350000       12.0110           0
     12934 MEMB     91       DOPC     H15A     HL       0.250000       1.00800           0
     12935 MEMB     91       DOPC     H15B     HL       0.250000       1.00800           0
     12936 MEMB     91       DOPC     H15C     HL       0.250000       1.00800           0
     12937 MEMB     91       DOPC     C11      CTL2    -0.800000E-01   12.0110           0
     12938 MEMB     91       DOPC     H11A     HAL2     0.900000E-01   1.00800           0
     12939 MEMB     91       DOPC     H11B     HAL2     0.900000E-01   1.00800           0
     12940 MEMB     91       DOPC     P        PL        1.50000       30.9740           0
     12941 MEMB     91       DOPC     O13      O2L     -0.780000       15.9994           0
     12942 MEMB     91       DOPC     O14      O2L     -0.780000       15.9994           0
     12943 MEMB     91       DOPC     O12      OSLP    -0.570000       15.9994           0
     12944 MEMB     91       DOPC     O11      OSLP    -0.570000       15.9994           0
     12945 MEMB     91       DOPC     C1       CTL2    -0.800000E-01   12.0110           0
     12946 MEMB     91       DOPC     HA       HAL2     0.900000E-01   1.00800           0
     12947 MEMB     91       DOPC     HB       HAL2     0.900000E-01   1.00800           0
     12948 MEMB     91       DOPC     C2       CTL1     0.170000       12.0110           0
     12949 MEMB     91       DOPC     HS       HAL1     0.900000E-01   1.00800           0
     12950 MEMB     91       DOPC     O21      OSL     -0.490000       15.9994           0
     12951 MEMB     91       DOPC     C21      CL       0.900000       12.0110           0
     12952 MEMB     91       DOPC     O22      OBL     -0.630000       15.9994           0
     12953 MEMB     91       DOPC     C22      CTL2    -0.220000       12.0110           0
     12954 MEMB     91       DOPC     H2R      HAL2     0.900000E-01   1.00800           0
     12955 MEMB     91       DOPC     H2S      HAL2     0.900000E-01   1.00800           0
     12956 MEMB     91       DOPC     C3       CTL2     0.800000E-01   12.0110           0
     12957 MEMB     91       DOPC     HX       HAL2     0.900000E-01   1.00800           0
     12958 MEMB     91       DOPC     HY       HAL2     0.900000E-01   1.00800           0
     12959 MEMB     91       DOPC     O31      OSL     -0.490000       15.9994           0
     12960 MEMB     91       DOPC     C31      CL       0.900000       12.0110           0
     12961 MEMB     91       DOPC     O32      OBL     -0.630000       15.9994           0
     12962 MEMB     91       DOPC     C32      CTL2    -0.220000       12.0110           0
     12963 MEMB     91       DOPC     H2X      HAL2     0.900000E-01   1.00800           0
     12964 MEMB     91       DOPC     H2Y      HAL2     0.900000E-01   1.00800           0
     12965 MEMB     91       DOPC     C23      CTL2    -0.180000       12.0110           0
     12966 MEMB     91       DOPC     H3R      HAL2     0.900000E-01   1.00800           0
     12967 MEMB     91       DOPC     H3S      HAL2     0.900000E-01   1.00800           0
     12968 MEMB     91       DOPC     C24      CTL2    -0.180000       12.0110           0
     12969 MEMB     91       DOPC     H4R      HAL2     0.900000E-01   1.00800           0
     12970 MEMB     91       DOPC     H4S      HAL2     0.900000E-01   1.00800           0
     12971 MEMB     91       DOPC     C25      CTL2    -0.180000       12.0110           0
     12972 MEMB     91       DOPC     H5R      HAL2     0.900000E-01   1.00800           0
     12973 MEMB     91       DOPC     H5S      HAL2     0.900000E-01   1.00800           0
     12974 MEMB     91       DOPC     C26      CTL2    -0.180000       12.0110           0
     12975 MEMB     91       DOPC     H6R      HAL2     0.900000E-01   1.00800           0
     12976 MEMB     91       DOPC     H6S      HAL2     0.900000E-01   1.00800           0
     12977 MEMB     91       DOPC     C27      CTL2    -0.180000       12.0110           0
     12978 MEMB     91       DOPC     H7R      HAL2     0.900000E-01   1.00800           0
     12979 MEMB     91       DOPC     H7S      HAL2     0.900000E-01   1.00800           0
     12980 MEMB     91       DOPC     C28      CTL2    -0.180000       12.0110           0
     12981 MEMB     91       DOPC     H8R      HAL2     0.900000E-01   1.00800           0
     12982 MEMB     91       DOPC     H8S      HAL2     0.900000E-01   1.00800           0
     12983 MEMB     91       DOPC     C29      CEL1    -0.150000       12.0110           0
     12984 MEMB     91       DOPC     H9R      HEL1     0.150000       1.00800           0
     12985 MEMB     91       DOPC     C210     CEL1    -0.150000       12.0110           0
     12986 MEMB     91       DOPC     H10R     HEL1     0.150000       1.00800           0
     12987 MEMB     91       DOPC     C211     CTL2    -0.180000       12.0110           0
     12988 MEMB     91       DOPC     H11R     HAL2     0.900000E-01   1.00800           0
     12989 MEMB     91       DOPC     H11S     HAL2     0.900000E-01   1.00800           0
     12990 MEMB     91       DOPC     C212     CTL2    -0.180000       12.0110           0
     12991 MEMB     91       DOPC     H12R     HAL2     0.900000E-01   1.00800           0
     12992 MEMB     91       DOPC     H12S     HAL2     0.900000E-01   1.00800           0
     12993 MEMB     91       DOPC     C213     CTL2    -0.180000       12.0110           0
     12994 MEMB     91       DOPC     H13R     HAL2     0.900000E-01   1.00800           0
     12995 MEMB     91       DOPC     H13S     HAL2     0.900000E-01   1.00800           0
     12996 MEMB     91       DOPC     C214     CTL2    -0.180000       12.0110           0
     12997 MEMB     91       DOPC     H14R     HAL2     0.900000E-01   1.00800           0
     12998 MEMB     91       DOPC     H14S     HAL2     0.900000E-01   1.00800           0
     12999 MEMB     91       DOPC     C215     CTL2    -0.180000       12.0110           0
     13000 MEMB     91       DOPC     H15R     HAL2     0.900000E-01   1.00800           0
     13001 MEMB     91       DOPC     H15S     HAL2     0.900000E-01   1.00800           0
     13002 MEMB     91       DOPC     C216     CTL2    -0.180000       12.0110           0
     13003 MEMB     91       DOPC     H16R     HAL2     0.900000E-01   1.00800           0
     13004 MEMB     91       DOPC     H16S     HAL2     0.900000E-01   1.00800           0
     13005 MEMB     91       DOPC     C217     CTL2    -0.180000       12.0110           0
     13006 MEMB     91       DOPC     H17R     HAL2     0.900000E-01   1.00800           0
     13007 MEMB     91       DOPC     H17S     HAL2     0.900000E-01   1.00800           0
     13008 MEMB     91       DOPC     C218     CTL3    -0.270000       12.0110           0
     13009 MEMB     91       DOPC     H18R     HAL3     0.900000E-01   1.00800           0
     13010 MEMB     91       DOPC     H18S     HAL3     0.900000E-01   1.00800           0
     13011 MEMB     91       DOPC     H18T     HAL3     0.900000E-01   1.00800           0
     13012 MEMB     91       DOPC     C33      CTL2    -0.180000       12.0110           0
     13013 MEMB     91       DOPC     H3X      HAL2     0.900000E-01   1.00800           0
     13014 MEMB     91       DOPC     H3Y      HAL2     0.900000E-01   1.00800           0
     13015 MEMB     91       DOPC     C34      CTL2    -0.180000       12.0110           0
     13016 MEMB     91       DOPC     H4X      HAL2     0.900000E-01   1.00800           0
     13017 MEMB     91       DOPC     H4Y      HAL2     0.900000E-01   1.00800           0
     13018 MEMB     91       DOPC     C35      CTL2    -0.180000       12.0110           0
     13019 MEMB     91       DOPC     H5X      HAL2     0.900000E-01   1.00800           0
     13020 MEMB     91       DOPC     H5Y      HAL2     0.900000E-01   1.00800           0
     13021 MEMB     91       DOPC     C36      CTL2    -0.180000       12.0110           0
     13022 MEMB     91       DOPC     H6X      HAL2     0.900000E-01   1.00800           0
     13023 MEMB     91       DOPC     H6Y      HAL2     0.900000E-01   1.00800           0
     13024 MEMB     91       DOPC     C37      CTL2    -0.180000       12.0110           0
     13025 MEMB     91       DOPC     H7X      HAL2     0.900000E-01   1.00800           0
     13026 MEMB     91       DOPC     H7Y      HAL2     0.900000E-01   1.00800           0
     13027 MEMB     91       DOPC     C38      CTL2    -0.180000       12.0110           0
     13028 MEMB     91       DOPC     H8X      HAL2     0.900000E-01   1.00800           0
     13029 MEMB     91       DOPC     H8Y      HAL2     0.900000E-01   1.00800           0
     13030 MEMB     91       DOPC     C39      CEL1    -0.150000       12.0110           0
     13031 MEMB     91       DOPC     H9X      HEL1     0.150000       1.00800           0
     13032 MEMB     91       DOPC     C310     CEL1    -0.150000       12.0110           0
     13033 MEMB     91       DOPC     H10X     HEL1     0.150000       1.00800           0
     13034 MEMB     91       DOPC     C311     CTL2    -0.180000       12.0110           0
     13035 MEMB     91       DOPC     H11X     HAL2     0.900000E-01   1.00800           0
     13036 MEMB     91       DOPC     H11Y     HAL2     0.900000E-01   1.00800           0
     13037 MEMB     91       DOPC     C312     CTL2    -0.180000       12.0110           0
     13038 MEMB     91       DOPC     H12X     HAL2     0.900000E-01   1.00800           0
     13039 MEMB     91       DOPC     H12Y     HAL2     0.900000E-01   1.00800           0
     13040 MEMB     91       DOPC     C313     CTL2    -0.180000       12.0110           0
     13041 MEMB     91       DOPC     H13X     HAL2     0.900000E-01   1.00800           0
     13042 MEMB     91       DOPC     H13Y     HAL2     0.900000E-01   1.00800           0
     13043 MEMB     91       DOPC     C314     CTL2    -0.180000       12.0110           0
     13044 MEMB     91       DOPC     H14X     HAL2     0.900000E-01   1.00800           0
     13045 MEMB     91       DOPC     H14Y     HAL2     0.900000E-01   1.00800           0
     13046 MEMB     91       DOPC     C315     CTL2    -0.180000       12.0110           0
     13047 MEMB     91       DOPC     H15X     HAL2     0.900000E-01   1.00800           0
     13048 MEMB     91       DOPC     H15Y     HAL2     0.900000E-01   1.00800           0
     13049 MEMB     91       DOPC     C316     CTL2    -0.180000       12.0110           0
     13050 MEMB     91       DOPC     H16X     HAL2     0.900000E-01   1.00800           0
     13051 MEMB     91       DOPC     H16Y     HAL2     0.900000E-01   1.00800           0
     13052 MEMB     91       DOPC     C317     CTL2    -0.180000       12.0110           0
     13053 MEMB     91       DOPC     H17X     HAL2     0.900000E-01   1.00800           0
     13054 MEMB     91       DOPC     H17Y     HAL2     0.900000E-01   1.00800           0
     13055 MEMB     91       DOPC     C318     CTL3    -0.270000       12.0110           0
     13056 MEMB     91       DOPC     H18X     HAL3     0.900000E-01   1.00800           0
     13057 MEMB     91       DOPC     H18Y     HAL3     0.900000E-01   1.00800           0
     13058 MEMB     91       DOPC     H18Z     HAL3     0.900000E-01   1.00800           0
     13059 MEMB     92       DOPC     N        NTL     -0.600000       14.0070           0
     13060 MEMB     92       DOPC     C12      CTL2    -0.100000       12.0110           0
     13061 MEMB     92       DOPC     H12A     HL       0.250000       1.00800           0
     13062 MEMB     92       DOPC     H12B     HL       0.250000       1.00800           0
     13063 MEMB     92       DOPC     C13      CTL5    -0.350000       12.0110           0
     13064 MEMB     92       DOPC     H13A     HL       0.250000       1.00800           0
     13065 MEMB     92       DOPC     H13B     HL       0.250000       1.00800           0
     13066 MEMB     92       DOPC     H13C     HL       0.250000       1.00800           0
     13067 MEMB     92       DOPC     C14      CTL5    -0.350000       12.0110           0
     13068 MEMB     92       DOPC     H14A     HL       0.250000       1.00800           0
     13069 MEMB     92       DOPC     H14B     HL       0.250000       1.00800           0
     13070 MEMB     92       DOPC     H14C     HL       0.250000       1.00800           0
     13071 MEMB     92       DOPC     C15      CTL5    -0.350000       12.0110           0
     13072 MEMB     92       DOPC     H15A     HL       0.250000       1.00800           0
     13073 MEMB     92       DOPC     H15B     HL       0.250000       1.00800           0
     13074 MEMB     92       DOPC     H15C     HL       0.250000       1.00800           0
     13075 MEMB     92       DOPC     C11      CTL2    -0.800000E-01   12.0110           0
     13076 MEMB     92       DOPC     H11A     HAL2     0.900000E-01   1.00800           0
     13077 MEMB     92       DOPC     H11B     HAL2     0.900000E-01   1.00800           0
     13078 MEMB     92       DOPC     P        PL        1.50000       30.9740           0
     13079 MEMB     92       DOPC     O13      O2L     -0.780000       15.9994           0
     13080 MEMB     92       DOPC     O14      O2L     -0.780000       15.9994           0
     13081 MEMB     92       DOPC     O12      OSLP    -0.570000       15.9994           0
     13082 MEMB     92       DOPC     O11      OSLP    -0.570000       15.9994           0
     13083 MEMB     92       DOPC     C1       CTL2    -0.800000E-01   12.0110           0
     13084 MEMB     92       DOPC     HA       HAL2     0.900000E-01   1.00800           0
     13085 MEMB     92       DOPC     HB       HAL2     0.900000E-01   1.00800           0
     13086 MEMB     92       DOPC     C2       CTL1     0.170000       12.0110           0
     13087 MEMB     92       DOPC     HS       HAL1     0.900000E-01   1.00800           0
     13088 MEMB     92       DOPC     O21      OSL     -0.490000       15.9994           0
     13089 MEMB     92       DOPC     C21      CL       0.900000       12.0110           0
     13090 MEMB     92       DOPC     O22      OBL     -0.630000       15.9994           0
     13091 MEMB     92       DOPC     C22      CTL2    -0.220000       12.0110           0
     13092 MEMB     92       DOPC     H2R      HAL2     0.900000E-01   1.00800           0
     13093 MEMB     92       DOPC     H2S      HAL2     0.900000E-01   1.00800           0
     13094 MEMB     92       DOPC     C3       CTL2     0.800000E-01   12.0110           0
     13095 MEMB     92       DOPC     HX       HAL2     0.900000E-01   1.00800           0
     13096 MEMB     92       DOPC     HY       HAL2     0.900000E-01   1.00800           0
     13097 MEMB     92       DOPC     O31      OSL     -0.490000       15.9994           0
     13098 MEMB     92       DOPC     C31      CL       0.900000       12.0110           0
     13099 MEMB     92       DOPC     O32      OBL     -0.630000       15.9994           0
     13100 MEMB     92       DOPC     C32      CTL2    -0.220000       12.0110           0
     13101 MEMB     92       DOPC     H2X      HAL2     0.900000E-01   1.00800           0
     13102 MEMB     92       DOPC     H2Y      HAL2     0.900000E-01   1.00800           0
     13103 MEMB     92       DOPC     C23      CTL2    -0.180000       12.0110           0
     13104 MEMB     92       DOPC     H3R      HAL2     0.900000E-01   1.00800           0
     13105 MEMB     92       DOPC     H3S      HAL2     0.900000E-01   1.00800           0
     13106 MEMB     92       DOPC     C24      CTL2    -0.180000       12.0110           0
     13107 MEMB     92       DOPC     H4R      HAL2     0.900000E-01   1.00800           0
     13108 MEMB     92       DOPC     H4S      HAL2     0.900000E-01   1.00800           0
     13109 MEMB     92       DOPC     C25      CTL2    -0.180000       12.0110           0
     13110 MEMB     92       DOPC     H5R      HAL2     0.900000E-01   1.00800           0
     13111 MEMB     92       DOPC     H5S      HAL2     0.900000E-01   1.00800           0
     13112 MEMB     92       DOPC     C26      CTL2    -0.180000       12.0110           0
     13113 MEMB     92       DOPC     H6R      HAL2     0.900000E-01   1.00800           0
     13114 MEMB     92       DOPC     H6S      HAL2     0.900000E-01   1.00800           0
     13115 MEMB     92       DOPC     C27      CTL2    -0.180000       12.0110           0
     13116 MEMB     92       DOPC     H7R      HAL2     0.900000E-01   1.00800           0
     13117 MEMB     92       DOPC     H7S      HAL2     0.900000E-01   1.00800           0
     13118 MEMB     92       DOPC     C28      CTL2    -0.180000       12.0110           0
     13119 MEMB     92       DOPC     H8R      HAL2     0.900000E-01   1.00800           0
     13120 MEMB     92       DOPC     H8S      HAL2     0.900000E-01   1.00800           0
     13121 MEMB     92       DOPC     C29      CEL1    -0.150000       12.0110           0
     13122 MEMB     92       DOPC     H9R      HEL1     0.150000       1.00800           0
     13123 MEMB     92       DOPC     C210     CEL1    -0.150000       12.0110           0
     13124 MEMB     92       DOPC     H10R     HEL1     0.150000       1.00800           0
     13125 MEMB     92       DOPC     C211     CTL2    -0.180000       12.0110           0
     13126 MEMB     92       DOPC     H11R     HAL2     0.900000E-01   1.00800           0
     13127 MEMB     92       DOPC     H11S     HAL2     0.900000E-01   1.00800           0
     13128 MEMB     92       DOPC     C212     CTL2    -0.180000       12.0110           0
     13129 MEMB     92       DOPC     H12R     HAL2     0.900000E-01   1.00800           0
     13130 MEMB     92       DOPC     H12S     HAL2     0.900000E-01   1.00800           0
     13131 MEMB     92       DOPC     C213     CTL2    -0.180000       12.0110           0
     13132 MEMB     92       DOPC     H13R     HAL2     0.900000E-01   1.00800           0
     13133 MEMB     92       DOPC     H13S     HAL2     0.900000E-01   1.00800           0
     13134 MEMB     92       DOPC     C214     CTL2    -0.180000       12.0110           0
     13135 MEMB     92       DOPC     H14R     HAL2     0.900000E-01   1.00800           0
     13136 MEMB     92       DOPC     H14S     HAL2     0.900000E-01   1.00800           0
     13137 MEMB     92       DOPC     C215     CTL2    -0.180000       12.0110           0
     13138 MEMB     92       DOPC     H15R     HAL2     0.900000E-01   1.00800           0
     13139 MEMB     92       DOPC     H15S     HAL2     0.900000E-01   1.00800           0
     13140 MEMB     92       DOPC     C216     CTL2    -0.180000       12.0110           0
     13141 MEMB     92       DOPC     H16R     HAL2     0.900000E-01   1.00800           0
     13142 MEMB     92       DOPC     H16S     HAL2     0.900000E-01   1.00800           0
     13143 MEMB     92       DOPC     C217     CTL2    -0.180000       12.0110           0
     13144 MEMB     92       DOPC     H17R     HAL2     0.900000E-01   1.00800           0
     13145 MEMB     92       DOPC     H17S     HAL2     0.900000E-01   1.00800           0
     13146 MEMB     92       DOPC     C218     CTL3    -0.270000       12.0110           0
     13147 MEMB     92       DOPC     H18R     HAL3     0.900000E-01   1.00800           0
     13148 MEMB     92       DOPC     H18S     HAL3     0.900000E-01   1.00800           0
     13149 MEMB     92       DOPC     H18T     HAL3     0.900000E-01   1.00800           0
     13150 MEMB     92       DOPC     C33      CTL2    -0.180000       12.0110           0
     13151 MEMB     92       DOPC     H3X      HAL2     0.900000E-01   1.00800           0
     13152 MEMB     92       DOPC     H3Y      HAL2     0.900000E-01   1.00800           0
     13153 MEMB     92       DOPC     C34      CTL2    -0.180000       12.0110           0
     13154 MEMB     92       DOPC     H4X      HAL2     0.900000E-01   1.00800           0
     13155 MEMB     92       DOPC     H4Y      HAL2     0.900000E-01   1.00800           0
     13156 MEMB     92       DOPC     C35      CTL2    -0.180000       12.0110           0
     13157 MEMB     92       DOPC     H5X      HAL2     0.900000E-01   1.00800           0
     13158 MEMB     92       DOPC     H5Y      HAL2     0.900000E-01   1.00800           0
     13159 MEMB     92       DOPC     C36      CTL2    -0.180000       12.0110           0
     13160 MEMB     92       DOPC     H6X      HAL2     0.900000E-01   1.00800           0
     13161 MEMB     92       DOPC     H6Y      HAL2     0.900000E-01   1.00800           0
     13162 MEMB     92       DOPC     C37      CTL2    -0.180000       12.0110           0
     13163 MEMB     92       DOPC     H7X      HAL2     0.900000E-01   1.00800           0
     13164 MEMB     92       DOPC     H7Y      HAL2     0.900000E-01   1.00800           0
     13165 MEMB     92       DOPC     C38      CTL2    -0.180000       12.0110           0
     13166 MEMB     92       DOPC     H8X      HAL2     0.900000E-01   1.00800           0
     13167 MEMB     92       DOPC     H8Y      HAL2     0.900000E-01   1.00800           0
     13168 MEMB     92       DOPC     C39      CEL1    -0.150000       12.0110           0
     13169 MEMB     92       DOPC     H9X      HEL1     0.150000       1.00800           0
     13170 MEMB     92       DOPC     C310     CEL1    -0.150000       12.0110           0
     13171 MEMB     92       DOPC     H10X     HEL1     0.150000       1.00800           0
     13172 MEMB     92       DOPC     C311     CTL2    -0.180000       12.0110           0
     13173 MEMB     92       DOPC     H11X     HAL2     0.900000E-01   1.00800           0
     13174 MEMB     92       DOPC     H11Y     HAL2     0.900000E-01   1.00800           0
     13175 MEMB     92       DOPC     C312     CTL2    -0.180000       12.0110           0
     13176 MEMB     92       DOPC     H12X     HAL2     0.900000E-01   1.00800           0
     13177 MEMB     92       DOPC     H12Y     HAL2     0.900000E-01   1.00800           0
     13178 MEMB     92       DOPC     C313     CTL2    -0.180000       12.0110           0
     13179 MEMB     92       DOPC     H13X     HAL2     0.900000E-01   1.00800           0
     13180 MEMB     92       DOPC     H13Y     HAL2     0.900000E-01   1.00800           0
     13181 MEMB     92       DOPC     C314     CTL2    -0.180000       12.0110           0
     13182 MEMB     92       DOPC     H14X     HAL2     0.900000E-01   1.00800           0
     13183 MEMB     92       DOPC     H14Y     HAL2     0.900000E-01   1.00800           0
     13184 MEMB     92       DOPC     C315     CTL2    -0.180000       12.0110           0
     13185 MEMB     92       DOPC     H15X     HAL2     0.900000E-01   1.00800           0
     13186 MEMB     92       DOPC     H15Y     HAL2     0.900000E-01   1.00800           0
     13187 MEMB     92       DOPC     C316     CTL2    -0.180000       12.0110           0
     13188 MEMB     92       DOPC     H16X     HAL2     0.900000E-01   1.00800           0
     13189 MEMB     92       DOPC     H16Y     HAL2     0.900000E-01   1.00800           0
     13190 MEMB     92       DOPC     C317     CTL2    -0.180000       12.0110           0
     13191 MEMB     92       DOPC     H17X     HAL2     0.900000E-01   1.00800           0
     13192 MEMB     92       DOPC     H17Y     HAL2     0.900000E-01   1.00800           0
     13193 MEMB     92       DOPC     C318     CTL3    -0.270000       12.0110           0
     13194 MEMB     92       DOPC     H18X     HAL3     0.900000E-01   1.00800           0
     13195 MEMB     92       DOPC     H18Y     HAL3     0.900000E-01   1.00800           0
     13196 MEMB     92       DOPC     H18Z     HAL3     0.900000E-01   1.00800           0
     13197 MEMB     93       DOPC     N        NTL     -0.600000       14.0070           0
     13198 MEMB     93       DOPC     C12      CTL2    -0.100000       12.0110           0
     13199 MEMB     93       DOPC     H12A     HL       0.250000       1.00800           0
     13200 MEMB     93       DOPC     H12B     HL       0.250000       1.00800           0
     13201 MEMB     93       DOPC     C13      CTL5    -0.350000       12.0110           0
     13202 MEMB     93       DOPC     H13A     HL       0.250000       1.00800           0
     13203 MEMB     93       DOPC     H13B     HL       0.250000       1.00800           0
     13204 MEMB     93       DOPC     H13C     HL       0.250000       1.00800           0
     13205 MEMB     93       DOPC     C14      CTL5    -0.350000       12.0110           0
     13206 MEMB     93       DOPC     H14A     HL       0.250000       1.00800           0
     13207 MEMB     93       DOPC     H14B     HL       0.250000       1.00800           0
     13208 MEMB     93       DOPC     H14C     HL       0.250000       1.00800           0
     13209 MEMB     93       DOPC     C15      CTL5    -0.350000       12.0110           0
     13210 MEMB     93       DOPC     H15A     HL       0.250000       1.00800           0
     13211 MEMB     93       DOPC     H15B     HL       0.250000       1.00800           0
     13212 MEMB     93       DOPC     H15C     HL       0.250000       1.00800           0
     13213 MEMB     93       DOPC     C11      CTL2    -0.800000E-01   12.0110           0
     13214 MEMB     93       DOPC     H11A     HAL2     0.900000E-01   1.00800           0
     13215 MEMB     93       DOPC     H11B     HAL2     0.900000E-01   1.00800           0
     13216 MEMB     93       DOPC     P        PL        1.50000       30.9740           0
     13217 MEMB     93       DOPC     O13      O2L     -0.780000       15.9994           0
     13218 MEMB     93       DOPC     O14      O2L     -0.780000       15.9994           0
     13219 MEMB     93       DOPC     O12      OSLP    -0.570000       15.9994           0
     13220 MEMB     93       DOPC     O11      OSLP    -0.570000       15.9994           0
     13221 MEMB     93       DOPC     C1       CTL2    -0.800000E-01   12.0110           0
     13222 MEMB     93       DOPC     HA       HAL2     0.900000E-01   1.00800           0
     13223 MEMB     93       DOPC     HB       HAL2     0.900000E-01   1.00800           0
     13224 MEMB     93       DOPC     C2       CTL1     0.170000       12.0110           0
     13225 MEMB     93       DOPC     HS       HAL1     0.900000E-01   1.00800           0
     13226 MEMB     93       DOPC     O21      OSL     -0.490000       15.9994           0
     13227 MEMB     93       DOPC     C21      CL       0.900000       12.0110           0
     13228 MEMB     93       DOPC     O22      OBL     -0.630000       15.9994           0
     13229 MEMB     93       DOPC     C22      CTL2    -0.220000       12.0110           0
     13230 MEMB     93       DOPC     H2R      HAL2     0.900000E-01   1.00800           0
     13231 MEMB     93       DOPC     H2S      HAL2     0.900000E-01   1.00800           0
     13232 MEMB     93       DOPC     C3       CTL2     0.800000E-01   12.0110           0
     13233 MEMB     93       DOPC     HX       HAL2     0.900000E-01   1.00800           0
     13234 MEMB     93       DOPC     HY       HAL2     0.900000E-01   1.00800           0
     13235 MEMB     93       DOPC     O31      OSL     -0.490000       15.9994           0
     13236 MEMB     93       DOPC     C31      CL       0.900000       12.0110           0
     13237 MEMB     93       DOPC     O32      OBL     -0.630000       15.9994           0
     13238 MEMB     93       DOPC     C32      CTL2    -0.220000       12.0110           0
     13239 MEMB     93       DOPC     H2X      HAL2     0.900000E-01   1.00800           0
     13240 MEMB     93       DOPC     H2Y      HAL2     0.900000E-01   1.00800           0
     13241 MEMB     93       DOPC     C23      CTL2    -0.180000       12.0110           0
     13242 MEMB     93       DOPC     H3R      HAL2     0.900000E-01   1.00800           0
     13243 MEMB     93       DOPC     H3S      HAL2     0.900000E-01   1.00800           0
     13244 MEMB     93       DOPC     C24      CTL2    -0.180000       12.0110           0
     13245 MEMB     93       DOPC     H4R      HAL2     0.900000E-01   1.00800           0
     13246 MEMB     93       DOPC     H4S      HAL2     0.900000E-01   1.00800           0
     13247 MEMB     93       DOPC     C25      CTL2    -0.180000       12.0110           0
     13248 MEMB     93       DOPC     H5R      HAL2     0.900000E-01   1.00800           0
     13249 MEMB     93       DOPC     H5S      HAL2     0.900000E-01   1.00800           0
     13250 MEMB     93       DOPC     C26      CTL2    -0.180000       12.0110           0
     13251 MEMB     93       DOPC     H6R      HAL2     0.900000E-01   1.00800           0
     13252 MEMB     93       DOPC     H6S      HAL2     0.900000E-01   1.00800           0
     13253 MEMB     93       DOPC     C27      CTL2    -0.180000       12.0110           0
     13254 MEMB     93       DOPC     H7R      HAL2     0.900000E-01   1.00800           0
     13255 MEMB     93       DOPC     H7S      HAL2     0.900000E-01   1.00800           0
     13256 MEMB     93       DOPC     C28      CTL2    -0.180000       12.0110           0
     13257 MEMB     93       DOPC     H8R      HAL2     0.900000E-01   1.00800           0
     13258 MEMB     93       DOPC     H8S      HAL2     0.900000E-01   1.00800           0
     13259 MEMB     93       DOPC     C29      CEL1    -0.150000       12.0110           0
     13260 MEMB     93       DOPC     H9R      HEL1     0.150000       1.00800           0
     13261 MEMB     93       DOPC     C210     CEL1    -0.150000       12.0110           0
     13262 MEMB     93       DOPC     H10R     HEL1     0.150000       1.00800           0
     13263 MEMB     93       DOPC     C211     CTL2    -0.180000       12.0110           0
     13264 MEMB     93       DOPC     H11R     HAL2     0.900000E-01   1.00800           0
     13265 MEMB     93       DOPC     H11S     HAL2     0.900000E-01   1.00800           0
     13266 MEMB     93       DOPC     C212     CTL2    -0.180000       12.0110           0
     13267 MEMB     93       DOPC     H12R     HAL2     0.900000E-01   1.00800           0
     13268 MEMB     93       DOPC     H12S     HAL2     0.900000E-01   1.00800           0
     13269 MEMB     93       DOPC     C213     CTL2    -0.180000       12.0110           0
     13270 MEMB     93       DOPC     H13R     HAL2     0.900000E-01   1.00800           0
     13271 MEMB     93       DOPC     H13S     HAL2     0.900000E-01   1.00800           0
     13272 MEMB     93       DOPC     C214     CTL2    -0.180000       12.0110           0
     13273 MEMB     93       DOPC     H14R     HAL2     0.900000E-01   1.00800           0
     13274 MEMB     93       DOPC     H14S     HAL2     0.900000E-01   1.00800           0
     13275 MEMB     93       DOPC     C215     CTL2    -0.180000       12.0110           0
     13276 MEMB     93       DOPC     H15R     HAL2     0.900000E-01   1.00800           0
     13277 MEMB     93       DOPC     H15S     HAL2     0.900000E-01   1.00800           0
     13278 MEMB     93       DOPC     C216     CTL2    -0.180000       12.0110           0
     13279 MEMB     93       DOPC     H16R     HAL2     0.900000E-01   1.00800           0
     13280 MEMB     93       DOPC     H16S     HAL2     0.900000E-01   1.00800           0
     13281 MEMB     93       DOPC     C217     CTL2    -0.180000       12.0110           0
     13282 MEMB     93       DOPC     H17R     HAL2     0.900000E-01   1.00800           0
     13283 MEMB     93       DOPC     H17S     HAL2     0.900000E-01   1.00800           0
     13284 MEMB     93       DOPC     C218     CTL3    -0.270000       12.0110           0
     13285 MEMB     93       DOPC     H18R     HAL3     0.900000E-01   1.00800           0
     13286 MEMB     93       DOPC     H18S     HAL3     0.900000E-01   1.00800           0
     13287 MEMB     93       DOPC     H18T     HAL3     0.900000E-01   1.00800           0
     13288 MEMB     93       DOPC     C33      CTL2    -0.180000       12.0110           0
     13289 MEMB     93       DOPC     H3X      HAL2     0.900000E-01   1.00800           0
     13290 MEMB     93       DOPC     H3Y      HAL2     0.900000E-01   1.00800           0
     13291 MEMB     93       DOPC     C34      CTL2    -0.180000       12.0110           0
     13292 MEMB     93       DOPC     H4X      HAL2     0.900000E-01   1.00800           0
     13293 MEMB     93       DOPC     H4Y      HAL2     0.900000E-01   1.00800           0
     13294 MEMB     93       DOPC     C35      CTL2    -0.180000       12.0110           0
     13295 MEMB     93       DOPC     H5X      HAL2     0.900000E-01   1.00800           0
     13296 MEMB     93       DOPC     H5Y      HAL2     0.900000E-01   1.00800           0
     13297 MEMB     93       DOPC     C36      CTL2    -0.180000       12.0110           0
     13298 MEMB     93       DOPC     H6X      HAL2     0.900000E-01   1.00800           0
     13299 MEMB     93       DOPC     H6Y      HAL2     0.900000E-01   1.00800           0
     13300 MEMB     93       DOPC     C37      CTL2    -0.180000       12.0110           0
     13301 MEMB     93       DOPC     H7X      HAL2     0.900000E-01   1.00800           0
     13302 MEMB     93       DOPC     H7Y      HAL2     0.900000E-01   1.00800           0
     13303 MEMB     93       DOPC     C38      CTL2    -0.180000       12.0110           0
     13304 MEMB     93       DOPC     H8X      HAL2     0.900000E-01   1.00800           0
     13305 MEMB     93       DOPC     H8Y      HAL2     0.900000E-01   1.00800           0
     13306 MEMB     93       DOPC     C39      CEL1    -0.150000       12.0110           0
     13307 MEMB     93       DOPC     H9X      HEL1     0.150000       1.00800           0
     13308 MEMB     93       DOPC     C310     CEL1    -0.150000       12.0110           0
     13309 MEMB     93       DOPC     H10X     HEL1     0.150000       1.00800           0
     13310 MEMB     93       DOPC     C311     CTL2    -0.180000       12.0110           0
     13311 MEMB     93       DOPC     H11X     HAL2     0.900000E-01   1.00800           0
     13312 MEMB     93       DOPC     H11Y     HAL2     0.900000E-01   1.00800           0
     13313 MEMB     93       DOPC     C312     CTL2    -0.180000       12.0110           0
     13314 MEMB     93       DOPC     H12X     HAL2     0.900000E-01   1.00800           0
     13315 MEMB     93       DOPC     H12Y     HAL2     0.900000E-01   1.00800           0
     13316 MEMB     93       DOPC     C313     CTL2    -0.180000       12.0110           0
     13317 MEMB     93       DOPC     H13X     HAL2     0.900000E-01   1.00800           0
     13318 MEMB     93       DOPC     H13Y     HAL2     0.900000E-01   1.00800           0
     13319 MEMB     93       DOPC     C314     CTL2    -0.180000       12.0110           0
     13320 MEMB     93       DOPC     H14X     HAL2     0.900000E-01   1.00800           0
     13321 MEMB     93       DOPC     H14Y     HAL2     0.900000E-01   1.00800           0
     13322 MEMB     93       DOPC     C315     CTL2    -0.180000       12.0110           0
     13323 MEMB     93       DOPC     H15X     HAL2     0.900000E-01   1.00800           0
     13324 MEMB     93       DOPC     H15Y     HAL2     0.900000E-01   1.00800           0
     13325 MEMB     93       DOPC     C316     CTL2    -0.180000       12.0110           0
     13326 MEMB     93       DOPC     H16X     HAL2     0.900000E-01   1.00800           0
     13327 MEMB     93       DOPC     H16Y     HAL2     0.900000E-01   1.00800           0
     13328 MEMB     93       DOPC     C317     CTL2    -0.180000       12.0110           0
     13329 MEMB     93       DOPC     H17X     HAL2     0.900000E-01   1.00800           0
     13330 MEMB     93       DOPC     H17Y     HAL2     0.900000E-01   1.00800           0
     13331 MEMB     93       DOPC     C318     CTL3    -0.270000       12.0110           0
     13332 MEMB     93       DOPC     H18X     HAL3     0.900000E-01   1.00800           0
     13333 MEMB     93       DOPC     H18Y     HAL3     0.900000E-01   1.00800           0
     13334 MEMB     93       DOPC     H18Z     HAL3     0.900000E-01   1.00800           0
     13335 MEMB     94       DOPC     N        NTL     -0.600000       14.0070           0
     13336 MEMB     94       DOPC     C12      CTL2    -0.100000       12.0110           0
     13337 MEMB     94       DOPC     H12A     HL       0.250000       1.00800           0
     13338 MEMB     94       DOPC     H12B     HL       0.250000       1.00800           0
     13339 MEMB     94       DOPC     C13      CTL5    -0.350000       12.0110           0
     13340 MEMB     94       DOPC     H13A     HL       0.250000       1.00800           0
     13341 MEMB     94       DOPC     H13B     HL       0.250000       1.00800           0
     13342 MEMB     94       DOPC     H13C     HL       0.250000       1.00800           0
     13343 MEMB     94       DOPC     C14      CTL5    -0.350000       12.0110           0
     13344 MEMB     94       DOPC     H14A     HL       0.250000       1.00800           0
     13345 MEMB     94       DOPC     H14B     HL       0.250000       1.00800           0
     13346 MEMB     94       DOPC     H14C     HL       0.250000       1.00800           0
     13347 MEMB     94       DOPC     C15      CTL5    -0.350000       12.0110           0
     13348 MEMB     94       DOPC     H15A     HL       0.250000       1.00800           0
     13349 MEMB     94       DOPC     H15B     HL       0.250000       1.00800           0
     13350 MEMB     94       DOPC     H15C     HL       0.250000       1.00800           0
     13351 MEMB     94       DOPC     C11      CTL2    -0.800000E-01   12.0110           0
     13352 MEMB     94       DOPC     H11A     HAL2     0.900000E-01   1.00800           0
     13353 MEMB     94       DOPC     H11B     HAL2     0.900000E-01   1.00800           0
     13354 MEMB     94       DOPC     P        PL        1.50000       30.9740           0
     13355 MEMB     94       DOPC     O13      O2L     -0.780000       15.9994           0
     13356 MEMB     94       DOPC     O14      O2L     -0.780000       15.9994           0
     13357 MEMB     94       DOPC     O12      OSLP    -0.570000       15.9994           0
     13358 MEMB     94       DOPC     O11      OSLP    -0.570000       15.9994           0
     13359 MEMB     94       DOPC     C1       CTL2    -0.800000E-01   12.0110           0
     13360 MEMB     94       DOPC     HA       HAL2     0.900000E-01   1.00800           0
     13361 MEMB     94       DOPC     HB       HAL2     0.900000E-01   1.00800           0
     13362 MEMB     94       DOPC     C2       CTL1     0.170000       12.0110           0
     13363 MEMB     94       DOPC     HS       HAL1     0.900000E-01   1.00800           0
     13364 MEMB     94       DOPC     O21      OSL     -0.490000       15.9994           0
     13365 MEMB     94       DOPC     C21      CL       0.900000       12.0110           0
     13366 MEMB     94       DOPC     O22      OBL     -0.630000       15.9994           0
     13367 MEMB     94       DOPC     C22      CTL2    -0.220000       12.0110           0
     13368 MEMB     94       DOPC     H2R      HAL2     0.900000E-01   1.00800           0
     13369 MEMB     94       DOPC     H2S      HAL2     0.900000E-01   1.00800           0
     13370 MEMB     94       DOPC     C3       CTL2     0.800000E-01   12.0110           0
     13371 MEMB     94       DOPC     HX       HAL2     0.900000E-01   1.00800           0
     13372 MEMB     94       DOPC     HY       HAL2     0.900000E-01   1.00800           0
     13373 MEMB     94       DOPC     O31      OSL     -0.490000       15.9994           0
     13374 MEMB     94       DOPC     C31      CL       0.900000       12.0110           0
     13375 MEMB     94       DOPC     O32      OBL     -0.630000       15.9994           0
     13376 MEMB     94       DOPC     C32      CTL2    -0.220000       12.0110           0
     13377 MEMB     94       DOPC     H2X      HAL2     0.900000E-01   1.00800           0
     13378 MEMB     94       DOPC     H2Y      HAL2     0.900000E-01   1.00800           0
     13379 MEMB     94       DOPC     C23      CTL2    -0.180000       12.0110           0
     13380 MEMB     94       DOPC     H3R      HAL2     0.900000E-01   1.00800           0
     13381 MEMB     94       DOPC     H3S      HAL2     0.900000E-01   1.00800           0
     13382 MEMB     94       DOPC     C24      CTL2    -0.180000       12.0110           0
     13383 MEMB     94       DOPC     H4R      HAL2     0.900000E-01   1.00800           0
     13384 MEMB     94       DOPC     H4S      HAL2     0.900000E-01   1.00800           0
     13385 MEMB     94       DOPC     C25      CTL2    -0.180000       12.0110           0
     13386 MEMB     94       DOPC     H5R      HAL2     0.900000E-01   1.00800           0
     13387 MEMB     94       DOPC     H5S      HAL2     0.900000E-01   1.00800           0
     13388 MEMB     94       DOPC     C26      CTL2    -0.180000       12.0110           0
     13389 MEMB     94       DOPC     H6R      HAL2     0.900000E-01   1.00800           0
     13390 MEMB     94       DOPC     H6S      HAL2     0.900000E-01   1.00800           0
     13391 MEMB     94       DOPC     C27      CTL2    -0.180000       12.0110           0
     13392 MEMB     94       DOPC     H7R      HAL2     0.900000E-01   1.00800           0
     13393 MEMB     94       DOPC     H7S      HAL2     0.900000E-01   1.00800           0
     13394 MEMB     94       DOPC     C28      CTL2    -0.180000       12.0110           0
     13395 MEMB     94       DOPC     H8R      HAL2     0.900000E-01   1.00800           0
     13396 MEMB     94       DOPC     H8S      HAL2     0.900000E-01   1.00800           0
     13397 MEMB     94       DOPC     C29      CEL1    -0.150000       12.0110           0
     13398 MEMB     94       DOPC     H9R      HEL1     0.150000       1.00800           0
     13399 MEMB     94       DOPC     C210     CEL1    -0.150000       12.0110           0
     13400 MEMB     94       DOPC     H10R     HEL1     0.150000       1.00800           0
     13401 MEMB     94       DOPC     C211     CTL2    -0.180000       12.0110           0
     13402 MEMB     94       DOPC     H11R     HAL2     0.900000E-01   1.00800           0
     13403 MEMB     94       DOPC     H11S     HAL2     0.900000E-01   1.00800           0
     13404 MEMB     94       DOPC     C212     CTL2    -0.180000       12.0110           0
     13405 MEMB     94       DOPC     H12R     HAL2     0.900000E-01   1.00800           0
     13406 MEMB     94       DOPC     H12S     HAL2     0.900000E-01   1.00800           0
     13407 MEMB     94       DOPC     C213     CTL2    -0.180000       12.0110           0
     13408 MEMB     94       DOPC     H13R     HAL2     0.900000E-01   1.00800           0
     13409 MEMB     94       DOPC     H13S     HAL2     0.900000E-01   1.00800           0
     13410 MEMB     94       DOPC     C214     CTL2    -0.180000       12.0110           0
     13411 MEMB     94       DOPC     H14R     HAL2     0.900000E-01   1.00800           0
     13412 MEMB     94       DOPC     H14S     HAL2     0.900000E-01   1.00800           0
     13413 MEMB     94       DOPC     C215     CTL2    -0.180000       12.0110           0
     13414 MEMB     94       DOPC     H15R     HAL2     0.900000E-01   1.00800           0
     13415 MEMB     94       DOPC     H15S     HAL2     0.900000E-01   1.00800           0
     13416 MEMB     94       DOPC     C216     CTL2    -0.180000       12.0110           0
     13417 MEMB     94       DOPC     H16R     HAL2     0.900000E-01   1.00800           0
     13418 MEMB     94       DOPC     H16S     HAL2     0.900000E-01   1.00800           0
     13419 MEMB     94       DOPC     C217     CTL2    -0.180000       12.0110           0
     13420 MEMB     94       DOPC     H17R     HAL2     0.900000E-01   1.00800           0
     13421 MEMB     94       DOPC     H17S     HAL2     0.900000E-01   1.00800           0
     13422 MEMB     94       DOPC     C218     CTL3    -0.270000       12.0110           0
     13423 MEMB     94       DOPC     H18R     HAL3     0.900000E-01   1.00800           0
     13424 MEMB     94       DOPC     H18S     HAL3     0.900000E-01   1.00800           0
     13425 MEMB     94       DOPC     H18T     HAL3     0.900000E-01   1.00800           0
     13426 MEMB     94       DOPC     C33      CTL2    -0.180000       12.0110           0
     13427 MEMB     94       DOPC     H3X      HAL2     0.900000E-01   1.00800           0
     13428 MEMB     94       DOPC     H3Y      HAL2     0.900000E-01   1.00800           0
     13429 MEMB     94       DOPC     C34      CTL2    -0.180000       12.0110           0
     13430 MEMB     94       DOPC     H4X      HAL2     0.900000E-01   1.00800           0
     13431 MEMB     94       DOPC     H4Y      HAL2     0.900000E-01   1.00800           0
     13432 MEMB     94       DOPC     C35      CTL2    -0.180000       12.0110           0
     13433 MEMB     94       DOPC     H5X      HAL2     0.900000E-01   1.00800           0
     13434 MEMB     94       DOPC     H5Y      HAL2     0.900000E-01   1.00800           0
     13435 MEMB     94       DOPC     C36      CTL2    -0.180000       12.0110           0
     13436 MEMB     94       DOPC     H6X      HAL2     0.900000E-01   1.00800           0
     13437 MEMB     94       DOPC     H6Y      HAL2     0.900000E-01   1.00800           0
     13438 MEMB     94       DOPC     C37      CTL2    -0.180000       12.0110           0
     13439 MEMB     94       DOPC     H7X      HAL2     0.900000E-01   1.00800           0
     13440 MEMB     94       DOPC     H7Y      HAL2     0.900000E-01   1.00800           0
     13441 MEMB     94       DOPC     C38      CTL2    -0.180000       12.0110           0
     13442 MEMB     94       DOPC     H8X      HAL2     0.900000E-01   1.00800           0
     13443 MEMB     94       DOPC     H8Y      HAL2     0.900000E-01   1.00800           0
     13444 MEMB     94       DOPC     C39      CEL1    -0.150000       12.0110           0
     13445 MEMB     94       DOPC     H9X      HEL1     0.150000       1.00800           0
     13446 MEMB     94       DOPC     C310     CEL1    -0.150000       12.0110           0
     13447 MEMB     94       DOPC     H10X     HEL1     0.150000       1.00800           0
     13448 MEMB     94       DOPC     C311     CTL2    -0.180000       12.0110           0
     13449 MEMB     94       DOPC     H11X     HAL2     0.900000E-01   1.00800           0
     13450 MEMB     94       DOPC     H11Y     HAL2     0.900000E-01   1.00800           0
     13451 MEMB     94       DOPC     C312     CTL2    -0.180000       12.0110           0
     13452 MEMB     94       DOPC     H12X     HAL2     0.900000E-01   1.00800           0
     13453 MEMB     94       DOPC     H12Y     HAL2     0.900000E-01   1.00800           0
     13454 MEMB     94       DOPC     C313     CTL2    -0.180000       12.0110           0
     13455 MEMB     94       DOPC     H13X     HAL2     0.900000E-01   1.00800           0
     13456 MEMB     94       DOPC     H13Y     HAL2     0.900000E-01   1.00800           0
     13457 MEMB     94       DOPC     C314     CTL2    -0.180000       12.0110           0
     13458 MEMB     94       DOPC     H14X     HAL2     0.900000E-01   1.00800           0
     13459 MEMB     94       DOPC     H14Y     HAL2     0.900000E-01   1.00800           0
     13460 MEMB     94       DOPC     C315     CTL2    -0.180000       12.0110           0
     13461 MEMB     94       DOPC     H15X     HAL2     0.900000E-01   1.00800           0
     13462 MEMB     94       DOPC     H15Y     HAL2     0.900000E-01   1.00800           0
     13463 MEMB     94       DOPC     C316     CTL2    -0.180000       12.0110           0
     13464 MEMB     94       DOPC     H16X     HAL2     0.900000E-01   1.00800           0
     13465 MEMB     94       DOPC     H16Y     HAL2     0.900000E-01   1.00800           0
     13466 MEMB     94       DOPC     C317     CTL2    -0.180000       12.0110           0
     13467 MEMB     94       DOPC     H17X     HAL2     0.900000E-01   1.00800           0
     13468 MEMB     94       DOPC     H17Y     HAL2     0.900000E-01   1.00800           0
     13469 MEMB     94       DOPC     C318     CTL3    -0.270000       12.0110           0
     13470 MEMB     94       DOPC     H18X     HAL3     0.900000E-01   1.00800           0
     13471 MEMB     94       DOPC     H18Y     HAL3     0.900000E-01   1.00800           0
     13472 MEMB     94       DOPC     H18Z     HAL3     0.900000E-01   1.00800           0
     13473 MEMB     95       DOPC     N        NTL     -0.600000       14.0070           0
     13474 MEMB     95       DOPC     C12      CTL2    -0.100000       12.0110           0
     13475 MEMB     95       DOPC     H12A     HL       0.250000       1.00800           0
     13476 MEMB     95       DOPC     H12B     HL       0.250000       1.00800           0
     13477 MEMB     95       DOPC     C13      CTL5    -0.350000       12.0110           0
     13478 MEMB     95       DOPC     H13A     HL       0.250000       1.00800           0
     13479 MEMB     95       DOPC     H13B     HL       0.250000       1.00800           0
     13480 MEMB     95       DOPC     H13C     HL       0.250000       1.00800           0
     13481 MEMB     95       DOPC     C14      CTL5    -0.350000       12.0110           0
     13482 MEMB     95       DOPC     H14A     HL       0.250000       1.00800           0
     13483 MEMB     95       DOPC     H14B     HL       0.250000       1.00800           0
     13484 MEMB     95       DOPC     H14C     HL       0.250000       1.00800           0
     13485 MEMB     95       DOPC     C15      CTL5    -0.350000       12.0110           0
     13486 MEMB     95       DOPC     H15A     HL       0.250000       1.00800           0
     13487 MEMB     95       DOPC     H15B     HL       0.250000       1.00800           0
     13488 MEMB     95       DOPC     H15C     HL       0.250000       1.00800           0
     13489 MEMB     95       DOPC     C11      CTL2    -0.800000E-01   12.0110           0
     13490 MEMB     95       DOPC     H11A     HAL2     0.900000E-01   1.00800           0
     13491 MEMB     95       DOPC     H11B     HAL2     0.900000E-01   1.00800           0
     13492 MEMB     95       DOPC     P        PL        1.50000       30.9740           0
     13493 MEMB     95       DOPC     O13      O2L     -0.780000       15.9994           0
     13494 MEMB     95       DOPC     O14      O2L     -0.780000       15.9994           0
     13495 MEMB     95       DOPC     O12      OSLP    -0.570000       15.9994           0
     13496 MEMB     95       DOPC     O11      OSLP    -0.570000       15.9994           0
     13497 MEMB     95       DOPC     C1       CTL2    -0.800000E-01   12.0110           0
     13498 MEMB     95       DOPC     HA       HAL2     0.900000E-01   1.00800           0
     13499 MEMB     95       DOPC     HB       HAL2     0.900000E-01   1.00800           0
     13500 MEMB     95       DOPC     C2       CTL1     0.170000       12.0110           0
     13501 MEMB     95       DOPC     HS       HAL1     0.900000E-01   1.00800           0
     13502 MEMB     95       DOPC     O21      OSL     -0.490000       15.9994           0
     13503 MEMB     95       DOPC     C21      CL       0.900000       12.0110           0
     13504 MEMB     95       DOPC     O22      OBL     -0.630000       15.9994           0
     13505 MEMB     95       DOPC     C22      CTL2    -0.220000       12.0110           0
     13506 MEMB     95       DOPC     H2R      HAL2     0.900000E-01   1.00800           0
     13507 MEMB     95       DOPC     H2S      HAL2     0.900000E-01   1.00800           0
     13508 MEMB     95       DOPC     C3       CTL2     0.800000E-01   12.0110           0
     13509 MEMB     95       DOPC     HX       HAL2     0.900000E-01   1.00800           0
     13510 MEMB     95       DOPC     HY       HAL2     0.900000E-01   1.00800           0
     13511 MEMB     95       DOPC     O31      OSL     -0.490000       15.9994           0
     13512 MEMB     95       DOPC     C31      CL       0.900000       12.0110           0
     13513 MEMB     95       DOPC     O32      OBL     -0.630000       15.9994           0
     13514 MEMB     95       DOPC     C32      CTL2    -0.220000       12.0110           0
     13515 MEMB     95       DOPC     H2X      HAL2     0.900000E-01   1.00800           0
     13516 MEMB     95       DOPC     H2Y      HAL2     0.900000E-01   1.00800           0
     13517 MEMB     95       DOPC     C23      CTL2    -0.180000       12.0110           0
     13518 MEMB     95       DOPC     H3R      HAL2     0.900000E-01   1.00800           0
     13519 MEMB     95       DOPC     H3S      HAL2     0.900000E-01   1.00800           0
     13520 MEMB     95       DOPC     C24      CTL2    -0.180000       12.0110           0
     13521 MEMB     95       DOPC     H4R      HAL2     0.900000E-01   1.00800           0
     13522 MEMB     95       DOPC     H4S      HAL2     0.900000E-01   1.00800           0
     13523 MEMB     95       DOPC     C25      CTL2    -0.180000       12.0110           0
     13524 MEMB     95       DOPC     H5R      HAL2     0.900000E-01   1.00800           0
     13525 MEMB     95       DOPC     H5S      HAL2     0.900000E-01   1.00800           0
     13526 MEMB     95       DOPC     C26      CTL2    -0.180000       12.0110           0
     13527 MEMB     95       DOPC     H6R      HAL2     0.900000E-01   1.00800           0
     13528 MEMB     95       DOPC     H6S      HAL2     0.900000E-01   1.00800           0
     13529 MEMB     95       DOPC     C27      CTL2    -0.180000       12.0110           0
     13530 MEMB     95       DOPC     H7R      HAL2     0.900000E-01   1.00800           0
     13531 MEMB     95       DOPC     H7S      HAL2     0.900000E-01   1.00800           0
     13532 MEMB     95       DOPC     C28      CTL2    -0.180000       12.0110           0
     13533 MEMB     95       DOPC     H8R      HAL2     0.900000E-01   1.00800           0
     13534 MEMB     95       DOPC     H8S      HAL2     0.900000E-01   1.00800           0
     13535 MEMB     95       DOPC     C29      CEL1    -0.150000       12.0110           0
     13536 MEMB     95       DOPC     H9R      HEL1     0.150000       1.00800           0
     13537 MEMB     95       DOPC     C210     CEL1    -0.150000       12.0110           0
     13538 MEMB     95       DOPC     H10R     HEL1     0.150000       1.00800           0
     13539 MEMB     95       DOPC     C211     CTL2    -0.180000       12.0110           0
     13540 MEMB     95       DOPC     H11R     HAL2     0.900000E-01   1.00800           0
     13541 MEMB     95       DOPC     H11S     HAL2     0.900000E-01   1.00800           0
     13542 MEMB     95       DOPC     C212     CTL2    -0.180000       12.0110           0
     13543 MEMB     95       DOPC     H12R     HAL2     0.900000E-01   1.00800           0
     13544 MEMB     95       DOPC     H12S     HAL2     0.900000E-01   1.00800           0
     13545 MEMB     95       DOPC     C213     CTL2    -0.180000       12.0110           0
     13546 MEMB     95       DOPC     H13R     HAL2     0.900000E-01   1.00800           0
     13547 MEMB     95       DOPC     H13S     HAL2     0.900000E-01   1.00800           0
     13548 MEMB     95       DOPC     C214     CTL2    -0.180000       12.0110           0
     13549 MEMB     95       DOPC     H14R     HAL2     0.900000E-01   1.00800           0
     13550 MEMB     95       DOPC     H14S     HAL2     0.900000E-01   1.00800           0
     13551 MEMB     95       DOPC     C215     CTL2    -0.180000       12.0110           0
     13552 MEMB     95       DOPC     H15R     HAL2     0.900000E-01   1.00800           0
     13553 MEMB     95       DOPC     H15S     HAL2     0.900000E-01   1.00800           0
     13554 MEMB     95       DOPC     C216     CTL2    -0.180000       12.0110           0
     13555 MEMB     95       DOPC     H16R     HAL2     0.900000E-01   1.00800           0
     13556 MEMB     95       DOPC     H16S     HAL2     0.900000E-01   1.00800           0
     13557 MEMB     95       DOPC     C217     CTL2    -0.180000       12.0110           0
     13558 MEMB     95       DOPC     H17R     HAL2     0.900000E-01   1.00800           0
     13559 MEMB     95       DOPC     H17S     HAL2     0.900000E-01   1.00800           0
     13560 MEMB     95       DOPC     C218     CTL3    -0.270000       12.0110           0
     13561 MEMB     95       DOPC     H18R     HAL3     0.900000E-01   1.00800           0
     13562 MEMB     95       DOPC     H18S     HAL3     0.900000E-01   1.00800           0
     13563 MEMB     95       DOPC     H18T     HAL3     0.900000E-01   1.00800           0
     13564 MEMB     95       DOPC     C33      CTL2    -0.180000       12.0110           0
     13565 MEMB     95       DOPC     H3X      HAL2     0.900000E-01   1.00800           0
     13566 MEMB     95       DOPC     H3Y      HAL2     0.900000E-01   1.00800           0
     13567 MEMB     95       DOPC     C34      CTL2    -0.180000       12.0110           0
     13568 MEMB     95       DOPC     H4X      HAL2     0.900000E-01   1.00800           0
     13569 MEMB     95       DOPC     H4Y      HAL2     0.900000E-01   1.00800           0
     13570 MEMB     95       DOPC     C35      CTL2    -0.180000       12.0110           0
     13571 MEMB     95       DOPC     H5X      HAL2     0.900000E-01   1.00800           0
     13572 MEMB     95       DOPC     H5Y      HAL2     0.900000E-01   1.00800           0
     13573 MEMB     95       DOPC     C36      CTL2    -0.180000       12.0110           0
     13574 MEMB     95       DOPC     H6X      HAL2     0.900000E-01   1.00800           0
     13575 MEMB     95       DOPC     H6Y      HAL2     0.900000E-01   1.00800           0
     13576 MEMB     95       DOPC     C37      CTL2    -0.180000       12.0110           0
     13577 MEMB     95       DOPC     H7X      HAL2     0.900000E-01   1.00800           0
     13578 MEMB     95       DOPC     H7Y      HAL2     0.900000E-01   1.00800           0
     13579 MEMB     95       DOPC     C38      CTL2    -0.180000       12.0110           0
     13580 MEMB     95       DOPC     H8X      HAL2     0.900000E-01   1.00800           0
     13581 MEMB     95       DOPC     H8Y      HAL2     0.900000E-01   1.00800           0
     13582 MEMB     95       DOPC     C39      CEL1    -0.150000       12.0110           0
     13583 MEMB     95       DOPC     H9X      HEL1     0.150000       1.00800           0
     13584 MEMB     95       DOPC     C310     CEL1    -0.150000       12.0110           0
     13585 MEMB     95       DOPC     H10X     HEL1     0.150000       1.00800           0
     13586 MEMB     95       DOPC     C311     CTL2    -0.180000       12.0110           0
     13587 MEMB     95       DOPC     H11X     HAL2     0.900000E-01   1.00800           0
     13588 MEMB     95       DOPC     H11Y     HAL2     0.900000E-01   1.00800           0
     13589 MEMB     95       DOPC     C312     CTL2    -0.180000       12.0110           0
     13590 MEMB     95       DOPC     H12X     HAL2     0.900000E-01   1.00800           0
     13591 MEMB     95       DOPC     H12Y     HAL2     0.900000E-01   1.00800           0
     13592 MEMB     95       DOPC     C313     CTL2    -0.180000       12.0110           0
     13593 MEMB     95       DOPC     H13X     HAL2     0.900000E-01   1.00800           0
     13594 MEMB     95       DOPC     H13Y     HAL2     0.900000E-01   1.00800           0
     13595 MEMB     95       DOPC     C314     CTL2    -0.180000       12.0110           0
     13596 MEMB     95       DOPC     H14X     HAL2     0.900000E-01   1.00800           0
     13597 MEMB     95       DOPC     H14Y     HAL2     0.900000E-01   1.00800           0
     13598 MEMB     95       DOPC     C315     CTL2    -0.180000       12.0110           0
     13599 MEMB     95       DOPC     H15X     HAL2     0.900000E-01   1.00800           0
     13600 MEMB     95       DOPC     H15Y     HAL2     0.900000E-01   1.00800           0
     13601 MEMB     95       DOPC     C316     CTL2    -0.180000       12.0110           0
     13602 MEMB     95       DOPC     H16X     HAL2     0.900000E-01   1.00800           0
     13603 MEMB     95       DOPC     H16Y     HAL2     0.900000E-01   1.00800           0
     13604 MEMB     95       DOPC     C317     CTL2    -0.180000       12.0110           0
     13605 MEMB     95       DOPC     H17X     HAL2     0.900000E-01   1.00800           0
     13606 MEMB     95       DOPC     H17Y     HAL2     0.900000E-01   1.00800           0
     13607 MEMB     95       DOPC     C318     CTL3    -0.270000       12.0110           0
     13608 MEMB     95       DOPC     H18X     HAL3     0.900000E-01   1.00800           0
     13609 MEMB     95       DOPC     H18Y     HAL3     0.900000E-01   1.00800           0
     13610 MEMB     95       DOPC     H18Z     HAL3     0.900000E-01   1.00800           0
     13611 MEMB     96       DOPC     N        NTL     -0.600000       14.0070           0
     13612 MEMB     96       DOPC     C12      CTL2    -0.100000       12.0110           0
     13613 MEMB     96       DOPC     H12A     HL       0.250000       1.00800           0
     13614 MEMB     96       DOPC     H12B     HL       0.250000       1.00800           0
     13615 MEMB     96       DOPC     C13      CTL5    -0.350000       12.0110           0
     13616 MEMB     96       DOPC     H13A     HL       0.250000       1.00800           0
     13617 MEMB     96       DOPC     H13B     HL       0.250000       1.00800           0
     13618 MEMB     96       DOPC     H13C     HL       0.250000       1.00800           0
     13619 MEMB     96       DOPC     C14      CTL5    -0.350000       12.0110           0
     13620 MEMB     96       DOPC     H14A     HL       0.250000       1.00800           0
     13621 MEMB     96       DOPC     H14B     HL       0.250000       1.00800           0
     13622 MEMB     96       DOPC     H14C     HL       0.250000       1.00800           0
     13623 MEMB     96       DOPC     C15      CTL5    -0.350000       12.0110           0
     13624 MEMB     96       DOPC     H15A     HL       0.250000       1.00800           0
     13625 MEMB     96       DOPC     H15B     HL       0.250000       1.00800           0
     13626 MEMB     96       DOPC     H15C     HL       0.250000       1.00800           0
     13627 MEMB     96       DOPC     C11      CTL2    -0.800000E-01   12.0110           0
     13628 MEMB     96       DOPC     H11A     HAL2     0.900000E-01   1.00800           0
     13629 MEMB     96       DOPC     H11B     HAL2     0.900000E-01   1.00800           0
     13630 MEMB     96       DOPC     P        PL        1.50000       30.9740           0
     13631 MEMB     96       DOPC     O13      O2L     -0.780000       15.9994           0
     13632 MEMB     96       DOPC     O14      O2L     -0.780000       15.9994           0
     13633 MEMB     96       DOPC     O12      OSLP    -0.570000       15.9994           0
     13634 MEMB     96       DOPC     O11      OSLP    -0.570000       15.9994           0
     13635 MEMB     96       DOPC     C1       CTL2    -0.800000E-01   12.0110           0
     13636 MEMB     96       DOPC     HA       HAL2     0.900000E-01   1.00800           0
     13637 MEMB     96       DOPC     HB       HAL2     0.900000E-01   1.00800           0
     13638 MEMB     96       DOPC     C2       CTL1     0.170000       12.0110           0
     13639 MEMB     96       DOPC     HS       HAL1     0.900000E-01   1.00800           0
     13640 MEMB     96       DOPC     O21      OSL     -0.490000       15.9994           0
     13641 MEMB     96       DOPC     C21      CL       0.900000       12.0110           0
     13642 MEMB     96       DOPC     O22      OBL     -0.630000       15.9994           0
     13643 MEMB     96       DOPC     C22      CTL2    -0.220000       12.0110           0
     13644 MEMB     96       DOPC     H2R      HAL2     0.900000E-01   1.00800           0
     13645 MEMB     96       DOPC     H2S      HAL2     0.900000E-01   1.00800           0
     13646 MEMB     96       DOPC     C3       CTL2     0.800000E-01   12.0110           0
     13647 MEMB     96       DOPC     HX       HAL2     0.900000E-01   1.00800           0
     13648 MEMB     96       DOPC     HY       HAL2     0.900000E-01   1.00800           0
     13649 MEMB     96       DOPC     O31      OSL     -0.490000       15.9994           0
     13650 MEMB     96       DOPC     C31      CL       0.900000       12.0110           0
     13651 MEMB     96       DOPC     O32      OBL     -0.630000       15.9994           0
     13652 MEMB     96       DOPC     C32      CTL2    -0.220000       12.0110           0
     13653 MEMB     96       DOPC     H2X      HAL2     0.900000E-01   1.00800           0
     13654 MEMB     96       DOPC     H2Y      HAL2     0.900000E-01   1.00800           0
     13655 MEMB     96       DOPC     C23      CTL2    -0.180000       12.0110           0
     13656 MEMB     96       DOPC     H3R      HAL2     0.900000E-01   1.00800           0
     13657 MEMB     96       DOPC     H3S      HAL2     0.900000E-01   1.00800           0
     13658 MEMB     96       DOPC     C24      CTL2    -0.180000       12.0110           0
     13659 MEMB     96       DOPC     H4R      HAL2     0.900000E-01   1.00800           0
     13660 MEMB     96       DOPC     H4S      HAL2     0.900000E-01   1.00800           0
     13661 MEMB     96       DOPC     C25      CTL2    -0.180000       12.0110           0
     13662 MEMB     96       DOPC     H5R      HAL2     0.900000E-01   1.00800           0
     13663 MEMB     96       DOPC     H5S      HAL2     0.900000E-01   1.00800           0
     13664 MEMB     96       DOPC     C26      CTL2    -0.180000       12.0110           0
     13665 MEMB     96       DOPC     H6R      HAL2     0.900000E-01   1.00800           0
     13666 MEMB     96       DOPC     H6S      HAL2     0.900000E-01   1.00800           0
     13667 MEMB     96       DOPC     C27      CTL2    -0.180000       12.0110           0
     13668 MEMB     96       DOPC     H7R      HAL2     0.900000E-01   1.00800           0
     13669 MEMB     96       DOPC     H7S      HAL2     0.900000E-01   1.00800           0
     13670 MEMB     96       DOPC     C28      CTL2    -0.180000       12.0110           0
     13671 MEMB     96       DOPC     H8R      HAL2     0.900000E-01   1.00800           0
     13672 MEMB     96       DOPC     H8S      HAL2     0.900000E-01   1.00800           0
     13673 MEMB     96       DOPC     C29      CEL1    -0.150000       12.0110           0
     13674 MEMB     96       DOPC     H9R      HEL1     0.150000       1.00800           0
     13675 MEMB     96       DOPC     C210     CEL1    -0.150000       12.0110           0
     13676 MEMB     96       DOPC     H10R     HEL1     0.150000       1.00800           0
     13677 MEMB     96       DOPC     C211     CTL2    -0.180000       12.0110           0
     13678 MEMB     96       DOPC     H11R     HAL2     0.900000E-01   1.00800           0
     13679 MEMB     96       DOPC     H11S     HAL2     0.900000E-01   1.00800           0
     13680 MEMB     96       DOPC     C212     CTL2    -0.180000       12.0110           0
     13681 MEMB     96       DOPC     H12R     HAL2     0.900000E-01   1.00800           0
     13682 MEMB     96       DOPC     H12S     HAL2     0.900000E-01   1.00800           0
     13683 MEMB     96       DOPC     C213     CTL2    -0.180000       12.0110           0
     13684 MEMB     96       DOPC     H13R     HAL2     0.900000E-01   1.00800           0
     13685 MEMB     96       DOPC     H13S     HAL2     0.900000E-01   1.00800           0
     13686 MEMB     96       DOPC     C214     CTL2    -0.180000       12.0110           0
     13687 MEMB     96       DOPC     H14R     HAL2     0.900000E-01   1.00800           0
     13688 MEMB     96       DOPC     H14S     HAL2     0.900000E-01   1.00800           0
     13689 MEMB     96       DOPC     C215     CTL2    -0.180000       12.0110           0
     13690 MEMB     96       DOPC     H15R     HAL2     0.900000E-01   1.00800           0
     13691 MEMB     96       DOPC     H15S     HAL2     0.900000E-01   1.00800           0
     13692 MEMB     96       DOPC     C216     CTL2    -0.180000       12.0110           0
     13693 MEMB     96       DOPC     H16R     HAL2     0.900000E-01   1.00800           0
     13694 MEMB     96       DOPC     H16S     HAL2     0.900000E-01   1.00800           0
     13695 MEMB     96       DOPC     C217     CTL2    -0.180000       12.0110           0
     13696 MEMB     96       DOPC     H17R     HAL2     0.900000E-01   1.00800           0
     13697 MEMB     96       DOPC     H17S     HAL2     0.900000E-01   1.00800           0
     13698 MEMB     96       DOPC     C218     CTL3    -0.270000       12.0110           0
     13699 MEMB     96       DOPC     H18R     HAL3     0.900000E-01   1.00800           0
     13700 MEMB     96       DOPC     H18S     HAL3     0.900000E-01   1.00800           0
     13701 MEMB     96       DOPC     H18T     HAL3     0.900000E-01   1.00800           0
     13702 MEMB     96       DOPC     C33      CTL2    -0.180000       12.0110           0
     13703 MEMB     96       DOPC     H3X      HAL2     0.900000E-01   1.00800           0
     13704 MEMB     96       DOPC     H3Y      HAL2     0.900000E-01   1.00800           0
     13705 MEMB     96       DOPC     C34      CTL2    -0.180000       12.0110           0
     13706 MEMB     96       DOPC     H4X      HAL2     0.900000E-01   1.00800           0
     13707 MEMB     96       DOPC     H4Y      HAL2     0.900000E-01   1.00800           0
     13708 MEMB     96       DOPC     C35      CTL2    -0.180000       12.0110           0
     13709 MEMB     96       DOPC     H5X      HAL2     0.900000E-01   1.00800           0
     13710 MEMB     96       DOPC     H5Y      HAL2     0.900000E-01   1.00800           0
     13711 MEMB     96       DOPC     C36      CTL2    -0.180000       12.0110           0
     13712 MEMB     96       DOPC     H6X      HAL2     0.900000E-01   1.00800           0
     13713 MEMB     96       DOPC     H6Y      HAL2     0.900000E-01   1.00800           0
     13714 MEMB     96       DOPC     C37      CTL2    -0.180000       12.0110           0
     13715 MEMB     96       DOPC     H7X      HAL2     0.900000E-01   1.00800           0
     13716 MEMB     96       DOPC     H7Y      HAL2     0.900000E-01   1.00800           0
     13717 MEMB     96       DOPC     C38      CTL2    -0.180000       12.0110           0
     13718 MEMB     96       DOPC     H8X      HAL2     0.900000E-01   1.00800           0
     13719 MEMB     96       DOPC     H8Y      HAL2     0.900000E-01   1.00800           0
     13720 MEMB     96       DOPC     C39      CEL1    -0.150000       12.0110           0
     13721 MEMB     96       DOPC     H9X      HEL1     0.150000       1.00800           0
     13722 MEMB     96       DOPC     C310     CEL1    -0.150000       12.0110           0
     13723 MEMB     96       DOPC     H10X     HEL1     0.150000       1.00800           0
     13724 MEMB     96       DOPC     C311     CTL2    -0.180000       12.0110           0
     13725 MEMB     96       DOPC     H11X     HAL2     0.900000E-01   1.00800           0
     13726 MEMB     96       DOPC     H11Y     HAL2     0.900000E-01   1.00800           0
     13727 MEMB     96       DOPC     C312     CTL2    -0.180000       12.0110           0
     13728 MEMB     96       DOPC     H12X     HAL2     0.900000E-01   1.00800           0
     13729 MEMB     96       DOPC     H12Y     HAL2     0.900000E-01   1.00800           0
     13730 MEMB     96       DOPC     C313     CTL2    -0.180000       12.0110           0
     13731 MEMB     96       DOPC     H13X     HAL2     0.900000E-01   1.00800           0
     13732 MEMB     96       DOPC     H13Y     HAL2     0.900000E-01   1.00800           0
     13733 MEMB     96       DOPC     C314     CTL2    -0.180000       12.0110           0
     13734 MEMB     96       DOPC     H14X     HAL2     0.900000E-01   1.00800           0
     13735 MEMB     96       DOPC     H14Y     HAL2     0.900000E-01   1.00800           0
     13736 MEMB     96       DOPC     C315     CTL2    -0.180000       12.0110           0
     13737 MEMB     96       DOPC     H15X     HAL2     0.900000E-01   1.00800           0
     13738 MEMB     96       DOPC     H15Y     HAL2     0.900000E-01   1.00800           0
     13739 MEMB     96       DOPC     C316     CTL2    -0.180000       12.0110           0
     13740 MEMB     96       DOPC     H16X     HAL2     0.900000E-01   1.00800           0
     13741 MEMB     96       DOPC     H16Y     HAL2     0.900000E-01   1.00800           0
     13742 MEMB     96       DOPC     C317     CTL2    -0.180000       12.0110           0
     13743 MEMB     96       DOPC     H17X     HAL2     0.900000E-01   1.00800           0
     13744 MEMB     96       DOPC     H17Y     HAL2     0.900000E-01   1.00800           0
     13745 MEMB     96       DOPC     C318     CTL3    -0.270000       12.0110           0
     13746 MEMB     96       DOPC     H18X     HAL3     0.900000E-01   1.00800           0
     13747 MEMB     96       DOPC     H18Y     HAL3     0.900000E-01   1.00800           0
     13748 MEMB     96       DOPC     H18Z     HAL3     0.900000E-01   1.00800           0
     13749 MEMB     97       DOPC     N        NTL     -0.600000       14.0070           0
     13750 MEMB     97       DOPC     C12      CTL2    -0.100000       12.0110           0
     13751 MEMB     97       DOPC     H12A     HL       0.250000       1.00800           0
     13752 MEMB     97       DOPC     H12B     HL       0.250000       1.00800           0
     13753 MEMB     97       DOPC     C13      CTL5    -0.350000       12.0110           0
     13754 MEMB     97       DOPC     H13A     HL       0.250000       1.00800           0
     13755 MEMB     97       DOPC     H13B     HL       0.250000       1.00800           0
     13756 MEMB     97       DOPC     H13C     HL       0.250000       1.00800           0
     13757 MEMB     97       DOPC     C14      CTL5    -0.350000       12.0110           0
     13758 MEMB     97       DOPC     H14A     HL       0.250000       1.00800           0
     13759 MEMB     97       DOPC     H14B     HL       0.250000       1.00800           0
     13760 MEMB     97       DOPC     H14C     HL       0.250000       1.00800           0
     13761 MEMB     97       DOPC     C15      CTL5    -0.350000       12.0110           0
     13762 MEMB     97       DOPC     H15A     HL       0.250000       1.00800           0
     13763 MEMB     97       DOPC     H15B     HL       0.250000       1.00800           0
     13764 MEMB     97       DOPC     H15C     HL       0.250000       1.00800           0
     13765 MEMB     97       DOPC     C11      CTL2    -0.800000E-01   12.0110           0
     13766 MEMB     97       DOPC     H11A     HAL2     0.900000E-01   1.00800           0
     13767 MEMB     97       DOPC     H11B     HAL2     0.900000E-01   1.00800           0
     13768 MEMB     97       DOPC     P        PL        1.50000       30.9740           0
     13769 MEMB     97       DOPC     O13      O2L     -0.780000       15.9994           0
     13770 MEMB     97       DOPC     O14      O2L     -0.780000       15.9994           0
     13771 MEMB     97       DOPC     O12      OSLP    -0.570000       15.9994           0
     13772 MEMB     97       DOPC     O11      OSLP    -0.570000       15.9994           0
     13773 MEMB     97       DOPC     C1       CTL2    -0.800000E-01   12.0110           0
     13774 MEMB     97       DOPC     HA       HAL2     0.900000E-01   1.00800           0
     13775 MEMB     97       DOPC     HB       HAL2     0.900000E-01   1.00800           0
     13776 MEMB     97       DOPC     C2       CTL1     0.170000       12.0110           0
     13777 MEMB     97       DOPC     HS       HAL1     0.900000E-01   1.00800           0
     13778 MEMB     97       DOPC     O21      OSL     -0.490000       15.9994           0
     13779 MEMB     97       DOPC     C21      CL       0.900000       12.0110           0
     13780 MEMB     97       DOPC     O22      OBL     -0.630000       15.9994           0
     13781 MEMB     97       DOPC     C22      CTL2    -0.220000       12.0110           0
     13782 MEMB     97       DOPC     H2R      HAL2     0.900000E-01   1.00800           0
     13783 MEMB     97       DOPC     H2S      HAL2     0.900000E-01   1.00800           0
     13784 MEMB     97       DOPC     C3       CTL2     0.800000E-01   12.0110           0
     13785 MEMB     97       DOPC     HX       HAL2     0.900000E-01   1.00800           0
     13786 MEMB     97       DOPC     HY       HAL2     0.900000E-01   1.00800           0
     13787 MEMB     97       DOPC     O31      OSL     -0.490000       15.9994           0
     13788 MEMB     97       DOPC     C31      CL       0.900000       12.0110           0
     13789 MEMB     97       DOPC     O32      OBL     -0.630000       15.9994           0
     13790 MEMB     97       DOPC     C32      CTL2    -0.220000       12.0110           0
     13791 MEMB     97       DOPC     H2X      HAL2     0.900000E-01   1.00800           0
     13792 MEMB     97       DOPC     H2Y      HAL2     0.900000E-01   1.00800           0
     13793 MEMB     97       DOPC     C23      CTL2    -0.180000       12.0110           0
     13794 MEMB     97       DOPC     H3R      HAL2     0.900000E-01   1.00800           0
     13795 MEMB     97       DOPC     H3S      HAL2     0.900000E-01   1.00800           0
     13796 MEMB     97       DOPC     C24      CTL2    -0.180000       12.0110           0
     13797 MEMB     97       DOPC     H4R      HAL2     0.900000E-01   1.00800           0
     13798 MEMB     97       DOPC     H4S      HAL2     0.900000E-01   1.00800           0
     13799 MEMB     97       DOPC     C25      CTL2    -0.180000       12.0110           0
     13800 MEMB     97       DOPC     H5R      HAL2     0.900000E-01   1.00800           0
     13801 MEMB     97       DOPC     H5S      HAL2     0.900000E-01   1.00800           0
     13802 MEMB     97       DOPC     C26      CTL2    -0.180000       12.0110           0
     13803 MEMB     97       DOPC     H6R      HAL2     0.900000E-01   1.00800           0
     13804 MEMB     97       DOPC     H6S      HAL2     0.900000E-01   1.00800           0
     13805 MEMB     97       DOPC     C27      CTL2    -0.180000       12.0110           0
     13806 MEMB     97       DOPC     H7R      HAL2     0.900000E-01   1.00800           0
     13807 MEMB     97       DOPC     H7S      HAL2     0.900000E-01   1.00800           0
     13808 MEMB     97       DOPC     C28      CTL2    -0.180000       12.0110           0
     13809 MEMB     97       DOPC     H8R      HAL2     0.900000E-01   1.00800           0
     13810 MEMB     97       DOPC     H8S      HAL2     0.900000E-01   1.00800           0
     13811 MEMB     97       DOPC     C29      CEL1    -0.150000       12.0110           0
     13812 MEMB     97       DOPC     H9R      HEL1     0.150000       1.00800           0
     13813 MEMB     97       DOPC     C210     CEL1    -0.150000       12.0110           0
     13814 MEMB     97       DOPC     H10R     HEL1     0.150000       1.00800           0
     13815 MEMB     97       DOPC     C211     CTL2    -0.180000       12.0110           0
     13816 MEMB     97       DOPC     H11R     HAL2     0.900000E-01   1.00800           0
     13817 MEMB     97       DOPC     H11S     HAL2     0.900000E-01   1.00800           0
     13818 MEMB     97       DOPC     C212     CTL2    -0.180000       12.0110           0
     13819 MEMB     97       DOPC     H12R     HAL2     0.900000E-01   1.00800           0
     13820 MEMB     97       DOPC     H12S     HAL2     0.900000E-01   1.00800           0
     13821 MEMB     97       DOPC     C213     CTL2    -0.180000       12.0110           0
     13822 MEMB     97       DOPC     H13R     HAL2     0.900000E-01   1.00800           0
     13823 MEMB     97       DOPC     H13S     HAL2     0.900000E-01   1.00800           0
     13824 MEMB     97       DOPC     C214     CTL2    -0.180000       12.0110           0
     13825 MEMB     97       DOPC     H14R     HAL2     0.900000E-01   1.00800           0
     13826 MEMB     97       DOPC     H14S     HAL2     0.900000E-01   1.00800           0
     13827 MEMB     97       DOPC     C215     CTL2    -0.180000       12.0110           0
     13828 MEMB     97       DOPC     H15R     HAL2     0.900000E-01   1.00800           0
     13829 MEMB     97       DOPC     H15S     HAL2     0.900000E-01   1.00800           0
     13830 MEMB     97       DOPC     C216     CTL2    -0.180000       12.0110           0
     13831 MEMB     97       DOPC     H16R     HAL2     0.900000E-01   1.00800           0
     13832 MEMB     97       DOPC     H16S     HAL2     0.900000E-01   1.00800           0
     13833 MEMB     97       DOPC     C217     CTL2    -0.180000       12.0110           0
     13834 MEMB     97       DOPC     H17R     HAL2     0.900000E-01   1.00800           0
     13835 MEMB     97       DOPC     H17S     HAL2     0.900000E-01   1.00800           0
     13836 MEMB     97       DOPC     C218     CTL3    -0.270000       12.0110           0
     13837 MEMB     97       DOPC     H18R     HAL3     0.900000E-01   1.00800           0
     13838 MEMB     97       DOPC     H18S     HAL3     0.900000E-01   1.00800           0
     13839 MEMB     97       DOPC     H18T     HAL3     0.900000E-01   1.00800           0
     13840 MEMB     97       DOPC     C33      CTL2    -0.180000       12.0110           0
     13841 MEMB     97       DOPC     H3X      HAL2     0.900000E-01   1.00800           0
     13842 MEMB     97       DOPC     H3Y      HAL2     0.900000E-01   1.00800           0
     13843 MEMB     97       DOPC     C34      CTL2    -0.180000       12.0110           0
     13844 MEMB     97       DOPC     H4X      HAL2     0.900000E-01   1.00800           0
     13845 MEMB     97       DOPC     H4Y      HAL2     0.900000E-01   1.00800           0
     13846 MEMB     97       DOPC     C35      CTL2    -0.180000       12.0110           0
     13847 MEMB     97       DOPC     H5X      HAL2     0.900000E-01   1.00800           0
     13848 MEMB     97       DOPC     H5Y      HAL2     0.900000E-01   1.00800           0
     13849 MEMB     97       DOPC     C36      CTL2    -0.180000       12.0110           0
     13850 MEMB     97       DOPC     H6X      HAL2     0.900000E-01   1.00800           0
     13851 MEMB     97       DOPC     H6Y      HAL2     0.900000E-01   1.00800           0
     13852 MEMB     97       DOPC     C37      CTL2    -0.180000       12.0110           0
     13853 MEMB     97       DOPC     H7X      HAL2     0.900000E-01   1.00800           0
     13854 MEMB     97       DOPC     H7Y      HAL2     0.900000E-01   1.00800           0
     13855 MEMB     97       DOPC     C38      CTL2    -0.180000       12.0110           0
     13856 MEMB     97       DOPC     H8X      HAL2     0.900000E-01   1.00800           0
     13857 MEMB     97       DOPC     H8Y      HAL2     0.900000E-01   1.00800           0
     13858 MEMB     97       DOPC     C39      CEL1    -0.150000       12.0110           0
     13859 MEMB     97       DOPC     H9X      HEL1     0.150000       1.00800           0
     13860 MEMB     97       DOPC     C310     CEL1    -0.150000       12.0110           0
     13861 MEMB     97       DOPC     H10X     HEL1     0.150000       1.00800           0
     13862 MEMB     97       DOPC     C311     CTL2    -0.180000       12.0110           0
     13863 MEMB     97       DOPC     H11X     HAL2     0.900000E-01   1.00800           0
     13864 MEMB     97       DOPC     H11Y     HAL2     0.900000E-01   1.00800           0
     13865 MEMB     97       DOPC     C312     CTL2    -0.180000       12.0110           0
     13866 MEMB     97       DOPC     H12X     HAL2     0.900000E-01   1.00800           0
     13867 MEMB     97       DOPC     H12Y     HAL2     0.900000E-01   1.00800           0
     13868 MEMB     97       DOPC     C313     CTL2    -0.180000       12.0110           0
     13869 MEMB     97       DOPC     H13X     HAL2     0.900000E-01   1.00800           0
     13870 MEMB     97       DOPC     H13Y     HAL2     0.900000E-01   1.00800           0
     13871 MEMB     97       DOPC     C314     CTL2    -0.180000       12.0110           0
     13872 MEMB     97       DOPC     H14X     HAL2     0.900000E-01   1.00800           0
     13873 MEMB     97       DOPC     H14Y     HAL2     0.900000E-01   1.00800           0
     13874 MEMB     97       DOPC     C315     CTL2    -0.180000       12.0110           0
     13875 MEMB     97       DOPC     H15X     HAL2     0.900000E-01   1.00800           0
     13876 MEMB     97       DOPC     H15Y     HAL2     0.900000E-01   1.00800           0
     13877 MEMB     97       DOPC     C316     CTL2    -0.180000       12.0110           0
     13878 MEMB     97       DOPC     H16X     HAL2     0.900000E-01   1.00800           0
     13879 MEMB     97       DOPC     H16Y     HAL2     0.900000E-01   1.00800           0
     13880 MEMB     97       DOPC     C317     CTL2    -0.180000       12.0110           0
     13881 MEMB     97       DOPC     H17X     HAL2     0.900000E-01   1.00800           0
     13882 MEMB     97       DOPC     H17Y     HAL2     0.900000E-01   1.00800           0
     13883 MEMB     97       DOPC     C318     CTL3    -0.270000       12.0110           0
     13884 MEMB     97       DOPC     H18X     HAL3     0.900000E-01   1.00800           0
     13885 MEMB     97       DOPC     H18Y     HAL3     0.900000E-01   1.00800           0
     13886 MEMB     97       DOPC     H18Z     HAL3     0.900000E-01   1.00800           0
     13887 MEMB     98       DOPC     N        NTL     -0.600000       14.0070           0
     13888 MEMB     98       DOPC     C12      CTL2    -0.100000       12.0110           0
     13889 MEMB     98       DOPC     H12A     HL       0.250000       1.00800           0
     13890 MEMB     98       DOPC     H12B     HL       0.250000       1.00800           0
     13891 MEMB     98       DOPC     C13      CTL5    -0.350000       12.0110           0
     13892 MEMB     98       DOPC     H13A     HL       0.250000       1.00800           0
     13893 MEMB     98       DOPC     H13B     HL       0.250000       1.00800           0
     13894 MEMB     98       DOPC     H13C     HL       0.250000       1.00800           0
     13895 MEMB     98       DOPC     C14      CTL5    -0.350000       12.0110           0
     13896 MEMB     98       DOPC     H14A     HL       0.250000       1.00800           0
     13897 MEMB     98       DOPC     H14B     HL       0.250000       1.00800           0
     13898 MEMB     98       DOPC     H14C     HL       0.250000       1.00800           0
     13899 MEMB     98       DOPC     C15      CTL5    -0.350000       12.0110           0
     13900 MEMB     98       DOPC     H15A     HL       0.250000       1.00800           0
     13901 MEMB     98       DOPC     H15B     HL       0.250000       1.00800           0
     13902 MEMB     98       DOPC     H15C     HL       0.250000       1.00800           0
     13903 MEMB     98       DOPC     C11      CTL2    -0.800000E-01   12.0110           0
     13904 MEMB     98       DOPC     H11A     HAL2     0.900000E-01   1.00800           0
     13905 MEMB     98       DOPC     H11B     HAL2     0.900000E-01   1.00800           0
     13906 MEMB     98       DOPC     P        PL        1.50000       30.9740           0
     13907 MEMB     98       DOPC     O13      O2L     -0.780000       15.9994           0
     13908 MEMB     98       DOPC     O14      O2L     -0.780000       15.9994           0
     13909 MEMB     98       DOPC     O12      OSLP    -0.570000       15.9994           0
     13910 MEMB     98       DOPC     O11      OSLP    -0.570000       15.9994           0
     13911 MEMB     98       DOPC     C1       CTL2    -0.800000E-01   12.0110           0
     13912 MEMB     98       DOPC     HA       HAL2     0.900000E-01   1.00800           0
     13913 MEMB     98       DOPC     HB       HAL2     0.900000E-01   1.00800           0
     13914 MEMB     98       DOPC     C2       CTL1     0.170000       12.0110           0
     13915 MEMB     98       DOPC     HS       HAL1     0.900000E-01   1.00800           0
     13916 MEMB     98       DOPC     O21      OSL     -0.490000       15.9994           0
     13917 MEMB     98       DOPC     C21      CL       0.900000       12.0110           0
     13918 MEMB     98       DOPC     O22      OBL     -0.630000       15.9994           0
     13919 MEMB     98       DOPC     C22      CTL2    -0.220000       12.0110           0
     13920 MEMB     98       DOPC     H2R      HAL2     0.900000E-01   1.00800           0
     13921 MEMB     98       DOPC     H2S      HAL2     0.900000E-01   1.00800           0
     13922 MEMB     98       DOPC     C3       CTL2     0.800000E-01   12.0110           0
     13923 MEMB     98       DOPC     HX       HAL2     0.900000E-01   1.00800           0
     13924 MEMB     98       DOPC     HY       HAL2     0.900000E-01   1.00800           0
     13925 MEMB     98       DOPC     O31      OSL     -0.490000       15.9994           0
     13926 MEMB     98       DOPC     C31      CL       0.900000       12.0110           0
     13927 MEMB     98       DOPC     O32      OBL     -0.630000       15.9994           0
     13928 MEMB     98       DOPC     C32      CTL2    -0.220000       12.0110           0
     13929 MEMB     98       DOPC     H2X      HAL2     0.900000E-01   1.00800           0
     13930 MEMB     98       DOPC     H2Y      HAL2     0.900000E-01   1.00800           0
     13931 MEMB     98       DOPC     C23      CTL2    -0.180000       12.0110           0
     13932 MEMB     98       DOPC     H3R      HAL2     0.900000E-01   1.00800           0
     13933 MEMB     98       DOPC     H3S      HAL2     0.900000E-01   1.00800           0
     13934 MEMB     98       DOPC     C24      CTL2    -0.180000       12.0110           0
     13935 MEMB     98       DOPC     H4R      HAL2     0.900000E-01   1.00800           0
     13936 MEMB     98       DOPC     H4S      HAL2     0.900000E-01   1.00800           0
     13937 MEMB     98       DOPC     C25      CTL2    -0.180000       12.0110           0
     13938 MEMB     98       DOPC     H5R      HAL2     0.900000E-01   1.00800           0
     13939 MEMB     98       DOPC     H5S      HAL2     0.900000E-01   1.00800           0
     13940 MEMB     98       DOPC     C26      CTL2    -0.180000       12.0110           0
     13941 MEMB     98       DOPC     H6R      HAL2     0.900000E-01   1.00800           0
     13942 MEMB     98       DOPC     H6S      HAL2     0.900000E-01   1.00800           0
     13943 MEMB     98       DOPC     C27      CTL2    -0.180000       12.0110           0
     13944 MEMB     98       DOPC     H7R      HAL2     0.900000E-01   1.00800           0
     13945 MEMB     98       DOPC     H7S      HAL2     0.900000E-01   1.00800           0
     13946 MEMB     98       DOPC     C28      CTL2    -0.180000       12.0110           0
     13947 MEMB     98       DOPC     H8R      HAL2     0.900000E-01   1.00800           0
     13948 MEMB     98       DOPC     H8S      HAL2     0.900000E-01   1.00800           0
     13949 MEMB     98       DOPC     C29      CEL1    -0.150000       12.0110           0
     13950 MEMB     98       DOPC     H9R      HEL1     0.150000       1.00800           0
     13951 MEMB     98       DOPC     C210     CEL1    -0.150000       12.0110           0
     13952 MEMB     98       DOPC     H10R     HEL1     0.150000       1.00800           0
     13953 MEMB     98       DOPC     C211     CTL2    -0.180000       12.0110           0
     13954 MEMB     98       DOPC     H11R     HAL2     0.900000E-01   1.00800           0
     13955 MEMB     98       DOPC     H11S     HAL2     0.900000E-01   1.00800           0
     13956 MEMB     98       DOPC     C212     CTL2    -0.180000       12.0110           0
     13957 MEMB     98       DOPC     H12R     HAL2     0.900000E-01   1.00800           0
     13958 MEMB     98       DOPC     H12S     HAL2     0.900000E-01   1.00800           0
     13959 MEMB     98       DOPC     C213     CTL2    -0.180000       12.0110           0
     13960 MEMB     98       DOPC     H13R     HAL2     0.900000E-01   1.00800           0
     13961 MEMB     98       DOPC     H13S     HAL2     0.900000E-01   1.00800           0
     13962 MEMB     98       DOPC     C214     CTL2    -0.180000       12.0110           0
     13963 MEMB     98       DOPC     H14R     HAL2     0.900000E-01   1.00800           0
     13964 MEMB     98       DOPC     H14S     HAL2     0.900000E-01   1.00800           0
     13965 MEMB     98       DOPC     C215     CTL2    -0.180000       12.0110           0
     13966 MEMB     98       DOPC     H15R     HAL2     0.900000E-01   1.00800           0
     13967 MEMB     98       DOPC     H15S     HAL2     0.900000E-01   1.00800           0
     13968 MEMB     98       DOPC     C216     CTL2    -0.180000       12.0110           0
     13969 MEMB     98       DOPC     H16R     HAL2     0.900000E-01   1.00800           0
     13970 MEMB     98       DOPC     H16S     HAL2     0.900000E-01   1.00800           0
     13971 MEMB     98       DOPC     C217     CTL2    -0.180000       12.0110           0
     13972 MEMB     98       DOPC     H17R     HAL2     0.900000E-01   1.00800           0
     13973 MEMB     98       DOPC     H17S     HAL2     0.900000E-01   1.00800           0
     13974 MEMB     98       DOPC     C218     CTL3    -0.270000       12.0110           0
     13975 MEMB     98       DOPC     H18R     HAL3     0.900000E-01   1.00800           0
     13976 MEMB     98       DOPC     H18S     HAL3     0.900000E-01   1.00800           0
     13977 MEMB     98       DOPC     H18T     HAL3     0.900000E-01   1.00800           0
     13978 MEMB     98       DOPC     C33      CTL2    -0.180000       12.0110           0
     13979 MEMB     98       DOPC     H3X      HAL2     0.900000E-01   1.00800           0
     13980 MEMB     98       DOPC     H3Y      HAL2     0.900000E-01   1.00800           0
     13981 MEMB     98       DOPC     C34      CTL2    -0.180000       12.0110           0
     13982 MEMB     98       DOPC     H4X      HAL2     0.900000E-01   1.00800           0
     13983 MEMB     98       DOPC     H4Y      HAL2     0.900000E-01   1.00800           0
     13984 MEMB     98       DOPC     C35      CTL2    -0.180000       12.0110           0
     13985 MEMB     98       DOPC     H5X      HAL2     0.900000E-01   1.00800           0
     13986 MEMB     98       DOPC     H5Y      HAL2     0.900000E-01   1.00800           0
     13987 MEMB     98       DOPC     C36      CTL2    -0.180000       12.0110           0
     13988 MEMB     98       DOPC     H6X      HAL2     0.900000E-01   1.00800           0
     13989 MEMB     98       DOPC     H6Y      HAL2     0.900000E-01   1.00800           0
     13990 MEMB     98       DOPC     C37      CTL2    -0.180000       12.0110           0
     13991 MEMB     98       DOPC     H7X      HAL2     0.900000E-01   1.00800           0
     13992 MEMB     98       DOPC     H7Y      HAL2     0.900000E-01   1.00800           0
     13993 MEMB     98       DOPC     C38      CTL2    -0.180000       12.0110           0
     13994 MEMB     98       DOPC     H8X      HAL2     0.900000E-01   1.00800           0
     13995 MEMB     98       DOPC     H8Y      HAL2     0.900000E-01   1.00800           0
     13996 MEMB     98       DOPC     C39      CEL1    -0.150000       12.0110           0
     13997 MEMB     98       DOPC     H9X      HEL1     0.150000       1.00800           0
     13998 MEMB     98       DOPC     C310     CEL1    -0.150000       12.0110           0
     13999 MEMB     98       DOPC     H10X     HEL1     0.150000       1.00800           0
     14000 MEMB     98       DOPC     C311     CTL2    -0.180000       12.0110           0
     14001 MEMB     98       DOPC     H11X     HAL2     0.900000E-01   1.00800           0
     14002 MEMB     98       DOPC     H11Y     HAL2     0.900000E-01   1.00800           0
     14003 MEMB     98       DOPC     C312     CTL2    -0.180000       12.0110           0
     14004 MEMB     98       DOPC     H12X     HAL2     0.900000E-01   1.00800           0
     14005 MEMB     98       DOPC     H12Y     HAL2     0.900000E-01   1.00800           0
     14006 MEMB     98       DOPC     C313     CTL2    -0.180000       12.0110           0
     14007 MEMB     98       DOPC     H13X     HAL2     0.900000E-01   1.00800           0
     14008 MEMB     98       DOPC     H13Y     HAL2     0.900000E-01   1.00800           0
     14009 MEMB     98       DOPC     C314     CTL2    -0.180000       12.0110           0
     14010 MEMB     98       DOPC     H14X     HAL2     0.900000E-01   1.00800           0
     14011 MEMB     98       DOPC     H14Y     HAL2     0.900000E-01   1.00800           0
     14012 MEMB     98       DOPC     C315     CTL2    -0.180000       12.0110           0
     14013 MEMB     98       DOPC     H15X     HAL2     0.900000E-01   1.00800           0
     14014 MEMB     98       DOPC     H15Y     HAL2     0.900000E-01   1.00800           0
     14015 MEMB     98       DOPC     C316     CTL2    -0.180000       12.0110           0
     14016 MEMB     98       DOPC     H16X     HAL2     0.900000E-01   1.00800           0
     14017 MEMB     98       DOPC     H16Y     HAL2     0.900000E-01   1.00800           0
     14018 MEMB     98       DOPC     C317     CTL2    -0.180000       12.0110           0
     14019 MEMB     98       DOPC     H17X     HAL2     0.900000E-01   1.00800           0
     14020 MEMB     98       DOPC     H17Y     HAL2     0.900000E-01   1.00800           0
     14021 MEMB     98       DOPC     C318     CTL3    -0.270000       12.0110           0
     14022 MEMB     98       DOPC     H18X     HAL3     0.900000E-01   1.00800           0
     14023 MEMB     98       DOPC     H18Y     HAL3     0.900000E-01   1.00800           0
     14024 MEMB     98       DOPC     H18Z     HAL3     0.900000E-01   1.00800           0
     14025 MEMB     99       DOPC     N        NTL     -0.600000       14.0070           0
     14026 MEMB     99       DOPC     C12      CTL2    -0.100000       12.0110           0
     14027 MEMB     99       DOPC     H12A     HL       0.250000       1.00800           0
     14028 MEMB     99       DOPC     H12B     HL       0.250000       1.00800           0
     14029 MEMB     99       DOPC     C13      CTL5    -0.350000       12.0110           0
     14030 MEMB     99       DOPC     H13A     HL       0.250000       1.00800           0
     14031 MEMB     99       DOPC     H13B     HL       0.250000       1.00800           0
     14032 MEMB     99       DOPC     H13C     HL       0.250000       1.00800           0
     14033 MEMB     99       DOPC     C14      CTL5    -0.350000       12.0110           0
     14034 MEMB     99       DOPC     H14A     HL       0.250000       1.00800           0
     14035 MEMB     99       DOPC     H14B     HL       0.250000       1.00800           0
     14036 MEMB     99       DOPC     H14C     HL       0.250000       1.00800           0
     14037 MEMB     99       DOPC     C15      CTL5    -0.350000       12.0110           0
     14038 MEMB     99       DOPC     H15A     HL       0.250000       1.00800           0
     14039 MEMB     99       DOPC     H15B     HL       0.250000       1.00800           0
     14040 MEMB     99       DOPC     H15C     HL       0.250000       1.00800           0
     14041 MEMB     99       DOPC     C11      CTL2    -0.800000E-01   12.0110           0
     14042 MEMB     99       DOPC     H11A     HAL2     0.900000E-01   1.00800           0
     14043 MEMB     99       DOPC     H11B     HAL2     0.900000E-01   1.00800           0
     14044 MEMB     99       DOPC     P        PL        1.50000       30.9740           0
     14045 MEMB     99       DOPC     O13      O2L     -0.780000       15.9994           0
     14046 MEMB     99       DOPC     O14      O2L     -0.780000       15.9994           0
     14047 MEMB     99       DOPC     O12      OSLP    -0.570000       15.9994           0
     14048 MEMB     99       DOPC     O11      OSLP    -0.570000       15.9994           0
     14049 MEMB     99       DOPC     C1       CTL2    -0.800000E-01   12.0110           0
     14050 MEMB     99       DOPC     HA       HAL2     0.900000E-01   1.00800           0
     14051 MEMB     99       DOPC     HB       HAL2     0.900000E-01   1.00800           0
     14052 MEMB     99       DOPC     C2       CTL1     0.170000       12.0110           0
     14053 MEMB     99       DOPC     HS       HAL1     0.900000E-01   1.00800           0
     14054 MEMB     99       DOPC     O21      OSL     -0.490000       15.9994           0
     14055 MEMB     99       DOPC     C21      CL       0.900000       12.0110           0
     14056 MEMB     99       DOPC     O22      OBL     -0.630000       15.9994           0
     14057 MEMB     99       DOPC     C22      CTL2    -0.220000       12.0110           0
     14058 MEMB     99       DOPC     H2R      HAL2     0.900000E-01   1.00800           0
     14059 MEMB     99       DOPC     H2S      HAL2     0.900000E-01   1.00800           0
     14060 MEMB     99       DOPC     C3       CTL2     0.800000E-01   12.0110           0
     14061 MEMB     99       DOPC     HX       HAL2     0.900000E-01   1.00800           0
     14062 MEMB     99       DOPC     HY       HAL2     0.900000E-01   1.00800           0
     14063 MEMB     99       DOPC     O31      OSL     -0.490000       15.9994           0
     14064 MEMB     99       DOPC     C31      CL       0.900000       12.0110           0
     14065 MEMB     99       DOPC     O32      OBL     -0.630000       15.9994           0
     14066 MEMB     99       DOPC     C32      CTL2    -0.220000       12.0110           0
     14067 MEMB     99       DOPC     H2X      HAL2     0.900000E-01   1.00800           0
     14068 MEMB     99       DOPC     H2Y      HAL2     0.900000E-01   1.00800           0
     14069 MEMB     99       DOPC     C23      CTL2    -0.180000       12.0110           0
     14070 MEMB     99       DOPC     H3R      HAL2     0.900000E-01   1.00800           0
     14071 MEMB     99       DOPC     H3S      HAL2     0.900000E-01   1.00800           0
     14072 MEMB     99       DOPC     C24      CTL2    -0.180000       12.0110           0
     14073 MEMB     99       DOPC     H4R      HAL2     0.900000E-01   1.00800           0
     14074 MEMB     99       DOPC     H4S      HAL2     0.900000E-01   1.00800           0
     14075 MEMB     99       DOPC     C25      CTL2    -0.180000       12.0110           0
     14076 MEMB     99       DOPC     H5R      HAL2     0.900000E-01   1.00800           0
     14077 MEMB     99       DOPC     H5S      HAL2     0.900000E-01   1.00800           0
     14078 MEMB     99       DOPC     C26      CTL2    -0.180000       12.0110           0
     14079 MEMB     99       DOPC     H6R      HAL2     0.900000E-01   1.00800           0
     14080 MEMB     99       DOPC     H6S      HAL2     0.900000E-01   1.00800           0
     14081 MEMB     99       DOPC     C27      CTL2    -0.180000       12.0110           0
     14082 MEMB     99       DOPC     H7R      HAL2     0.900000E-01   1.00800           0
     14083 MEMB     99       DOPC     H7S      HAL2     0.900000E-01   1.00800           0
     14084 MEMB     99       DOPC     C28      CTL2    -0.180000       12.0110           0
     14085 MEMB     99       DOPC     H8R      HAL2     0.900000E-01   1.00800           0
     14086 MEMB     99       DOPC     H8S      HAL2     0.900000E-01   1.00800           0
     14087 MEMB     99       DOPC     C29      CEL1    -0.150000       12.0110           0
     14088 MEMB     99       DOPC     H9R      HEL1     0.150000       1.00800           0
     14089 MEMB     99       DOPC     C210     CEL1    -0.150000       12.0110           0
     14090 MEMB     99       DOPC     H10R     HEL1     0.150000       1.00800           0
     14091 MEMB     99       DOPC     C211     CTL2    -0.180000       12.0110           0
     14092 MEMB     99       DOPC     H11R     HAL2     0.900000E-01   1.00800           0
     14093 MEMB     99       DOPC     H11S     HAL2     0.900000E-01   1.00800           0
     14094 MEMB     99       DOPC     C212     CTL2    -0.180000       12.0110           0
     14095 MEMB     99       DOPC     H12R     HAL2     0.900000E-01   1.00800           0
     14096 MEMB     99       DOPC     H12S     HAL2     0.900000E-01   1.00800           0
     14097 MEMB     99       DOPC     C213     CTL2    -0.180000       12.0110           0
     14098 MEMB     99       DOPC     H13R     HAL2     0.900000E-01   1.00800           0
     14099 MEMB     99       DOPC     H13S     HAL2     0.900000E-01   1.00800           0
     14100 MEMB     99       DOPC     C214     CTL2    -0.180000       12.0110           0
     14101 MEMB     99       DOPC     H14R     HAL2     0.900000E-01   1.00800           0
     14102 MEMB     99       DOPC     H14S     HAL2     0.900000E-01   1.00800           0
     14103 MEMB     99       DOPC     C215     CTL2    -0.180000       12.0110           0
     14104 MEMB     99       DOPC     H15R     HAL2     0.900000E-01   1.00800           0
     14105 MEMB     99       DOPC     H15S     HAL2     0.900000E-01   1.00800           0
     14106 MEMB     99       DOPC     C216     CTL2    -0.180000       12.0110           0
     14107 MEMB     99       DOPC     H16R     HAL2     0.900000E-01   1.00800           0
     14108 MEMB     99       DOPC     H16S     HAL2     0.900000E-01   1.00800           0
     14109 MEMB     99       DOPC     C217     CTL2    -0.180000       12.0110           0
     14110 MEMB     99       DOPC     H17R     HAL2     0.900000E-01   1.00800           0
     14111 MEMB     99       DOPC     H17S     HAL2     0.900000E-01   1.00800           0
     14112 MEMB     99       DOPC     C218     CTL3    -0.270000       12.0110           0
     14113 MEMB     99       DOPC     H18R     HAL3     0.900000E-01   1.00800           0
     14114 MEMB     99       DOPC     H18S     HAL3     0.900000E-01   1.00800           0
     14115 MEMB     99       DOPC     H18T     HAL3     0.900000E-01   1.00800           0
     14116 MEMB     99       DOPC     C33      CTL2    -0.180000       12.0110           0
     14117 MEMB     99       DOPC     H3X      HAL2     0.900000E-01   1.00800           0
     14118 MEMB     99       DOPC     H3Y      HAL2     0.900000E-01   1.00800           0
     14119 MEMB     99       DOPC     C34      CTL2    -0.180000       12.0110           0
     14120 MEMB     99       DOPC     H4X      HAL2     0.900000E-01   1.00800           0
     14121 MEMB     99       DOPC     H4Y      HAL2     0.900000E-01   1.00800           0
     14122 MEMB     99       DOPC     C35      CTL2    -0.180000       12.0110           0
     14123 MEMB     99       DOPC     H5X      HAL2     0.900000E-01   1.00800           0
     14124 MEMB     99       DOPC     H5Y      HAL2     0.900000E-01   1.00800           0
     14125 MEMB     99       DOPC     C36      CTL2    -0.180000       12.0110           0
     14126 MEMB     99       DOPC     H6X      HAL2     0.900000E-01   1.00800           0
     14127 MEMB     99       DOPC     H6Y      HAL2     0.900000E-01   1.00800           0
     14128 MEMB     99       DOPC     C37      CTL2    -0.180000       12.0110           0
     14129 MEMB     99       DOPC     H7X      HAL2     0.900000E-01   1.00800           0
     14130 MEMB     99       DOPC     H7Y      HAL2     0.900000E-01   1.00800           0
     14131 MEMB     99       DOPC     C38      CTL2    -0.180000       12.0110           0
     14132 MEMB     99       DOPC     H8X      HAL2     0.900000E-01   1.00800           0
     14133 MEMB     99       DOPC     H8Y      HAL2     0.900000E-01   1.00800           0
     14134 MEMB     99       DOPC     C39      CEL1    -0.150000       12.0110           0
     14135 MEMB     99       DOPC     H9X      HEL1     0.150000       1.00800           0
     14136 MEMB     99       DOPC     C310     CEL1    -0.150000       12.0110           0
     14137 MEMB     99       DOPC     H10X     HEL1     0.150000       1.00800           0
     14138 MEMB     99       DOPC     C311     CTL2    -0.180000       12.0110           0
     14139 MEMB     99       DOPC     H11X     HAL2     0.900000E-01   1.00800           0
     14140 MEMB     99       DOPC     H11Y     HAL2     0.900000E-01   1.00800           0
     14141 MEMB     99       DOPC     C312     CTL2    -0.180000       12.0110           0
     14142 MEMB     99       DOPC     H12X     HAL2     0.900000E-01   1.00800           0
     14143 MEMB     99       DOPC     H12Y     HAL2     0.900000E-01   1.00800           0
     14144 MEMB     99       DOPC     C313     CTL2    -0.180000       12.0110           0
     14145 MEMB     99       DOPC     H13X     HAL2     0.900000E-01   1.00800           0
     14146 MEMB     99       DOPC     H13Y     HAL2     0.900000E-01   1.00800           0
     14147 MEMB     99       DOPC     C314     CTL2    -0.180000       12.0110           0
     14148 MEMB     99       DOPC     H14X     HAL2     0.900000E-01   1.00800           0
     14149 MEMB     99       DOPC     H14Y     HAL2     0.900000E-01   1.00800           0
     14150 MEMB     99       DOPC     C315     CTL2    -0.180000       12.0110           0
     14151 MEMB     99       DOPC     H15X     HAL2     0.900000E-01   1.00800           0
     14152 MEMB     99       DOPC     H15Y     HAL2     0.900000E-01   1.00800           0
     14153 MEMB     99       DOPC     C316     CTL2    -0.180000       12.0110           0
     14154 MEMB     99       DOPC     H16X     HAL2     0.900000E-01   1.00800           0
     14155 MEMB     99       DOPC     H16Y     HAL2     0.900000E-01   1.00800           0
     14156 MEMB     99       DOPC     C317     CTL2    -0.180000       12.0110           0
     14157 MEMB     99       DOPC     H17X     HAL2     0.900000E-01   1.00800           0
     14158 MEMB     99       DOPC     H17Y     HAL2     0.900000E-01   1.00800           0
     14159 MEMB     99       DOPC     C318     CTL3    -0.270000       12.0110           0
     14160 MEMB     99       DOPC     H18X     HAL3     0.900000E-01   1.00800           0
     14161 MEMB     99       DOPC     H18Y     HAL3     0.900000E-01   1.00800           0
     14162 MEMB     99       DOPC     H18Z     HAL3     0.900000E-01   1.00800           0
     14163 MEMB     100      DOPC     N        NTL     -0.600000       14.0070           0
     14164 MEMB     100      DOPC     C12      CTL2    -0.100000       12.0110           0
     14165 MEMB     100      DOPC     H12A     HL       0.250000       1.00800           0
     14166 MEMB     100      DOPC     H12B     HL       0.250000       1.00800           0
     14167 MEMB     100      DOPC     C13      CTL5    -0.350000       12.0110           0
     14168 MEMB     100      DOPC     H13A     HL       0.250000       1.00800           0
     14169 MEMB     100      DOPC     H13B     HL       0.250000       1.00800           0
     14170 MEMB     100      DOPC     H13C     HL       0.250000       1.00800           0
     14171 MEMB     100      DOPC     C14      CTL5    -0.350000       12.0110           0
     14172 MEMB     100      DOPC     H14A     HL       0.250000       1.00800           0
     14173 MEMB     100      DOPC     H14B     HL       0.250000       1.00800           0
     14174 MEMB     100      DOPC     H14C     HL       0.250000       1.00800           0
     14175 MEMB     100      DOPC     C15      CTL5    -0.350000       12.0110           0
     14176 MEMB     100      DOPC     H15A     HL       0.250000       1.00800           0
     14177 MEMB     100      DOPC     H15B     HL       0.250000       1.00800           0
     14178 MEMB     100      DOPC     H15C     HL       0.250000       1.00800           0
     14179 MEMB     100      DOPC     C11      CTL2    -0.800000E-01   12.0110           0
     14180 MEMB     100      DOPC     H11A     HAL2     0.900000E-01   1.00800           0
     14181 MEMB     100      DOPC     H11B     HAL2     0.900000E-01   1.00800           0
     14182 MEMB     100      DOPC     P        PL        1.50000       30.9740           0
     14183 MEMB     100      DOPC     O13      O2L     -0.780000       15.9994           0
     14184 MEMB     100      DOPC     O14      O2L     -0.780000       15.9994           0
     14185 MEMB     100      DOPC     O12      OSLP    -0.570000       15.9994           0
     14186 MEMB     100      DOPC     O11      OSLP    -0.570000       15.9994           0
     14187 MEMB     100      DOPC     C1       CTL2    -0.800000E-01   12.0110           0
     14188 MEMB     100      DOPC     HA       HAL2     0.900000E-01   1.00800           0
     14189 MEMB     100      DOPC     HB       HAL2     0.900000E-01   1.00800           0
     14190 MEMB     100      DOPC     C2       CTL1     0.170000       12.0110           0
     14191 MEMB     100      DOPC     HS       HAL1     0.900000E-01   1.00800           0
     14192 MEMB     100      DOPC     O21      OSL     -0.490000       15.9994           0
     14193 MEMB     100      DOPC     C21      CL       0.900000       12.0110           0
     14194 MEMB     100      DOPC     O22      OBL     -0.630000       15.9994           0
     14195 MEMB     100      DOPC     C22      CTL2    -0.220000       12.0110           0
     14196 MEMB     100      DOPC     H2R      HAL2     0.900000E-01   1.00800           0
     14197 MEMB     100      DOPC     H2S      HAL2     0.900000E-01   1.00800           0
     14198 MEMB     100      DOPC     C3       CTL2     0.800000E-01   12.0110           0
     14199 MEMB     100      DOPC     HX       HAL2     0.900000E-01   1.00800           0
     14200 MEMB     100      DOPC     HY       HAL2     0.900000E-01   1.00800           0
     14201 MEMB     100      DOPC     O31      OSL     -0.490000       15.9994           0
     14202 MEMB     100      DOPC     C31      CL       0.900000       12.0110           0
     14203 MEMB     100      DOPC     O32      OBL     -0.630000       15.9994           0
     14204 MEMB     100      DOPC     C32      CTL2    -0.220000       12.0110           0
     14205 MEMB     100      DOPC     H2X      HAL2     0.900000E-01   1.00800           0
     14206 MEMB     100      DOPC     H2Y      HAL2     0.900000E-01   1.00800           0
     14207 MEMB     100      DOPC     C23      CTL2    -0.180000       12.0110           0
     14208 MEMB     100      DOPC     H3R      HAL2     0.900000E-01   1.00800           0
     14209 MEMB     100      DOPC     H3S      HAL2     0.900000E-01   1.00800           0
     14210 MEMB     100      DOPC     C24      CTL2    -0.180000       12.0110           0
     14211 MEMB     100      DOPC     H4R      HAL2     0.900000E-01   1.00800           0
     14212 MEMB     100      DOPC     H4S      HAL2     0.900000E-01   1.00800           0
     14213 MEMB     100      DOPC     C25      CTL2    -0.180000       12.0110           0
     14214 MEMB     100      DOPC     H5R      HAL2     0.900000E-01   1.00800           0
     14215 MEMB     100      DOPC     H5S      HAL2     0.900000E-01   1.00800           0
     14216 MEMB     100      DOPC     C26      CTL2    -0.180000       12.0110           0
     14217 MEMB     100      DOPC     H6R      HAL2     0.900000E-01   1.00800           0
     14218 MEMB     100      DOPC     H6S      HAL2     0.900000E-01   1.00800           0
     14219 MEMB     100      DOPC     C27      CTL2    -0.180000       12.0110           0
     14220 MEMB     100      DOPC     H7R      HAL2     0.900000E-01   1.00800           0
     14221 MEMB     100      DOPC     H7S      HAL2     0.900000E-01   1.00800           0
     14222 MEMB     100      DOPC     C28      CTL2    -0.180000       12.0110           0
     14223 MEMB     100      DOPC     H8R      HAL2     0.900000E-01   1.00800           0
     14224 MEMB     100      DOPC     H8S      HAL2     0.900000E-01   1.00800           0
     14225 MEMB     100      DOPC     C29      CEL1    -0.150000       12.0110           0
     14226 MEMB     100      DOPC     H9R      HEL1     0.150000       1.00800           0
     14227 MEMB     100      DOPC     C210     CEL1    -0.150000       12.0110           0
     14228 MEMB     100      DOPC     H10R     HEL1     0.150000       1.00800           0
     14229 MEMB     100      DOPC     C211     CTL2    -0.180000       12.0110           0
     14230 MEMB     100      DOPC     H11R     HAL2     0.900000E-01   1.00800           0
     14231 MEMB     100      DOPC     H11S     HAL2     0.900000E-01   1.00800           0
     14232 MEMB     100      DOPC     C212     CTL2    -0.180000       12.0110           0
     14233 MEMB     100      DOPC     H12R     HAL2     0.900000E-01   1.00800           0
     14234 MEMB     100      DOPC     H12S     HAL2     0.900000E-01   1.00800           0
     14235 MEMB     100      DOPC     C213     CTL2    -0.180000       12.0110           0
     14236 MEMB     100      DOPC     H13R     HAL2     0.900000E-01   1.00800           0
     14237 MEMB     100      DOPC     H13S     HAL2     0.900000E-01   1.00800           0
     14238 MEMB     100      DOPC     C214     CTL2    -0.180000       12.0110           0
     14239 MEMB     100      DOPC     H14R     HAL2     0.900000E-01   1.00800           0
     14240 MEMB     100      DOPC     H14S     HAL2     0.900000E-01   1.00800           0
     14241 MEMB     100      DOPC     C215     CTL2    -0.180000       12.0110           0
     14242 MEMB     100      DOPC     H15R     HAL2     0.900000E-01   1.00800           0
     14243 MEMB     100      DOPC     H15S     HAL2     0.900000E-01   1.00800           0
     14244 MEMB     100      DOPC     C216     CTL2    -0.180000       12.0110           0
     14245 MEMB     100      DOPC     H16R     HAL2     0.900000E-01   1.00800           0
     14246 MEMB     100      DOPC     H16S     HAL2     0.900000E-01   1.00800           0
     14247 MEMB     100      DOPC     C217     CTL2    -0.180000       12.0110           0
     14248 MEMB     100      DOPC     H17R     HAL2     0.900000E-01   1.00800           0
     14249 MEMB     100      DOPC     H17S     HAL2     0.900000E-01   1.00800           0
     14250 MEMB     100      DOPC     C218     CTL3    -0.270000       12.0110           0
     14251 MEMB     100      DOPC     H18R     HAL3     0.900000E-01   1.00800           0
     14252 MEMB     100      DOPC     H18S     HAL3     0.900000E-01   1.00800           0
     14253 MEMB     100      DOPC     H18T     HAL3     0.900000E-01   1.00800           0
     14254 MEMB     100      DOPC     C33      CTL2    -0.180000       12.0110           0
     14255 MEMB     100      DOPC     H3X      HAL2     0.900000E-01   1.00800           0
     14256 MEMB     100      DOPC     H3Y      HAL2     0.900000E-01   1.00800           0
     14257 MEMB     100      DOPC     C34      CTL2    -0.180000       12.0110           0
     14258 MEMB     100      DOPC     H4X      HAL2     0.900000E-01   1.00800           0
     14259 MEMB     100      DOPC     H4Y      HAL2     0.900000E-01   1.00800           0
     14260 MEMB     100      DOPC     C35      CTL2    -0.180000       12.0110           0
     14261 MEMB     100      DOPC     H5X      HAL2     0.900000E-01   1.00800           0
     14262 MEMB     100      DOPC     H5Y      HAL2     0.900000E-01   1.00800           0
     14263 MEMB     100      DOPC     C36      CTL2    -0.180000       12.0110           0
     14264 MEMB     100      DOPC     H6X      HAL2     0.900000E-01   1.00800           0
     14265 MEMB     100      DOPC     H6Y      HAL2     0.900000E-01   1.00800           0
     14266 MEMB     100      DOPC     C37      CTL2    -0.180000       12.0110           0
     14267 MEMB     100      DOPC     H7X      HAL2     0.900000E-01   1.00800           0
     14268 MEMB     100      DOPC     H7Y      HAL2     0.900000E-01   1.00800           0
     14269 MEMB     100      DOPC     C38      CTL2    -0.180000       12.0110           0
     14270 MEMB     100      DOPC     H8X      HAL2     0.900000E-01   1.00800           0
     14271 MEMB     100      DOPC     H8Y      HAL2     0.900000E-01   1.00800           0
     14272 MEMB     100      DOPC     C39      CEL1    -0.150000       12.0110           0
     14273 MEMB     100      DOPC     H9X      HEL1     0.150000       1.00800           0
     14274 MEMB     100      DOPC     C310     CEL1    -0.150000       12.0110           0
     14275 MEMB     100      DOPC     H10X     HEL1     0.150000       1.00800           0
     14276 MEMB     100      DOPC     C311     CTL2    -0.180000       12.0110           0
     14277 MEMB     100      DOPC     H11X     HAL2     0.900000E-01   1.00800           0
     14278 MEMB     100      DOPC     H11Y     HAL2     0.900000E-01   1.00800           0
     14279 MEMB     100      DOPC     C312     CTL2    -0.180000       12.0110           0
     14280 MEMB     100      DOPC     H12X     HAL2     0.900000E-01   1.00800           0
     14281 MEMB     100      DOPC     H12Y     HAL2     0.900000E-01   1.00800           0
     14282 MEMB     100      DOPC     C313     CTL2    -0.180000       12.0110           0
     14283 MEMB     100      DOPC     H13X     HAL2     0.900000E-01   1.00800           0
     14284 MEMB     100      DOPC     H13Y     HAL2     0.900000E-01   1.00800           0
     14285 MEMB     100      DOPC     C314     CTL2    -0.180000       12.0110           0
     14286 MEMB     100      DOPC     H14X     HAL2     0.900000E-01   1.00800           0
     14287 MEMB     100      DOPC     H14Y     HAL2     0.900000E-01   1.00800           0
     14288 MEMB     100      DOPC     C315     CTL2    -0.180000       12.0110           0
     14289 MEMB     100      DOPC     H15X     HAL2     0.900000E-01   1.00800           0
     14290 MEMB     100      DOPC     H15Y     HAL2     0.900000E-01   1.00800           0
     14291 MEMB     100      DOPC     C316     CTL2    -0.180000       12.0110           0
     14292 MEMB     100      DOPC     H16X     HAL2     0.900000E-01   1.00800           0
     14293 MEMB     100      DOPC     H16Y     HAL2     0.900000E-01   1.00800           0
     14294 MEMB     100      DOPC     C317     CTL2    -0.180000       12.0110           0
     14295 MEMB     100      DOPC     H17X     HAL2     0.900000E-01   1.00800           0
     14296 MEMB     100      DOPC     H17Y     HAL2     0.900000E-01   1.00800           0
     14297 MEMB     100      DOPC     C318     CTL3    -0.270000       12.0110           0
     14298 MEMB     100      DOPC     H18X     HAL3     0.900000E-01   1.00800           0
     14299 MEMB     100      DOPC     H18Y     HAL3     0.900000E-01   1.00800           0
     14300 MEMB     100      DOPC     H18Z     HAL3     0.900000E-01   1.00800           0
     14301 MEMB     101      DOPC     N        NTL     -0.600000       14.0070           0
     14302 MEMB     101      DOPC     C12      CTL2    -0.100000       12.0110           0
     14303 MEMB     101      DOPC     H12A     HL       0.250000       1.00800           0
     14304 MEMB     101      DOPC     H12B     HL       0.250000       1.00800           0
     14305 MEMB     101      DOPC     C13      CTL5    -0.350000       12.0110           0
     14306 MEMB     101      DOPC     H13A     HL       0.250000       1.00800           0
     14307 MEMB     101      DOPC     H13B     HL       0.250000       1.00800           0
     14308 MEMB     101      DOPC     H13C     HL       0.250000       1.00800           0
     14309 MEMB     101      DOPC     C14      CTL5    -0.350000       12.0110           0
     14310 MEMB     101      DOPC     H14A     HL       0.250000       1.00800           0
     14311 MEMB     101      DOPC     H14B     HL       0.250000       1.00800           0
     14312 MEMB     101      DOPC     H14C     HL       0.250000       1.00800           0
     14313 MEMB     101      DOPC     C15      CTL5    -0.350000       12.0110           0
     14314 MEMB     101      DOPC     H15A     HL       0.250000       1.00800           0
     14315 MEMB     101      DOPC     H15B     HL       0.250000       1.00800           0
     14316 MEMB     101      DOPC     H15C     HL       0.250000       1.00800           0
     14317 MEMB     101      DOPC     C11      CTL2    -0.800000E-01   12.0110           0
     14318 MEMB     101      DOPC     H11A     HAL2     0.900000E-01   1.00800           0
     14319 MEMB     101      DOPC     H11B     HAL2     0.900000E-01   1.00800           0
     14320 MEMB     101      DOPC     P        PL        1.50000       30.9740           0
     14321 MEMB     101      DOPC     O13      O2L     -0.780000       15.9994           0
     14322 MEMB     101      DOPC     O14      O2L     -0.780000       15.9994           0
     14323 MEMB     101      DOPC     O12      OSLP    -0.570000       15.9994           0
     14324 MEMB     101      DOPC     O11      OSLP    -0.570000       15.9994           0
     14325 MEMB     101      DOPC     C1       CTL2    -0.800000E-01   12.0110           0
     14326 MEMB     101      DOPC     HA       HAL2     0.900000E-01   1.00800           0
     14327 MEMB     101      DOPC     HB       HAL2     0.900000E-01   1.00800           0
     14328 MEMB     101      DOPC     C2       CTL1     0.170000       12.0110           0
     14329 MEMB     101      DOPC     HS       HAL1     0.900000E-01   1.00800           0
     14330 MEMB     101      DOPC     O21      OSL     -0.490000       15.9994           0
     14331 MEMB     101      DOPC     C21      CL       0.900000       12.0110           0
     14332 MEMB     101      DOPC     O22      OBL     -0.630000       15.9994           0
     14333 MEMB     101      DOPC     C22      CTL2    -0.220000       12.0110           0
     14334 MEMB     101      DOPC     H2R      HAL2     0.900000E-01   1.00800           0
     14335 MEMB     101      DOPC     H2S      HAL2     0.900000E-01   1.00800           0
     14336 MEMB     101      DOPC     C3       CTL2     0.800000E-01   12.0110           0
     14337 MEMB     101      DOPC     HX       HAL2     0.900000E-01   1.00800           0
     14338 MEMB     101      DOPC     HY       HAL2     0.900000E-01   1.00800           0
     14339 MEMB     101      DOPC     O31      OSL     -0.490000       15.9994           0
     14340 MEMB     101      DOPC     C31      CL       0.900000       12.0110           0
     14341 MEMB     101      DOPC     O32      OBL     -0.630000       15.9994           0
     14342 MEMB     101      DOPC     C32      CTL2    -0.220000       12.0110           0
     14343 MEMB     101      DOPC     H2X      HAL2     0.900000E-01   1.00800           0
     14344 MEMB     101      DOPC     H2Y      HAL2     0.900000E-01   1.00800           0
     14345 MEMB     101      DOPC     C23      CTL2    -0.180000       12.0110           0
     14346 MEMB     101      DOPC     H3R      HAL2     0.900000E-01   1.00800           0
     14347 MEMB     101      DOPC     H3S      HAL2     0.900000E-01   1.00800           0
     14348 MEMB     101      DOPC     C24      CTL2    -0.180000       12.0110           0
     14349 MEMB     101      DOPC     H4R      HAL2     0.900000E-01   1.00800           0
     14350 MEMB     101      DOPC     H4S      HAL2     0.900000E-01   1.00800           0
     14351 MEMB     101      DOPC     C25      CTL2    -0.180000       12.0110           0
     14352 MEMB     101      DOPC     H5R      HAL2     0.900000E-01   1.00800           0
     14353 MEMB     101      DOPC     H5S      HAL2     0.900000E-01   1.00800           0
     14354 MEMB     101      DOPC     C26      CTL2    -0.180000       12.0110           0
     14355 MEMB     101      DOPC     H6R      HAL2     0.900000E-01   1.00800           0
     14356 MEMB     101      DOPC     H6S      HAL2     0.900000E-01   1.00800           0
     14357 MEMB     101      DOPC     C27      CTL2    -0.180000       12.0110           0
     14358 MEMB     101      DOPC     H7R      HAL2     0.900000E-01   1.00800           0
     14359 MEMB     101      DOPC     H7S      HAL2     0.900000E-01   1.00800           0
     14360 MEMB     101      DOPC     C28      CTL2    -0.180000       12.0110           0
     14361 MEMB     101      DOPC     H8R      HAL2     0.900000E-01   1.00800           0
     14362 MEMB     101      DOPC     H8S      HAL2     0.900000E-01   1.00800           0
     14363 MEMB     101      DOPC     C29      CEL1    -0.150000       12.0110           0
     14364 MEMB     101      DOPC     H9R      HEL1     0.150000       1.00800           0
     14365 MEMB     101      DOPC     C210     CEL1    -0.150000       12.0110           0
     14366 MEMB     101      DOPC     H10R     HEL1     0.150000       1.00800           0
     14367 MEMB     101      DOPC     C211     CTL2    -0.180000       12.0110           0
     14368 MEMB     101      DOPC     H11R     HAL2     0.900000E-01   1.00800           0
     14369 MEMB     101      DOPC     H11S     HAL2     0.900000E-01   1.00800           0
     14370 MEMB     101      DOPC     C212     CTL2    -0.180000       12.0110           0
     14371 MEMB     101      DOPC     H12R     HAL2     0.900000E-01   1.00800           0
     14372 MEMB     101      DOPC     H12S     HAL2     0.900000E-01   1.00800           0
     14373 MEMB     101      DOPC     C213     CTL2    -0.180000       12.0110           0
     14374 MEMB     101      DOPC     H13R     HAL2     0.900000E-01   1.00800           0
     14375 MEMB     101      DOPC     H13S     HAL2     0.900000E-01   1.00800           0
     14376 MEMB     101      DOPC     C214     CTL2    -0.180000       12.0110           0
     14377 MEMB     101      DOPC     H14R     HAL2     0.900000E-01   1.00800           0
     14378 MEMB     101      DOPC     H14S     HAL2     0.900000E-01   1.00800           0
     14379 MEMB     101      DOPC     C215     CTL2    -0.180000       12.0110           0
     14380 MEMB     101      DOPC     H15R     HAL2     0.900000E-01   1.00800           0
     14381 MEMB     101      DOPC     H15S     HAL2     0.900000E-01   1.00800           0
     14382 MEMB     101      DOPC     C216     CTL2    -0.180000       12.0110           0
     14383 MEMB     101      DOPC     H16R     HAL2     0.900000E-01   1.00800           0
     14384 MEMB     101      DOPC     H16S     HAL2     0.900000E-01   1.00800           0
     14385 MEMB     101      DOPC     C217     CTL2    -0.180000       12.0110           0
     14386 MEMB     101      DOPC     H17R     HAL2     0.900000E-01   1.00800           0
     14387 MEMB     101      DOPC     H17S     HAL2     0.900000E-01   1.00800           0
     14388 MEMB     101      DOPC     C218     CTL3    -0.270000       12.0110           0
     14389 MEMB     101      DOPC     H18R     HAL3     0.900000E-01   1.00800           0
     14390 MEMB     101      DOPC     H18S     HAL3     0.900000E-01   1.00800           0
     14391 MEMB     101      DOPC     H18T     HAL3     0.900000E-01   1.00800           0
     14392 MEMB     101      DOPC     C33      CTL2    -0.180000       12.0110           0
     14393 MEMB     101      DOPC     H3X      HAL2     0.900000E-01   1.00800           0
     14394 MEMB     101      DOPC     H3Y      HAL2     0.900000E-01   1.00800           0
     14395 MEMB     101      DOPC     C34      CTL2    -0.180000       12.0110           0
     14396 MEMB     101      DOPC     H4X      HAL2     0.900000E-01   1.00800           0
     14397 MEMB     101      DOPC     H4Y      HAL2     0.900000E-01   1.00800           0
     14398 MEMB     101      DOPC     C35      CTL2    -0.180000       12.0110           0
     14399 MEMB     101      DOPC     H5X      HAL2     0.900000E-01   1.00800           0
     14400 MEMB     101      DOPC     H5Y      HAL2     0.900000E-01   1.00800           0
     14401 MEMB     101      DOPC     C36      CTL2    -0.180000       12.0110           0
     14402 MEMB     101      DOPC     H6X      HAL2     0.900000E-01   1.00800           0
     14403 MEMB     101      DOPC     H6Y      HAL2     0.900000E-01   1.00800           0
     14404 MEMB     101      DOPC     C37      CTL2    -0.180000       12.0110           0
     14405 MEMB     101      DOPC     H7X      HAL2     0.900000E-01   1.00800           0
     14406 MEMB     101      DOPC     H7Y      HAL2     0.900000E-01   1.00800           0
     14407 MEMB     101      DOPC     C38      CTL2    -0.180000       12.0110           0
     14408 MEMB     101      DOPC     H8X      HAL2     0.900000E-01   1.00800           0
     14409 MEMB     101      DOPC     H8Y      HAL2     0.900000E-01   1.00800           0
     14410 MEMB     101      DOPC     C39      CEL1    -0.150000       12.0110           0
     14411 MEMB     101      DOPC     H9X      HEL1     0.150000       1.00800           0
     14412 MEMB     101      DOPC     C310     CEL1    -0.150000       12.0110           0
     14413 MEMB     101      DOPC     H10X     HEL1     0.150000       1.00800           0
     14414 MEMB     101      DOPC     C311     CTL2    -0.180000       12.0110           0
     14415 MEMB     101      DOPC     H11X     HAL2     0.900000E-01   1.00800           0
     14416 MEMB     101      DOPC     H11Y     HAL2     0.900000E-01   1.00800           0
     14417 MEMB     101      DOPC     C312     CTL2    -0.180000       12.0110           0
     14418 MEMB     101      DOPC     H12X     HAL2     0.900000E-01   1.00800           0
     14419 MEMB     101      DOPC     H12Y     HAL2     0.900000E-01   1.00800           0
     14420 MEMB     101      DOPC     C313     CTL2    -0.180000       12.0110           0
     14421 MEMB     101      DOPC     H13X     HAL2     0.900000E-01   1.00800           0
     14422 MEMB     101      DOPC     H13Y     HAL2     0.900000E-01   1.00800           0
     14423 MEMB     101      DOPC     C314     CTL2    -0.180000       12.0110           0
     14424 MEMB     101      DOPC     H14X     HAL2     0.900000E-01   1.00800           0
     14425 MEMB     101      DOPC     H14Y     HAL2     0.900000E-01   1.00800           0
     14426 MEMB     101      DOPC     C315     CTL2    -0.180000       12.0110           0
     14427 MEMB     101      DOPC     H15X     HAL2     0.900000E-01   1.00800           0
     14428 MEMB     101      DOPC     H15Y     HAL2     0.900000E-01   1.00800           0
     14429 MEMB     101      DOPC     C316     CTL2    -0.180000       12.0110           0
     14430 MEMB     101      DOPC     H16X     HAL2     0.900000E-01   1.00800           0
     14431 MEMB     101      DOPC     H16Y     HAL2     0.900000E-01   1.00800           0
     14432 MEMB     101      DOPC     C317     CTL2    -0.180000       12.0110           0
     14433 MEMB     101      DOPC     H17X     HAL2     0.900000E-01   1.00800           0
     14434 MEMB     101      DOPC     H17Y     HAL2     0.900000E-01   1.00800           0
     14435 MEMB     101      DOPC     C318     CTL3    -0.270000       12.0110           0
     14436 MEMB     101      DOPC     H18X     HAL3     0.900000E-01   1.00800           0
     14437 MEMB     101      DOPC     H18Y     HAL3     0.900000E-01   1.00800           0
     14438 MEMB     101      DOPC     H18Z     HAL3     0.900000E-01   1.00800           0
     14439 MEMB     102      DOPC     N        NTL     -0.600000       14.0070           0
     14440 MEMB     102      DOPC     C12      CTL2    -0.100000       12.0110           0
     14441 MEMB     102      DOPC     H12A     HL       0.250000       1.00800           0
     14442 MEMB     102      DOPC     H12B     HL       0.250000       1.00800           0
     14443 MEMB     102      DOPC     C13      CTL5    -0.350000       12.0110           0
     14444 MEMB     102      DOPC     H13A     HL       0.250000       1.00800           0
     14445 MEMB     102      DOPC     H13B     HL       0.250000       1.00800           0
     14446 MEMB     102      DOPC     H13C     HL       0.250000       1.00800           0
     14447 MEMB     102      DOPC     C14      CTL5    -0.350000       12.0110           0
     14448 MEMB     102      DOPC     H14A     HL       0.250000       1.00800           0
     14449 MEMB     102      DOPC     H14B     HL       0.250000       1.00800           0
     14450 MEMB     102      DOPC     H14C     HL       0.250000       1.00800           0
     14451 MEMB     102      DOPC     C15      CTL5    -0.350000       12.0110           0
     14452 MEMB     102      DOPC     H15A     HL       0.250000       1.00800           0
     14453 MEMB     102      DOPC     H15B     HL       0.250000       1.00800           0
     14454 MEMB     102      DOPC     H15C     HL       0.250000       1.00800           0
     14455 MEMB     102      DOPC     C11      CTL2    -0.800000E-01   12.0110           0
     14456 MEMB     102      DOPC     H11A     HAL2     0.900000E-01   1.00800           0
     14457 MEMB     102      DOPC     H11B     HAL2     0.900000E-01   1.00800           0
     14458 MEMB     102      DOPC     P        PL        1.50000       30.9740           0
     14459 MEMB     102      DOPC     O13      O2L     -0.780000       15.9994           0
     14460 MEMB     102      DOPC     O14      O2L     -0.780000       15.9994           0
     14461 MEMB     102      DOPC     O12      OSLP    -0.570000       15.9994           0
     14462 MEMB     102      DOPC     O11      OSLP    -0.570000       15.9994           0
     14463 MEMB     102      DOPC     C1       CTL2    -0.800000E-01   12.0110           0
     14464 MEMB     102      DOPC     HA       HAL2     0.900000E-01   1.00800           0
     14465 MEMB     102      DOPC     HB       HAL2     0.900000E-01   1.00800           0
     14466 MEMB     102      DOPC     C2       CTL1     0.170000       12.0110           0
     14467 MEMB     102      DOPC     HS       HAL1     0.900000E-01   1.00800           0
     14468 MEMB     102      DOPC     O21      OSL     -0.490000       15.9994           0
     14469 MEMB     102      DOPC     C21      CL       0.900000       12.0110           0
     14470 MEMB     102      DOPC     O22      OBL     -0.630000       15.9994           0
     14471 MEMB     102      DOPC     C22      CTL2    -0.220000       12.0110           0
     14472 MEMB     102      DOPC     H2R      HAL2     0.900000E-01   1.00800           0
     14473 MEMB     102      DOPC     H2S      HAL2     0.900000E-01   1.00800           0
     14474 MEMB     102      DOPC     C3       CTL2     0.800000E-01   12.0110           0
     14475 MEMB     102      DOPC     HX       HAL2     0.900000E-01   1.00800           0
     14476 MEMB     102      DOPC     HY       HAL2     0.900000E-01   1.00800           0
     14477 MEMB     102      DOPC     O31      OSL     -0.490000       15.9994           0
     14478 MEMB     102      DOPC     C31      CL       0.900000       12.0110           0
     14479 MEMB     102      DOPC     O32      OBL     -0.630000       15.9994           0
     14480 MEMB     102      DOPC     C32      CTL2    -0.220000       12.0110           0
     14481 MEMB     102      DOPC     H2X      HAL2     0.900000E-01   1.00800           0
     14482 MEMB     102      DOPC     H2Y      HAL2     0.900000E-01   1.00800           0
     14483 MEMB     102      DOPC     C23      CTL2    -0.180000       12.0110           0
     14484 MEMB     102      DOPC     H3R      HAL2     0.900000E-01   1.00800           0
     14485 MEMB     102      DOPC     H3S      HAL2     0.900000E-01   1.00800           0
     14486 MEMB     102      DOPC     C24      CTL2    -0.180000       12.0110           0
     14487 MEMB     102      DOPC     H4R      HAL2     0.900000E-01   1.00800           0
     14488 MEMB     102      DOPC     H4S      HAL2     0.900000E-01   1.00800           0
     14489 MEMB     102      DOPC     C25      CTL2    -0.180000       12.0110           0
     14490 MEMB     102      DOPC     H5R      HAL2     0.900000E-01   1.00800           0
     14491 MEMB     102      DOPC     H5S      HAL2     0.900000E-01   1.00800           0
     14492 MEMB     102      DOPC     C26      CTL2    -0.180000       12.0110           0
     14493 MEMB     102      DOPC     H6R      HAL2     0.900000E-01   1.00800           0
     14494 MEMB     102      DOPC     H6S      HAL2     0.900000E-01   1.00800           0
     14495 MEMB     102      DOPC     C27      CTL2    -0.180000       12.0110           0
     14496 MEMB     102      DOPC     H7R      HAL2     0.900000E-01   1.00800           0
     14497 MEMB     102      DOPC     H7S      HAL2     0.900000E-01   1.00800           0
     14498 MEMB     102      DOPC     C28      CTL2    -0.180000       12.0110           0
     14499 MEMB     102      DOPC     H8R      HAL2     0.900000E-01   1.00800           0
     14500 MEMB     102      DOPC     H8S      HAL2     0.900000E-01   1.00800           0
     14501 MEMB     102      DOPC     C29      CEL1    -0.150000       12.0110           0
     14502 MEMB     102      DOPC     H9R      HEL1     0.150000       1.00800           0
     14503 MEMB     102      DOPC     C210     CEL1    -0.150000       12.0110           0
     14504 MEMB     102      DOPC     H10R     HEL1     0.150000       1.00800           0
     14505 MEMB     102      DOPC     C211     CTL2    -0.180000       12.0110           0
     14506 MEMB     102      DOPC     H11R     HAL2     0.900000E-01   1.00800           0
     14507 MEMB     102      DOPC     H11S     HAL2     0.900000E-01   1.00800           0
     14508 MEMB     102      DOPC     C212     CTL2    -0.180000       12.0110           0
     14509 MEMB     102      DOPC     H12R     HAL2     0.900000E-01   1.00800           0
     14510 MEMB     102      DOPC     H12S     HAL2     0.900000E-01   1.00800           0
     14511 MEMB     102      DOPC     C213     CTL2    -0.180000       12.0110           0
     14512 MEMB     102      DOPC     H13R     HAL2     0.900000E-01   1.00800           0
     14513 MEMB     102      DOPC     H13S     HAL2     0.900000E-01   1.00800           0
     14514 MEMB     102      DOPC     C214     CTL2    -0.180000       12.0110           0
     14515 MEMB     102      DOPC     H14R     HAL2     0.900000E-01   1.00800           0
     14516 MEMB     102      DOPC     H14S     HAL2     0.900000E-01   1.00800           0
     14517 MEMB     102      DOPC     C215     CTL2    -0.180000       12.0110           0
     14518 MEMB     102      DOPC     H15R     HAL2     0.900000E-01   1.00800           0
     14519 MEMB     102      DOPC     H15S     HAL2     0.900000E-01   1.00800           0
     14520 MEMB     102      DOPC     C216     CTL2    -0.180000       12.0110           0
     14521 MEMB     102      DOPC     H16R     HAL2     0.900000E-01   1.00800           0
     14522 MEMB     102      DOPC     H16S     HAL2     0.900000E-01   1.00800           0
     14523 MEMB     102      DOPC     C217     CTL2    -0.180000       12.0110           0
     14524 MEMB     102      DOPC     H17R     HAL2     0.900000E-01   1.00800           0
     14525 MEMB     102      DOPC     H17S     HAL2     0.900000E-01   1.00800           0
     14526 MEMB     102      DOPC     C218     CTL3    -0.270000       12.0110           0
     14527 MEMB     102      DOPC     H18R     HAL3     0.900000E-01   1.00800           0
     14528 MEMB     102      DOPC     H18S     HAL3     0.900000E-01   1.00800           0
     14529 MEMB     102      DOPC     H18T     HAL3     0.900000E-01   1.00800           0
     14530 MEMB     102      DOPC     C33      CTL2    -0.180000       12.0110           0
     14531 MEMB     102      DOPC     H3X      HAL2     0.900000E-01   1.00800           0
     14532 MEMB     102      DOPC     H3Y      HAL2     0.900000E-01   1.00800           0
     14533 MEMB     102      DOPC     C34      CTL2    -0.180000       12.0110           0
     14534 MEMB     102      DOPC     H4X      HAL2     0.900000E-01   1.00800           0
     14535 MEMB     102      DOPC     H4Y      HAL2     0.900000E-01   1.00800           0
     14536 MEMB     102      DOPC     C35      CTL2    -0.180000       12.0110           0
     14537 MEMB     102      DOPC     H5X      HAL2     0.900000E-01   1.00800           0
     14538 MEMB     102      DOPC     H5Y      HAL2     0.900000E-01   1.00800           0
     14539 MEMB     102      DOPC     C36      CTL2    -0.180000       12.0110           0
     14540 MEMB     102      DOPC     H6X      HAL2     0.900000E-01   1.00800           0
     14541 MEMB     102      DOPC     H6Y      HAL2     0.900000E-01   1.00800           0
     14542 MEMB     102      DOPC     C37      CTL2    -0.180000       12.0110           0
     14543 MEMB     102      DOPC     H7X      HAL2     0.900000E-01   1.00800           0
     14544 MEMB     102      DOPC     H7Y      HAL2     0.900000E-01   1.00800           0
     14545 MEMB     102      DOPC     C38      CTL2    -0.180000       12.0110           0
     14546 MEMB     102      DOPC     H8X      HAL2     0.900000E-01   1.00800           0
     14547 MEMB     102      DOPC     H8Y      HAL2     0.900000E-01   1.00800           0
     14548 MEMB     102      DOPC     C39      CEL1    -0.150000       12.0110           0
     14549 MEMB     102      DOPC     H9X      HEL1     0.150000       1.00800           0
     14550 MEMB     102      DOPC     C310     CEL1    -0.150000       12.0110           0
     14551 MEMB     102      DOPC     H10X     HEL1     0.150000       1.00800           0
     14552 MEMB     102      DOPC     C311     CTL2    -0.180000       12.0110           0
     14553 MEMB     102      DOPC     H11X     HAL2     0.900000E-01   1.00800           0
     14554 MEMB     102      DOPC     H11Y     HAL2     0.900000E-01   1.00800           0
     14555 MEMB     102      DOPC     C312     CTL2    -0.180000       12.0110           0
     14556 MEMB     102      DOPC     H12X     HAL2     0.900000E-01   1.00800           0
     14557 MEMB     102      DOPC     H12Y     HAL2     0.900000E-01   1.00800           0
     14558 MEMB     102      DOPC     C313     CTL2    -0.180000       12.0110           0
     14559 MEMB     102      DOPC     H13X     HAL2     0.900000E-01   1.00800           0
     14560 MEMB     102      DOPC     H13Y     HAL2     0.900000E-01   1.00800           0
     14561 MEMB     102      DOPC     C314     CTL2    -0.180000       12.0110           0
     14562 MEMB     102      DOPC     H14X     HAL2     0.900000E-01   1.00800           0
     14563 MEMB     102      DOPC     H14Y     HAL2     0.900000E-01   1.00800           0
     14564 MEMB     102      DOPC     C315     CTL2    -0.180000       12.0110           0
     14565 MEMB     102      DOPC     H15X     HAL2     0.900000E-01   1.00800           0
     14566 MEMB     102      DOPC     H15Y     HAL2     0.900000E-01   1.00800           0
     14567 MEMB     102      DOPC     C316     CTL2    -0.180000       12.0110           0
     14568 MEMB     102      DOPC     H16X     HAL2     0.900000E-01   1.00800           0
     14569 MEMB     102      DOPC     H16Y     HAL2     0.900000E-01   1.00800           0
     14570 MEMB     102      DOPC     C317     CTL2    -0.180000       12.0110           0
     14571 MEMB     102      DOPC     H17X     HAL2     0.900000E-01   1.00800           0
     14572 MEMB     102      DOPC     H17Y     HAL2     0.900000E-01   1.00800           0
     14573 MEMB     102      DOPC     C318     CTL3    -0.270000       12.0110           0
     14574 MEMB     102      DOPC     H18X     HAL3     0.900000E-01   1.00800           0
     14575 MEMB     102      DOPC     H18Y     HAL3     0.900000E-01   1.00800           0
     14576 MEMB     102      DOPC     H18Z     HAL3     0.900000E-01   1.00800           0
     14577 MEMB     103      DOPC     N        NTL     -0.600000       14.0070           0
     14578 MEMB     103      DOPC     C12      CTL2    -0.100000       12.0110           0
     14579 MEMB     103      DOPC     H12A     HL       0.250000       1.00800           0
     14580 MEMB     103      DOPC     H12B     HL       0.250000       1.00800           0
     14581 MEMB     103      DOPC     C13      CTL5    -0.350000       12.0110           0
     14582 MEMB     103      DOPC     H13A     HL       0.250000       1.00800           0
     14583 MEMB     103      DOPC     H13B     HL       0.250000       1.00800           0
     14584 MEMB     103      DOPC     H13C     HL       0.250000       1.00800           0
     14585 MEMB     103      DOPC     C14      CTL5    -0.350000       12.0110           0
     14586 MEMB     103      DOPC     H14A     HL       0.250000       1.00800           0
     14587 MEMB     103      DOPC     H14B     HL       0.250000       1.00800           0
     14588 MEMB     103      DOPC     H14C     HL       0.250000       1.00800           0
     14589 MEMB     103      DOPC     C15      CTL5    -0.350000       12.0110           0
     14590 MEMB     103      DOPC     H15A     HL       0.250000       1.00800           0
     14591 MEMB     103      DOPC     H15B     HL       0.250000       1.00800           0
     14592 MEMB     103      DOPC     H15C     HL       0.250000       1.00800           0
     14593 MEMB     103      DOPC     C11      CTL2    -0.800000E-01   12.0110           0
     14594 MEMB     103      DOPC     H11A     HAL2     0.900000E-01   1.00800           0
     14595 MEMB     103      DOPC     H11B     HAL2     0.900000E-01   1.00800           0
     14596 MEMB     103      DOPC     P        PL        1.50000       30.9740           0
     14597 MEMB     103      DOPC     O13      O2L     -0.780000       15.9994           0
     14598 MEMB     103      DOPC     O14      O2L     -0.780000       15.9994           0
     14599 MEMB     103      DOPC     O12      OSLP    -0.570000       15.9994           0
     14600 MEMB     103      DOPC     O11      OSLP    -0.570000       15.9994           0
     14601 MEMB     103      DOPC     C1       CTL2    -0.800000E-01   12.0110           0
     14602 MEMB     103      DOPC     HA       HAL2     0.900000E-01   1.00800           0
     14603 MEMB     103      DOPC     HB       HAL2     0.900000E-01   1.00800           0
     14604 MEMB     103      DOPC     C2       CTL1     0.170000       12.0110           0
     14605 MEMB     103      DOPC     HS       HAL1     0.900000E-01   1.00800           0
     14606 MEMB     103      DOPC     O21      OSL     -0.490000       15.9994           0
     14607 MEMB     103      DOPC     C21      CL       0.900000       12.0110           0
     14608 MEMB     103      DOPC     O22      OBL     -0.630000       15.9994           0
     14609 MEMB     103      DOPC     C22      CTL2    -0.220000       12.0110           0
     14610 MEMB     103      DOPC     H2R      HAL2     0.900000E-01   1.00800           0
     14611 MEMB     103      DOPC     H2S      HAL2     0.900000E-01   1.00800           0
     14612 MEMB     103      DOPC     C3       CTL2     0.800000E-01   12.0110           0
     14613 MEMB     103      DOPC     HX       HAL2     0.900000E-01   1.00800           0
     14614 MEMB     103      DOPC     HY       HAL2     0.900000E-01   1.00800           0
     14615 MEMB     103      DOPC     O31      OSL     -0.490000       15.9994           0
     14616 MEMB     103      DOPC     C31      CL       0.900000       12.0110           0
     14617 MEMB     103      DOPC     O32      OBL     -0.630000       15.9994           0
     14618 MEMB     103      DOPC     C32      CTL2    -0.220000       12.0110           0
     14619 MEMB     103      DOPC     H2X      HAL2     0.900000E-01   1.00800           0
     14620 MEMB     103      DOPC     H2Y      HAL2     0.900000E-01   1.00800           0
     14621 MEMB     103      DOPC     C23      CTL2    -0.180000       12.0110           0
     14622 MEMB     103      DOPC     H3R      HAL2     0.900000E-01   1.00800           0
     14623 MEMB     103      DOPC     H3S      HAL2     0.900000E-01   1.00800           0
     14624 MEMB     103      DOPC     C24      CTL2    -0.180000       12.0110           0
     14625 MEMB     103      DOPC     H4R      HAL2     0.900000E-01   1.00800           0
     14626 MEMB     103      DOPC     H4S      HAL2     0.900000E-01   1.00800           0
     14627 MEMB     103      DOPC     C25      CTL2    -0.180000       12.0110           0
     14628 MEMB     103      DOPC     H5R      HAL2     0.900000E-01   1.00800           0
     14629 MEMB     103      DOPC     H5S      HAL2     0.900000E-01   1.00800           0
     14630 MEMB     103      DOPC     C26      CTL2    -0.180000       12.0110           0
     14631 MEMB     103      DOPC     H6R      HAL2     0.900000E-01   1.00800           0
     14632 MEMB     103      DOPC     H6S      HAL2     0.900000E-01   1.00800           0
     14633 MEMB     103      DOPC     C27      CTL2    -0.180000       12.0110           0
     14634 MEMB     103      DOPC     H7R      HAL2     0.900000E-01   1.00800           0
     14635 MEMB     103      DOPC     H7S      HAL2     0.900000E-01   1.00800           0
     14636 MEMB     103      DOPC     C28      CTL2    -0.180000       12.0110           0
     14637 MEMB     103      DOPC     H8R      HAL2     0.900000E-01   1.00800           0
     14638 MEMB     103      DOPC     H8S      HAL2     0.900000E-01   1.00800           0
     14639 MEMB     103      DOPC     C29      CEL1    -0.150000       12.0110           0
     14640 MEMB     103      DOPC     H9R      HEL1     0.150000       1.00800           0
     14641 MEMB     103      DOPC     C210     CEL1    -0.150000       12.0110           0
     14642 MEMB     103      DOPC     H10R     HEL1     0.150000       1.00800           0
     14643 MEMB     103      DOPC     C211     CTL2    -0.180000       12.0110           0
     14644 MEMB     103      DOPC     H11R     HAL2     0.900000E-01   1.00800           0
     14645 MEMB     103      DOPC     H11S     HAL2     0.900000E-01   1.00800           0
     14646 MEMB     103      DOPC     C212     CTL2    -0.180000       12.0110           0
     14647 MEMB     103      DOPC     H12R     HAL2     0.900000E-01   1.00800           0
     14648 MEMB     103      DOPC     H12S     HAL2     0.900000E-01   1.00800           0
     14649 MEMB     103      DOPC     C213     CTL2    -0.180000       12.0110           0
     14650 MEMB     103      DOPC     H13R     HAL2     0.900000E-01   1.00800           0
     14651 MEMB     103      DOPC     H13S     HAL2     0.900000E-01   1.00800           0
     14652 MEMB     103      DOPC     C214     CTL2    -0.180000       12.0110           0
     14653 MEMB     103      DOPC     H14R     HAL2     0.900000E-01   1.00800           0
     14654 MEMB     103      DOPC     H14S     HAL2     0.900000E-01   1.00800           0
     14655 MEMB     103      DOPC     C215     CTL2    -0.180000       12.0110           0
     14656 MEMB     103      DOPC     H15R     HAL2     0.900000E-01   1.00800           0
     14657 MEMB     103      DOPC     H15S     HAL2     0.900000E-01   1.00800           0
     14658 MEMB     103      DOPC     C216     CTL2    -0.180000       12.0110           0
     14659 MEMB     103      DOPC     H16R     HAL2     0.900000E-01   1.00800           0
     14660 MEMB     103      DOPC     H16S     HAL2     0.900000E-01   1.00800           0
     14661 MEMB     103      DOPC     C217     CTL2    -0.180000       12.0110           0
     14662 MEMB     103      DOPC     H17R     HAL2     0.900000E-01   1.00800           0
     14663 MEMB     103      DOPC     H17S     HAL2     0.900000E-01   1.00800           0
     14664 MEMB     103      DOPC     C218     CTL3    -0.270000       12.0110           0
     14665 MEMB     103      DOPC     H18R     HAL3     0.900000E-01   1.00800           0
     14666 MEMB     103      DOPC     H18S     HAL3     0.900000E-01   1.00800           0
     14667 MEMB     103      DOPC     H18T     HAL3     0.900000E-01   1.00800           0
     14668 MEMB     103      DOPC     C33      CTL2    -0.180000       12.0110           0
     14669 MEMB     103      DOPC     H3X      HAL2     0.900000E-01   1.00800           0
     14670 MEMB     103      DOPC     H3Y      HAL2     0.900000E-01   1.00800           0
     14671 MEMB     103      DOPC     C34      CTL2    -0.180000       12.0110           0
     14672 MEMB     103      DOPC     H4X      HAL2     0.900000E-01   1.00800           0
     14673 MEMB     103      DOPC     H4Y      HAL2     0.900000E-01   1.00800           0
     14674 MEMB     103      DOPC     C35      CTL2    -0.180000       12.0110           0
     14675 MEMB     103      DOPC     H5X      HAL2     0.900000E-01   1.00800           0
     14676 MEMB     103      DOPC     H5Y      HAL2     0.900000E-01   1.00800           0
     14677 MEMB     103      DOPC     C36      CTL2    -0.180000       12.0110           0
     14678 MEMB     103      DOPC     H6X      HAL2     0.900000E-01   1.00800           0
     14679 MEMB     103      DOPC     H6Y      HAL2     0.900000E-01   1.00800           0
     14680 MEMB     103      DOPC     C37      CTL2    -0.180000       12.0110           0
     14681 MEMB     103      DOPC     H7X      HAL2     0.900000E-01   1.00800           0
     14682 MEMB     103      DOPC     H7Y      HAL2     0.900000E-01   1.00800           0
     14683 MEMB     103      DOPC     C38      CTL2    -0.180000       12.0110           0
     14684 MEMB     103      DOPC     H8X      HAL2     0.900000E-01   1.00800           0
     14685 MEMB     103      DOPC     H8Y      HAL2     0.900000E-01   1.00800           0
     14686 MEMB     103      DOPC     C39      CEL1    -0.150000       12.0110           0
     14687 MEMB     103      DOPC     H9X      HEL1     0.150000       1.00800           0
     14688 MEMB     103      DOPC     C310     CEL1    -0.150000       12.0110           0
     14689 MEMB     103      DOPC     H10X     HEL1     0.150000       1.00800           0
     14690 MEMB     103      DOPC     C311     CTL2    -0.180000       12.0110           0
     14691 MEMB     103      DOPC     H11X     HAL2     0.900000E-01   1.00800           0
     14692 MEMB     103      DOPC     H11Y     HAL2     0.900000E-01   1.00800           0
     14693 MEMB     103      DOPC     C312     CTL2    -0.180000       12.0110           0
     14694 MEMB     103      DOPC     H12X     HAL2     0.900000E-01   1.00800           0
     14695 MEMB     103      DOPC     H12Y     HAL2     0.900000E-01   1.00800           0
     14696 MEMB     103      DOPC     C313     CTL2    -0.180000       12.0110           0
     14697 MEMB     103      DOPC     H13X     HAL2     0.900000E-01   1.00800           0
     14698 MEMB     103      DOPC     H13Y     HAL2     0.900000E-01   1.00800           0
     14699 MEMB     103      DOPC     C314     CTL2    -0.180000       12.0110           0
     14700 MEMB     103      DOPC     H14X     HAL2     0.900000E-01   1.00800           0
     14701 MEMB     103      DOPC     H14Y     HAL2     0.900000E-01   1.00800           0
     14702 MEMB     103      DOPC     C315     CTL2    -0.180000       12.0110           0
     14703 MEMB     103      DOPC     H15X     HAL2     0.900000E-01   1.00800           0
     14704 MEMB     103      DOPC     H15Y     HAL2     0.900000E-01   1.00800           0
     14705 MEMB     103      DOPC     C316     CTL2    -0.180000       12.0110           0
     14706 MEMB     103      DOPC     H16X     HAL2     0.900000E-01   1.00800           0
     14707 MEMB     103      DOPC     H16Y     HAL2     0.900000E-01   1.00800           0
     14708 MEMB     103      DOPC     C317     CTL2    -0.180000       12.0110           0
     14709 MEMB     103      DOPC     H17X     HAL2     0.900000E-01   1.00800           0
     14710 MEMB     103      DOPC     H17Y     HAL2     0.900000E-01   1.00800           0
     14711 MEMB     103      DOPC     C318     CTL3    -0.270000       12.0110           0
     14712 MEMB     103      DOPC     H18X     HAL3     0.900000E-01   1.00800           0
     14713 MEMB     103      DOPC     H18Y     HAL3     0.900000E-01   1.00800           0
     14714 MEMB     103      DOPC     H18Z     HAL3     0.900000E-01   1.00800           0
     14715 MEMB     104      DOPC     N        NTL     -0.600000       14.0070           0
     14716 MEMB     104      DOPC     C12      CTL2    -0.100000       12.0110           0
     14717 MEMB     104      DOPC     H12A     HL       0.250000       1.00800           0
     14718 MEMB     104      DOPC     H12B     HL       0.250000       1.00800           0
     14719 MEMB     104      DOPC     C13      CTL5    -0.350000       12.0110           0
     14720 MEMB     104      DOPC     H13A     HL       0.250000       1.00800           0
     14721 MEMB     104      DOPC     H13B     HL       0.250000       1.00800           0
     14722 MEMB     104      DOPC     H13C     HL       0.250000       1.00800           0
     14723 MEMB     104      DOPC     C14      CTL5    -0.350000       12.0110           0
     14724 MEMB     104      DOPC     H14A     HL       0.250000       1.00800           0
     14725 MEMB     104      DOPC     H14B     HL       0.250000       1.00800           0
     14726 MEMB     104      DOPC     H14C     HL       0.250000       1.00800           0
     14727 MEMB     104      DOPC     C15      CTL5    -0.350000       12.0110           0
     14728 MEMB     104      DOPC     H15A     HL       0.250000       1.00800           0
     14729 MEMB     104      DOPC     H15B     HL       0.250000       1.00800           0
     14730 MEMB     104      DOPC     H15C     HL       0.250000       1.00800           0
     14731 MEMB     104      DOPC     C11      CTL2    -0.800000E-01   12.0110           0
     14732 MEMB     104      DOPC     H11A     HAL2     0.900000E-01   1.00800           0
     14733 MEMB     104      DOPC     H11B     HAL2     0.900000E-01   1.00800           0
     14734 MEMB     104      DOPC     P        PL        1.50000       30.9740           0
     14735 MEMB     104      DOPC     O13      O2L     -0.780000       15.9994           0
     14736 MEMB     104      DOPC     O14      O2L     -0.780000       15.9994           0
     14737 MEMB     104      DOPC     O12      OSLP    -0.570000       15.9994           0
     14738 MEMB     104      DOPC     O11      OSLP    -0.570000       15.9994           0
     14739 MEMB     104      DOPC     C1       CTL2    -0.800000E-01   12.0110           0
     14740 MEMB     104      DOPC     HA       HAL2     0.900000E-01   1.00800           0
     14741 MEMB     104      DOPC     HB       HAL2     0.900000E-01   1.00800           0
     14742 MEMB     104      DOPC     C2       CTL1     0.170000       12.0110           0
     14743 MEMB     104      DOPC     HS       HAL1     0.900000E-01   1.00800           0
     14744 MEMB     104      DOPC     O21      OSL     -0.490000       15.9994           0
     14745 MEMB     104      DOPC     C21      CL       0.900000       12.0110           0
     14746 MEMB     104      DOPC     O22      OBL     -0.630000       15.9994           0
     14747 MEMB     104      DOPC     C22      CTL2    -0.220000       12.0110           0
     14748 MEMB     104      DOPC     H2R      HAL2     0.900000E-01   1.00800           0
     14749 MEMB     104      DOPC     H2S      HAL2     0.900000E-01   1.00800           0
     14750 MEMB     104      DOPC     C3       CTL2     0.800000E-01   12.0110           0
     14751 MEMB     104      DOPC     HX       HAL2     0.900000E-01   1.00800           0
     14752 MEMB     104      DOPC     HY       HAL2     0.900000E-01   1.00800           0
     14753 MEMB     104      DOPC     O31      OSL     -0.490000       15.9994           0
     14754 MEMB     104      DOPC     C31      CL       0.900000       12.0110           0
     14755 MEMB     104      DOPC     O32      OBL     -0.630000       15.9994           0
     14756 MEMB     104      DOPC     C32      CTL2    -0.220000       12.0110           0
     14757 MEMB     104      DOPC     H2X      HAL2     0.900000E-01   1.00800           0
     14758 MEMB     104      DOPC     H2Y      HAL2     0.900000E-01   1.00800           0
     14759 MEMB     104      DOPC     C23      CTL2    -0.180000       12.0110           0
     14760 MEMB     104      DOPC     H3R      HAL2     0.900000E-01   1.00800           0
     14761 MEMB     104      DOPC     H3S      HAL2     0.900000E-01   1.00800           0
     14762 MEMB     104      DOPC     C24      CTL2    -0.180000       12.0110           0
     14763 MEMB     104      DOPC     H4R      HAL2     0.900000E-01   1.00800           0
     14764 MEMB     104      DOPC     H4S      HAL2     0.900000E-01   1.00800           0
     14765 MEMB     104      DOPC     C25      CTL2    -0.180000       12.0110           0
     14766 MEMB     104      DOPC     H5R      HAL2     0.900000E-01   1.00800           0
     14767 MEMB     104      DOPC     H5S      HAL2     0.900000E-01   1.00800           0
     14768 MEMB     104      DOPC     C26      CTL2    -0.180000       12.0110           0
     14769 MEMB     104      DOPC     H6R      HAL2     0.900000E-01   1.00800           0
     14770 MEMB     104      DOPC     H6S      HAL2     0.900000E-01   1.00800           0
     14771 MEMB     104      DOPC     C27      CTL2    -0.180000       12.0110           0
     14772 MEMB     104      DOPC     H7R      HAL2     0.900000E-01   1.00800           0
     14773 MEMB     104      DOPC     H7S      HAL2     0.900000E-01   1.00800           0
     14774 MEMB     104      DOPC     C28      CTL2    -0.180000       12.0110           0
     14775 MEMB     104      DOPC     H8R      HAL2     0.900000E-01   1.00800           0
     14776 MEMB     104      DOPC     H8S      HAL2     0.900000E-01   1.00800           0
     14777 MEMB     104      DOPC     C29      CEL1    -0.150000       12.0110           0
     14778 MEMB     104      DOPC     H9R      HEL1     0.150000       1.00800           0
     14779 MEMB     104      DOPC     C210     CEL1    -0.150000       12.0110           0
     14780 MEMB     104      DOPC     H10R     HEL1     0.150000       1.00800           0
     14781 MEMB     104      DOPC     C211     CTL2    -0.180000       12.0110           0
     14782 MEMB     104      DOPC     H11R     HAL2     0.900000E-01   1.00800           0
     14783 MEMB     104      DOPC     H11S     HAL2     0.900000E-01   1.00800           0
     14784 MEMB     104      DOPC     C212     CTL2    -0.180000       12.0110           0
     14785 MEMB     104      DOPC     H12R     HAL2     0.900000E-01   1.00800           0
     14786 MEMB     104      DOPC     H12S     HAL2     0.900000E-01   1.00800           0
     14787 MEMB     104      DOPC     C213     CTL2    -0.180000       12.0110           0
     14788 MEMB     104      DOPC     H13R     HAL2     0.900000E-01   1.00800           0
     14789 MEMB     104      DOPC     H13S     HAL2     0.900000E-01   1.00800           0
     14790 MEMB     104      DOPC     C214     CTL2    -0.180000       12.0110           0
     14791 MEMB     104      DOPC     H14R     HAL2     0.900000E-01   1.00800           0
     14792 MEMB     104      DOPC     H14S     HAL2     0.900000E-01   1.00800           0
     14793 MEMB     104      DOPC     C215     CTL2    -0.180000       12.0110           0
     14794 MEMB     104      DOPC     H15R     HAL2     0.900000E-01   1.00800           0
     14795 MEMB     104      DOPC     H15S     HAL2     0.900000E-01   1.00800           0
     14796 MEMB     104      DOPC     C216     CTL2    -0.180000       12.0110           0
     14797 MEMB     104      DOPC     H16R     HAL2     0.900000E-01   1.00800           0
     14798 MEMB     104      DOPC     H16S     HAL2     0.900000E-01   1.00800           0
     14799 MEMB     104      DOPC     C217     CTL2    -0.180000       12.0110           0
     14800 MEMB     104      DOPC     H17R     HAL2     0.900000E-01   1.00800           0
     14801 MEMB     104      DOPC     H17S     HAL2     0.900000E-01   1.00800           0
     14802 MEMB     104      DOPC     C218     CTL3    -0.270000       12.0110           0
     14803 MEMB     104      DOPC     H18R     HAL3     0.900000E-01   1.00800           0
     14804 MEMB     104      DOPC     H18S     HAL3     0.900000E-01   1.00800           0
     14805 MEMB     104      DOPC     H18T     HAL3     0.900000E-01   1.00800           0
     14806 MEMB     104      DOPC     C33      CTL2    -0.180000       12.0110           0
     14807 MEMB     104      DOPC     H3X      HAL2     0.900000E-01   1.00800           0
     14808 MEMB     104      DOPC     H3Y      HAL2     0.900000E-01   1.00800           0
     14809 MEMB     104      DOPC     C34      CTL2    -0.180000       12.0110           0
     14810 MEMB     104      DOPC     H4X      HAL2     0.900000E-01   1.00800           0
     14811 MEMB     104      DOPC     H4Y      HAL2     0.900000E-01   1.00800           0
     14812 MEMB     104      DOPC     C35      CTL2    -0.180000       12.0110           0
     14813 MEMB     104      DOPC     H5X      HAL2     0.900000E-01   1.00800           0
     14814 MEMB     104      DOPC     H5Y      HAL2     0.900000E-01   1.00800           0
     14815 MEMB     104      DOPC     C36      CTL2    -0.180000       12.0110           0
     14816 MEMB     104      DOPC     H6X      HAL2     0.900000E-01   1.00800           0
     14817 MEMB     104      DOPC     H6Y      HAL2     0.900000E-01   1.00800           0
     14818 MEMB     104      DOPC     C37      CTL2    -0.180000       12.0110           0
     14819 MEMB     104      DOPC     H7X      HAL2     0.900000E-01   1.00800           0
     14820 MEMB     104      DOPC     H7Y      HAL2     0.900000E-01   1.00800           0
     14821 MEMB     104      DOPC     C38      CTL2    -0.180000       12.0110           0
     14822 MEMB     104      DOPC     H8X      HAL2     0.900000E-01   1.00800           0
     14823 MEMB     104      DOPC     H8Y      HAL2     0.900000E-01   1.00800           0
     14824 MEMB     104      DOPC     C39      CEL1    -0.150000       12.0110           0
     14825 MEMB     104      DOPC     H9X      HEL1     0.150000       1.00800           0
     14826 MEMB     104      DOPC     C310     CEL1    -0.150000       12.0110           0
     14827 MEMB     104      DOPC     H10X     HEL1     0.150000       1.00800           0
     14828 MEMB     104      DOPC     C311     CTL2    -0.180000       12.0110           0
     14829 MEMB     104      DOPC     H11X     HAL2     0.900000E-01   1.00800           0
     14830 MEMB     104      DOPC     H11Y     HAL2     0.900000E-01   1.00800           0
     14831 MEMB     104      DOPC     C312     CTL2    -0.180000       12.0110           0
     14832 MEMB     104      DOPC     H12X     HAL2     0.900000E-01   1.00800           0
     14833 MEMB     104      DOPC     H12Y     HAL2     0.900000E-01   1.00800           0
     14834 MEMB     104      DOPC     C313     CTL2    -0.180000       12.0110           0
     14835 MEMB     104      DOPC     H13X     HAL2     0.900000E-01   1.00800           0
     14836 MEMB     104      DOPC     H13Y     HAL2     0.900000E-01   1.00800           0
     14837 MEMB     104      DOPC     C314     CTL2    -0.180000       12.0110           0
     14838 MEMB     104      DOPC     H14X     HAL2     0.900000E-01   1.00800           0
     14839 MEMB     104      DOPC     H14Y     HAL2     0.900000E-01   1.00800           0
     14840 MEMB     104      DOPC     C315     CTL2    -0.180000       12.0110           0
     14841 MEMB     104      DOPC     H15X     HAL2     0.900000E-01   1.00800           0
     14842 MEMB     104      DOPC     H15Y     HAL2     0.900000E-01   1.00800           0
     14843 MEMB     104      DOPC     C316     CTL2    -0.180000       12.0110           0
     14844 MEMB     104      DOPC     H16X     HAL2     0.900000E-01   1.00800           0
     14845 MEMB     104      DOPC     H16Y     HAL2     0.900000E-01   1.00800           0
     14846 MEMB     104      DOPC     C317     CTL2    -0.180000       12.0110           0
     14847 MEMB     104      DOPC     H17X     HAL2     0.900000E-01   1.00800           0
     14848 MEMB     104      DOPC     H17Y     HAL2     0.900000E-01   1.00800           0
     14849 MEMB     104      DOPC     C318     CTL3    -0.270000       12.0110           0
     14850 MEMB     104      DOPC     H18X     HAL3     0.900000E-01   1.00800           0
     14851 MEMB     104      DOPC     H18Y     HAL3     0.900000E-01   1.00800           0
     14852 MEMB     104      DOPC     H18Z     HAL3     0.900000E-01   1.00800           0
     14853 MEMB     105      DOPC     N        NTL     -0.600000       14.0070           0
     14854 MEMB     105      DOPC     C12      CTL2    -0.100000       12.0110           0
     14855 MEMB     105      DOPC     H12A     HL       0.250000       1.00800           0
     14856 MEMB     105      DOPC     H12B     HL       0.250000       1.00800           0
     14857 MEMB     105      DOPC     C13      CTL5    -0.350000       12.0110           0
     14858 MEMB     105      DOPC     H13A     HL       0.250000       1.00800           0
     14859 MEMB     105      DOPC     H13B     HL       0.250000       1.00800           0
     14860 MEMB     105      DOPC     H13C     HL       0.250000       1.00800           0
     14861 MEMB     105      DOPC     C14      CTL5    -0.350000       12.0110           0
     14862 MEMB     105      DOPC     H14A     HL       0.250000       1.00800           0
     14863 MEMB     105      DOPC     H14B     HL       0.250000       1.00800           0
     14864 MEMB     105      DOPC     H14C     HL       0.250000       1.00800           0
     14865 MEMB     105      DOPC     C15      CTL5    -0.350000       12.0110           0
     14866 MEMB     105      DOPC     H15A     HL       0.250000       1.00800           0
     14867 MEMB     105      DOPC     H15B     HL       0.250000       1.00800           0
     14868 MEMB     105      DOPC     H15C     HL       0.250000       1.00800           0
     14869 MEMB     105      DOPC     C11      CTL2    -0.800000E-01   12.0110           0
     14870 MEMB     105      DOPC     H11A     HAL2     0.900000E-01   1.00800           0
     14871 MEMB     105      DOPC     H11B     HAL2     0.900000E-01   1.00800           0
     14872 MEMB     105      DOPC     P        PL        1.50000       30.9740           0
     14873 MEMB     105      DOPC     O13      O2L     -0.780000       15.9994           0
     14874 MEMB     105      DOPC     O14      O2L     -0.780000       15.9994           0
     14875 MEMB     105      DOPC     O12      OSLP    -0.570000       15.9994           0
     14876 MEMB     105      DOPC     O11      OSLP    -0.570000       15.9994           0
     14877 MEMB     105      DOPC     C1       CTL2    -0.800000E-01   12.0110           0
     14878 MEMB     105      DOPC     HA       HAL2     0.900000E-01   1.00800           0
     14879 MEMB     105      DOPC     HB       HAL2     0.900000E-01   1.00800           0
     14880 MEMB     105      DOPC     C2       CTL1     0.170000       12.0110           0
     14881 MEMB     105      DOPC     HS       HAL1     0.900000E-01   1.00800           0
     14882 MEMB     105      DOPC     O21      OSL     -0.490000       15.9994           0
     14883 MEMB     105      DOPC     C21      CL       0.900000       12.0110           0
     14884 MEMB     105      DOPC     O22      OBL     -0.630000       15.9994           0
     14885 MEMB     105      DOPC     C22      CTL2    -0.220000       12.0110           0
     14886 MEMB     105      DOPC     H2R      HAL2     0.900000E-01   1.00800           0
     14887 MEMB     105      DOPC     H2S      HAL2     0.900000E-01   1.00800           0
     14888 MEMB     105      DOPC     C3       CTL2     0.800000E-01   12.0110           0
     14889 MEMB     105      DOPC     HX       HAL2     0.900000E-01   1.00800           0
     14890 MEMB     105      DOPC     HY       HAL2     0.900000E-01   1.00800           0
     14891 MEMB     105      DOPC     O31      OSL     -0.490000       15.9994           0
     14892 MEMB     105      DOPC     C31      CL       0.900000       12.0110           0
     14893 MEMB     105      DOPC     O32      OBL     -0.630000       15.9994           0
     14894 MEMB     105      DOPC     C32      CTL2    -0.220000       12.0110           0
     14895 MEMB     105      DOPC     H2X      HAL2     0.900000E-01   1.00800           0
     14896 MEMB     105      DOPC     H2Y      HAL2     0.900000E-01   1.00800           0
     14897 MEMB     105      DOPC     C23      CTL2    -0.180000       12.0110           0
     14898 MEMB     105      DOPC     H3R      HAL2     0.900000E-01   1.00800           0
     14899 MEMB     105      DOPC     H3S      HAL2     0.900000E-01   1.00800           0
     14900 MEMB     105      DOPC     C24      CTL2    -0.180000       12.0110           0
     14901 MEMB     105      DOPC     H4R      HAL2     0.900000E-01   1.00800           0
     14902 MEMB     105      DOPC     H4S      HAL2     0.900000E-01   1.00800           0
     14903 MEMB     105      DOPC     C25      CTL2    -0.180000       12.0110           0
     14904 MEMB     105      DOPC     H5R      HAL2     0.900000E-01   1.00800           0
     14905 MEMB     105      DOPC     H5S      HAL2     0.900000E-01   1.00800           0
     14906 MEMB     105      DOPC     C26      CTL2    -0.180000       12.0110           0
     14907 MEMB     105      DOPC     H6R      HAL2     0.900000E-01   1.00800           0
     14908 MEMB     105      DOPC     H6S      HAL2     0.900000E-01   1.00800           0
     14909 MEMB     105      DOPC     C27      CTL2    -0.180000       12.0110           0
     14910 MEMB     105      DOPC     H7R      HAL2     0.900000E-01   1.00800           0
     14911 MEMB     105      DOPC     H7S      HAL2     0.900000E-01   1.00800           0
     14912 MEMB     105      DOPC     C28      CTL2    -0.180000       12.0110           0
     14913 MEMB     105      DOPC     H8R      HAL2     0.900000E-01   1.00800           0
     14914 MEMB     105      DOPC     H8S      HAL2     0.900000E-01   1.00800           0
     14915 MEMB     105      DOPC     C29      CEL1    -0.150000       12.0110           0
     14916 MEMB     105      DOPC     H9R      HEL1     0.150000       1.00800           0
     14917 MEMB     105      DOPC     C210     CEL1    -0.150000       12.0110           0
     14918 MEMB     105      DOPC     H10R     HEL1     0.150000       1.00800           0
     14919 MEMB     105      DOPC     C211     CTL2    -0.180000       12.0110           0
     14920 MEMB     105      DOPC     H11R     HAL2     0.900000E-01   1.00800           0
     14921 MEMB     105      DOPC     H11S     HAL2     0.900000E-01   1.00800           0
     14922 MEMB     105      DOPC     C212     CTL2    -0.180000       12.0110           0
     14923 MEMB     105      DOPC     H12R     HAL2     0.900000E-01   1.00800           0
     14924 MEMB     105      DOPC     H12S     HAL2     0.900000E-01   1.00800           0
     14925 MEMB     105      DOPC     C213     CTL2    -0.180000       12.0110           0
     14926 MEMB     105      DOPC     H13R     HAL2     0.900000E-01   1.00800           0
     14927 MEMB     105      DOPC     H13S     HAL2     0.900000E-01   1.00800           0
     14928 MEMB     105      DOPC     C214     CTL2    -0.180000       12.0110           0
     14929 MEMB     105      DOPC     H14R     HAL2     0.900000E-01   1.00800           0
     14930 MEMB     105      DOPC     H14S     HAL2     0.900000E-01   1.00800           0
     14931 MEMB     105      DOPC     C215     CTL2    -0.180000       12.0110           0
     14932 MEMB     105      DOPC     H15R     HAL2     0.900000E-01   1.00800           0
     14933 MEMB     105      DOPC     H15S     HAL2     0.900000E-01   1.00800           0
     14934 MEMB     105      DOPC     C216     CTL2    -0.180000       12.0110           0
     14935 MEMB     105      DOPC     H16R     HAL2     0.900000E-01   1.00800           0
     14936 MEMB     105      DOPC     H16S     HAL2     0.900000E-01   1.00800           0
     14937 MEMB     105      DOPC     C217     CTL2    -0.180000       12.0110           0
     14938 MEMB     105      DOPC     H17R     HAL2     0.900000E-01   1.00800           0
     14939 MEMB     105      DOPC     H17S     HAL2     0.900000E-01   1.00800           0
     14940 MEMB     105      DOPC     C218     CTL3    -0.270000       12.0110           0
     14941 MEMB     105      DOPC     H18R     HAL3     0.900000E-01   1.00800           0
     14942 MEMB     105      DOPC     H18S     HAL3     0.900000E-01   1.00800           0
     14943 MEMB     105      DOPC     H18T     HAL3     0.900000E-01   1.00800           0
     14944 MEMB     105      DOPC     C33      CTL2    -0.180000       12.0110           0
     14945 MEMB     105      DOPC     H3X      HAL2     0.900000E-01   1.00800           0
     14946 MEMB     105      DOPC     H3Y      HAL2     0.900000E-01   1.00800           0
     14947 MEMB     105      DOPC     C34      CTL2    -0.180000       12.0110           0
     14948 MEMB     105      DOPC     H4X      HAL2     0.900000E-01   1.00800           0
     14949 MEMB     105      DOPC     H4Y      HAL2     0.900000E-01   1.00800           0
     14950 MEMB     105      DOPC     C35      CTL2    -0.180000       12.0110           0
     14951 MEMB     105      DOPC     H5X      HAL2     0.900000E-01   1.00800           0
     14952 MEMB     105      DOPC     H5Y      HAL2     0.900000E-01   1.00800           0
     14953 MEMB     105      DOPC     C36      CTL2    -0.180000       12.0110           0
     14954 MEMB     105      DOPC     H6X      HAL2     0.900000E-01   1.00800           0
     14955 MEMB     105      DOPC     H6Y      HAL2     0.900000E-01   1.00800           0
     14956 MEMB     105      DOPC     C37      CTL2    -0.180000       12.0110           0
     14957 MEMB     105      DOPC     H7X      HAL2     0.900000E-01   1.00800           0
     14958 MEMB     105      DOPC     H7Y      HAL2     0.900000E-01   1.00800           0
     14959 MEMB     105      DOPC     C38      CTL2    -0.180000       12.0110           0
     14960 MEMB     105      DOPC     H8X      HAL2     0.900000E-01   1.00800           0
     14961 MEMB     105      DOPC     H8Y      HAL2     0.900000E-01   1.00800           0
     14962 MEMB     105      DOPC     C39      CEL1    -0.150000       12.0110           0
     14963 MEMB     105      DOPC     H9X      HEL1     0.150000       1.00800           0
     14964 MEMB     105      DOPC     C310     CEL1    -0.150000       12.0110           0
     14965 MEMB     105      DOPC     H10X     HEL1     0.150000       1.00800           0
     14966 MEMB     105      DOPC     C311     CTL2    -0.180000       12.0110           0
     14967 MEMB     105      DOPC     H11X     HAL2     0.900000E-01   1.00800           0
     14968 MEMB     105      DOPC     H11Y     HAL2     0.900000E-01   1.00800           0
     14969 MEMB     105      DOPC     C312     CTL2    -0.180000       12.0110           0
     14970 MEMB     105      DOPC     H12X     HAL2     0.900000E-01   1.00800           0
     14971 MEMB     105      DOPC     H12Y     HAL2     0.900000E-01   1.00800           0
     14972 MEMB     105      DOPC     C313     CTL2    -0.180000       12.0110           0
     14973 MEMB     105      DOPC     H13X     HAL2     0.900000E-01   1.00800           0
     14974 MEMB     105      DOPC     H13Y     HAL2     0.900000E-01   1.00800           0
     14975 MEMB     105      DOPC     C314     CTL2    -0.180000       12.0110           0
     14976 MEMB     105      DOPC     H14X     HAL2     0.900000E-01   1.00800           0
     14977 MEMB     105      DOPC     H14Y     HAL2     0.900000E-01   1.00800           0
     14978 MEMB     105      DOPC     C315     CTL2    -0.180000       12.0110           0
     14979 MEMB     105      DOPC     H15X     HAL2     0.900000E-01   1.00800           0
     14980 MEMB     105      DOPC     H15Y     HAL2     0.900000E-01   1.00800           0
     14981 MEMB     105      DOPC     C316     CTL2    -0.180000       12.0110           0
     14982 MEMB     105      DOPC     H16X     HAL2     0.900000E-01   1.00800           0
     14983 MEMB     105      DOPC     H16Y     HAL2     0.900000E-01   1.00800           0
     14984 MEMB     105      DOPC     C317     CTL2    -0.180000       12.0110           0
     14985 MEMB     105      DOPC     H17X     HAL2     0.900000E-01   1.00800           0
     14986 MEMB     105      DOPC     H17Y     HAL2     0.900000E-01   1.00800           0
     14987 MEMB     105      DOPC     C318     CTL3    -0.270000       12.0110           0
     14988 MEMB     105      DOPC     H18X     HAL3     0.900000E-01   1.00800           0
     14989 MEMB     105      DOPC     H18Y     HAL3     0.900000E-01   1.00800           0
     14990 MEMB     105      DOPC     H18Z     HAL3     0.900000E-01   1.00800           0
     14991 MEMB     106      DOPC     N        NTL     -0.600000       14.0070           0
     14992 MEMB     106      DOPC     C12      CTL2    -0.100000       12.0110           0
     14993 MEMB     106      DOPC     H12A     HL       0.250000       1.00800           0
     14994 MEMB     106      DOPC     H12B     HL       0.250000       1.00800           0
     14995 MEMB     106      DOPC     C13      CTL5    -0.350000       12.0110           0
     14996 MEMB     106      DOPC     H13A     HL       0.250000       1.00800           0
     14997 MEMB     106      DOPC     H13B     HL       0.250000       1.00800           0
     14998 MEMB     106      DOPC     H13C     HL       0.250000       1.00800           0
     14999 MEMB     106      DOPC     C14      CTL5    -0.350000       12.0110           0
     15000 MEMB     106      DOPC     H14A     HL       0.250000       1.00800           0
     15001 MEMB     106      DOPC     H14B     HL       0.250000       1.00800           0
     15002 MEMB     106      DOPC     H14C     HL       0.250000       1.00800           0
     15003 MEMB     106      DOPC     C15      CTL5    -0.350000       12.0110           0
     15004 MEMB     106      DOPC     H15A     HL       0.250000       1.00800           0
     15005 MEMB     106      DOPC     H15B     HL       0.250000       1.00800           0
     15006 MEMB     106      DOPC     H15C     HL       0.250000       1.00800           0
     15007 MEMB     106      DOPC     C11      CTL2    -0.800000E-01   12.0110           0
     15008 MEMB     106      DOPC     H11A     HAL2     0.900000E-01   1.00800           0
     15009 MEMB     106      DOPC     H11B     HAL2     0.900000E-01   1.00800           0
     15010 MEMB     106      DOPC     P        PL        1.50000       30.9740           0
     15011 MEMB     106      DOPC     O13      O2L     -0.780000       15.9994           0
     15012 MEMB     106      DOPC     O14      O2L     -0.780000       15.9994           0
     15013 MEMB     106      DOPC     O12      OSLP    -0.570000       15.9994           0
     15014 MEMB     106      DOPC     O11      OSLP    -0.570000       15.9994           0
     15015 MEMB     106      DOPC     C1       CTL2    -0.800000E-01   12.0110           0
     15016 MEMB     106      DOPC     HA       HAL2     0.900000E-01   1.00800           0
     15017 MEMB     106      DOPC     HB       HAL2     0.900000E-01   1.00800           0
     15018 MEMB     106      DOPC     C2       CTL1     0.170000       12.0110           0
     15019 MEMB     106      DOPC     HS       HAL1     0.900000E-01   1.00800           0
     15020 MEMB     106      DOPC     O21      OSL     -0.490000       15.9994           0
     15021 MEMB     106      DOPC     C21      CL       0.900000       12.0110           0
     15022 MEMB     106      DOPC     O22      OBL     -0.630000       15.9994           0
     15023 MEMB     106      DOPC     C22      CTL2    -0.220000       12.0110           0
     15024 MEMB     106      DOPC     H2R      HAL2     0.900000E-01   1.00800           0
     15025 MEMB     106      DOPC     H2S      HAL2     0.900000E-01   1.00800           0
     15026 MEMB     106      DOPC     C3       CTL2     0.800000E-01   12.0110           0
     15027 MEMB     106      DOPC     HX       HAL2     0.900000E-01   1.00800           0
     15028 MEMB     106      DOPC     HY       HAL2     0.900000E-01   1.00800           0
     15029 MEMB     106      DOPC     O31      OSL     -0.490000       15.9994           0
     15030 MEMB     106      DOPC     C31      CL       0.900000       12.0110           0
     15031 MEMB     106      DOPC     O32      OBL     -0.630000       15.9994           0
     15032 MEMB     106      DOPC     C32      CTL2    -0.220000       12.0110           0
     15033 MEMB     106      DOPC     H2X      HAL2     0.900000E-01   1.00800           0
     15034 MEMB     106      DOPC     H2Y      HAL2     0.900000E-01   1.00800           0
     15035 MEMB     106      DOPC     C23      CTL2    -0.180000       12.0110           0
     15036 MEMB     106      DOPC     H3R      HAL2     0.900000E-01   1.00800           0
     15037 MEMB     106      DOPC     H3S      HAL2     0.900000E-01   1.00800           0
     15038 MEMB     106      DOPC     C24      CTL2    -0.180000       12.0110           0
     15039 MEMB     106      DOPC     H4R      HAL2     0.900000E-01   1.00800           0
     15040 MEMB     106      DOPC     H4S      HAL2     0.900000E-01   1.00800           0
     15041 MEMB     106      DOPC     C25      CTL2    -0.180000       12.0110           0
     15042 MEMB     106      DOPC     H5R      HAL2     0.900000E-01   1.00800           0
     15043 MEMB     106      DOPC     H5S      HAL2     0.900000E-01   1.00800           0
     15044 MEMB     106      DOPC     C26      CTL2    -0.180000       12.0110           0
     15045 MEMB     106      DOPC     H6R      HAL2     0.900000E-01   1.00800           0
     15046 MEMB     106      DOPC     H6S      HAL2     0.900000E-01   1.00800           0
     15047 MEMB     106      DOPC     C27      CTL2    -0.180000       12.0110           0
     15048 MEMB     106      DOPC     H7R      HAL2     0.900000E-01   1.00800           0
     15049 MEMB     106      DOPC     H7S      HAL2     0.900000E-01   1.00800           0
     15050 MEMB     106      DOPC     C28      CTL2    -0.180000       12.0110           0
     15051 MEMB     106      DOPC     H8R      HAL2     0.900000E-01   1.00800           0
     15052 MEMB     106      DOPC     H8S      HAL2     0.900000E-01   1.00800           0
     15053 MEMB     106      DOPC     C29      CEL1    -0.150000       12.0110           0
     15054 MEMB     106      DOPC     H9R      HEL1     0.150000       1.00800           0
     15055 MEMB     106      DOPC     C210     CEL1    -0.150000       12.0110           0
     15056 MEMB     106      DOPC     H10R     HEL1     0.150000       1.00800           0
     15057 MEMB     106      DOPC     C211     CTL2    -0.180000       12.0110           0
     15058 MEMB     106      DOPC     H11R     HAL2     0.900000E-01   1.00800           0
     15059 MEMB     106      DOPC     H11S     HAL2     0.900000E-01   1.00800           0
     15060 MEMB     106      DOPC     C212     CTL2    -0.180000       12.0110           0
     15061 MEMB     106      DOPC     H12R     HAL2     0.900000E-01   1.00800           0
     15062 MEMB     106      DOPC     H12S     HAL2     0.900000E-01   1.00800           0
     15063 MEMB     106      DOPC     C213     CTL2    -0.180000       12.0110           0
     15064 MEMB     106      DOPC     H13R     HAL2     0.900000E-01   1.00800           0
     15065 MEMB     106      DOPC     H13S     HAL2     0.900000E-01   1.00800           0
     15066 MEMB     106      DOPC     C214     CTL2    -0.180000       12.0110           0
     15067 MEMB     106      DOPC     H14R     HAL2     0.900000E-01   1.00800           0
     15068 MEMB     106      DOPC     H14S     HAL2     0.900000E-01   1.00800           0
     15069 MEMB     106      DOPC     C215     CTL2    -0.180000       12.0110           0
     15070 MEMB     106      DOPC     H15R     HAL2     0.900000E-01   1.00800           0
     15071 MEMB     106      DOPC     H15S     HAL2     0.900000E-01   1.00800           0
     15072 MEMB     106      DOPC     C216     CTL2    -0.180000       12.0110           0
     15073 MEMB     106      DOPC     H16R     HAL2     0.900000E-01   1.00800           0
     15074 MEMB     106      DOPC     H16S     HAL2     0.900000E-01   1.00800           0
     15075 MEMB     106      DOPC     C217     CTL2    -0.180000       12.0110           0
     15076 MEMB     106      DOPC     H17R     HAL2     0.900000E-01   1.00800           0
     15077 MEMB     106      DOPC     H17S     HAL2     0.900000E-01   1.00800           0
     15078 MEMB     106      DOPC     C218     CTL3    -0.270000       12.0110           0
     15079 MEMB     106      DOPC     H18R     HAL3     0.900000E-01   1.00800           0
     15080 MEMB     106      DOPC     H18S     HAL3     0.900000E-01   1.00800           0
     15081 MEMB     106      DOPC     H18T     HAL3     0.900000E-01   1.00800           0
     15082 MEMB     106      DOPC     C33      CTL2    -0.180000       12.0110           0
     15083 MEMB     106      DOPC     H3X      HAL2     0.900000E-01   1.00800           0
     15084 MEMB     106      DOPC     H3Y      HAL2     0.900000E-01   1.00800           0
     15085 MEMB     106      DOPC     C34      CTL2    -0.180000       12.0110           0
     15086 MEMB     106      DOPC     H4X      HAL2     0.900000E-01   1.00800           0
     15087 MEMB     106      DOPC     H4Y      HAL2     0.900000E-01   1.00800           0
     15088 MEMB     106      DOPC     C35      CTL2    -0.180000       12.0110           0
     15089 MEMB     106      DOPC     H5X      HAL2     0.900000E-01   1.00800           0
     15090 MEMB     106      DOPC     H5Y      HAL2     0.900000E-01   1.00800           0
     15091 MEMB     106      DOPC     C36      CTL2    -0.180000       12.0110           0
     15092 MEMB     106      DOPC     H6X      HAL2     0.900000E-01   1.00800           0
     15093 MEMB     106      DOPC     H6Y      HAL2     0.900000E-01   1.00800           0
     15094 MEMB     106      DOPC     C37      CTL2    -0.180000       12.0110           0
     15095 MEMB     106      DOPC     H7X      HAL2     0.900000E-01   1.00800           0
     15096 MEMB     106      DOPC     H7Y      HAL2     0.900000E-01   1.00800           0
     15097 MEMB     106      DOPC     C38      CTL2    -0.180000       12.0110           0
     15098 MEMB     106      DOPC     H8X      HAL2     0.900000E-01   1.00800           0
     15099 MEMB     106      DOPC     H8Y      HAL2     0.900000E-01   1.00800           0
     15100 MEMB     106      DOPC     C39      CEL1    -0.150000       12.0110           0
     15101 MEMB     106      DOPC     H9X      HEL1     0.150000       1.00800           0
     15102 MEMB     106      DOPC     C310     CEL1    -0.150000       12.0110           0
     15103 MEMB     106      DOPC     H10X     HEL1     0.150000       1.00800           0
     15104 MEMB     106      DOPC     C311     CTL2    -0.180000       12.0110           0
     15105 MEMB     106      DOPC     H11X     HAL2     0.900000E-01   1.00800           0
     15106 MEMB     106      DOPC     H11Y     HAL2     0.900000E-01   1.00800           0
     15107 MEMB     106      DOPC     C312     CTL2    -0.180000       12.0110           0
     15108 MEMB     106      DOPC     H12X     HAL2     0.900000E-01   1.00800           0
     15109 MEMB     106      DOPC     H12Y     HAL2     0.900000E-01   1.00800           0
     15110 MEMB     106      DOPC     C313     CTL2    -0.180000       12.0110           0
     15111 MEMB     106      DOPC     H13X     HAL2     0.900000E-01   1.00800           0
     15112 MEMB     106      DOPC     H13Y     HAL2     0.900000E-01   1.00800           0
     15113 MEMB     106      DOPC     C314     CTL2    -0.180000       12.0110           0
     15114 MEMB     106      DOPC     H14X     HAL2     0.900000E-01   1.00800           0
     15115 MEMB     106      DOPC     H14Y     HAL2     0.900000E-01   1.00800           0
     15116 MEMB     106      DOPC     C315     CTL2    -0.180000       12.0110           0
     15117 MEMB     106      DOPC     H15X     HAL2     0.900000E-01   1.00800           0
     15118 MEMB     106      DOPC     H15Y     HAL2     0.900000E-01   1.00800           0
     15119 MEMB     106      DOPC     C316     CTL2    -0.180000       12.0110           0
     15120 MEMB     106      DOPC     H16X     HAL2     0.900000E-01   1.00800           0
     15121 MEMB     106      DOPC     H16Y     HAL2     0.900000E-01   1.00800           0
     15122 MEMB     106      DOPC     C317     CTL2    -0.180000       12.0110           0
     15123 MEMB     106      DOPC     H17X     HAL2     0.900000E-01   1.00800           0
     15124 MEMB     106      DOPC     H17Y     HAL2     0.900000E-01   1.00800           0
     15125 MEMB     106      DOPC     C318     CTL3    -0.270000       12.0110           0
     15126 MEMB     106      DOPC     H18X     HAL3     0.900000E-01   1.00800           0
     15127 MEMB     106      DOPC     H18Y     HAL3     0.900000E-01   1.00800           0
     15128 MEMB     106      DOPC     H18Z     HAL3     0.900000E-01   1.00800           0
     15129 MEMB     107      DOPC     N        NTL     -0.600000       14.0070           0
     15130 MEMB     107      DOPC     C12      CTL2    -0.100000       12.0110           0
     15131 MEMB     107      DOPC     H12A     HL       0.250000       1.00800           0
     15132 MEMB     107      DOPC     H12B     HL       0.250000       1.00800           0
     15133 MEMB     107      DOPC     C13      CTL5    -0.350000       12.0110           0
     15134 MEMB     107      DOPC     H13A     HL       0.250000       1.00800           0
     15135 MEMB     107      DOPC     H13B     HL       0.250000       1.00800           0
     15136 MEMB     107      DOPC     H13C     HL       0.250000       1.00800           0
     15137 MEMB     107      DOPC     C14      CTL5    -0.350000       12.0110           0
     15138 MEMB     107      DOPC     H14A     HL       0.250000       1.00800           0
     15139 MEMB     107      DOPC     H14B     HL       0.250000       1.00800           0
     15140 MEMB     107      DOPC     H14C     HL       0.250000       1.00800           0
     15141 MEMB     107      DOPC     C15      CTL5    -0.350000       12.0110           0
     15142 MEMB     107      DOPC     H15A     HL       0.250000       1.00800           0
     15143 MEMB     107      DOPC     H15B     HL       0.250000       1.00800           0
     15144 MEMB     107      DOPC     H15C     HL       0.250000       1.00800           0
     15145 MEMB     107      DOPC     C11      CTL2    -0.800000E-01   12.0110           0
     15146 MEMB     107      DOPC     H11A     HAL2     0.900000E-01   1.00800           0
     15147 MEMB     107      DOPC     H11B     HAL2     0.900000E-01   1.00800           0
     15148 MEMB     107      DOPC     P        PL        1.50000       30.9740           0
     15149 MEMB     107      DOPC     O13      O2L     -0.780000       15.9994           0
     15150 MEMB     107      DOPC     O14      O2L     -0.780000       15.9994           0
     15151 MEMB     107      DOPC     O12      OSLP    -0.570000       15.9994           0
     15152 MEMB     107      DOPC     O11      OSLP    -0.570000       15.9994           0
     15153 MEMB     107      DOPC     C1       CTL2    -0.800000E-01   12.0110           0
     15154 MEMB     107      DOPC     HA       HAL2     0.900000E-01   1.00800           0
     15155 MEMB     107      DOPC     HB       HAL2     0.900000E-01   1.00800           0
     15156 MEMB     107      DOPC     C2       CTL1     0.170000       12.0110           0
     15157 MEMB     107      DOPC     HS       HAL1     0.900000E-01   1.00800           0
     15158 MEMB     107      DOPC     O21      OSL     -0.490000       15.9994           0
     15159 MEMB     107      DOPC     C21      CL       0.900000       12.0110           0
     15160 MEMB     107      DOPC     O22      OBL     -0.630000       15.9994           0
     15161 MEMB     107      DOPC     C22      CTL2    -0.220000       12.0110           0
     15162 MEMB     107      DOPC     H2R      HAL2     0.900000E-01   1.00800           0
     15163 MEMB     107      DOPC     H2S      HAL2     0.900000E-01   1.00800           0
     15164 MEMB     107      DOPC     C3       CTL2     0.800000E-01   12.0110           0
     15165 MEMB     107      DOPC     HX       HAL2     0.900000E-01   1.00800           0
     15166 MEMB     107      DOPC     HY       HAL2     0.900000E-01   1.00800           0
     15167 MEMB     107      DOPC     O31      OSL     -0.490000       15.9994           0
     15168 MEMB     107      DOPC     C31      CL       0.900000       12.0110           0
     15169 MEMB     107      DOPC     O32      OBL     -0.630000       15.9994           0
     15170 MEMB     107      DOPC     C32      CTL2    -0.220000       12.0110           0
     15171 MEMB     107      DOPC     H2X      HAL2     0.900000E-01   1.00800           0
     15172 MEMB     107      DOPC     H2Y      HAL2     0.900000E-01   1.00800           0
     15173 MEMB     107      DOPC     C23      CTL2    -0.180000       12.0110           0
     15174 MEMB     107      DOPC     H3R      HAL2     0.900000E-01   1.00800           0
     15175 MEMB     107      DOPC     H3S      HAL2     0.900000E-01   1.00800           0
     15176 MEMB     107      DOPC     C24      CTL2    -0.180000       12.0110           0
     15177 MEMB     107      DOPC     H4R      HAL2     0.900000E-01   1.00800           0
     15178 MEMB     107      DOPC     H4S      HAL2     0.900000E-01   1.00800           0
     15179 MEMB     107      DOPC     C25      CTL2    -0.180000       12.0110           0
     15180 MEMB     107      DOPC     H5R      HAL2     0.900000E-01   1.00800           0
     15181 MEMB     107      DOPC     H5S      HAL2     0.900000E-01   1.00800           0
     15182 MEMB     107      DOPC     C26      CTL2    -0.180000       12.0110           0
     15183 MEMB     107      DOPC     H6R      HAL2     0.900000E-01   1.00800           0
     15184 MEMB     107      DOPC     H6S      HAL2     0.900000E-01   1.00800           0
     15185 MEMB     107      DOPC     C27      CTL2    -0.180000       12.0110           0
     15186 MEMB     107      DOPC     H7R      HAL2     0.900000E-01   1.00800           0
     15187 MEMB     107      DOPC     H7S      HAL2     0.900000E-01   1.00800           0
     15188 MEMB     107      DOPC     C28      CTL2    -0.180000       12.0110           0
     15189 MEMB     107      DOPC     H8R      HAL2     0.900000E-01   1.00800           0
     15190 MEMB     107      DOPC     H8S      HAL2     0.900000E-01   1.00800           0
     15191 MEMB     107      DOPC     C29      CEL1    -0.150000       12.0110           0
     15192 MEMB     107      DOPC     H9R      HEL1     0.150000       1.00800           0
     15193 MEMB     107      DOPC     C210     CEL1    -0.150000       12.0110           0
     15194 MEMB     107      DOPC     H10R     HEL1     0.150000       1.00800           0
     15195 MEMB     107      DOPC     C211     CTL2    -0.180000       12.0110           0
     15196 MEMB     107      DOPC     H11R     HAL2     0.900000E-01   1.00800           0
     15197 MEMB     107      DOPC     H11S     HAL2     0.900000E-01   1.00800           0
     15198 MEMB     107      DOPC     C212     CTL2    -0.180000       12.0110           0
     15199 MEMB     107      DOPC     H12R     HAL2     0.900000E-01   1.00800           0
     15200 MEMB     107      DOPC     H12S     HAL2     0.900000E-01   1.00800           0
     15201 MEMB     107      DOPC     C213     CTL2    -0.180000       12.0110           0
     15202 MEMB     107      DOPC     H13R     HAL2     0.900000E-01   1.00800           0
     15203 MEMB     107      DOPC     H13S     HAL2     0.900000E-01   1.00800           0
     15204 MEMB     107      DOPC     C214     CTL2    -0.180000       12.0110           0
     15205 MEMB     107      DOPC     H14R     HAL2     0.900000E-01   1.00800           0
     15206 MEMB     107      DOPC     H14S     HAL2     0.900000E-01   1.00800           0
     15207 MEMB     107      DOPC     C215     CTL2    -0.180000       12.0110           0
     15208 MEMB     107      DOPC     H15R     HAL2     0.900000E-01   1.00800           0
     15209 MEMB     107      DOPC     H15S     HAL2     0.900000E-01   1.00800           0
     15210 MEMB     107      DOPC     C216     CTL2    -0.180000       12.0110           0
     15211 MEMB     107      DOPC     H16R     HAL2     0.900000E-01   1.00800           0
     15212 MEMB     107      DOPC     H16S     HAL2     0.900000E-01   1.00800           0
     15213 MEMB     107      DOPC     C217     CTL2    -0.180000       12.0110           0
     15214 MEMB     107      DOPC     H17R     HAL2     0.900000E-01   1.00800           0
     15215 MEMB     107      DOPC     H17S     HAL2     0.900000E-01   1.00800           0
     15216 MEMB     107      DOPC     C218     CTL3    -0.270000       12.0110           0
     15217 MEMB     107      DOPC     H18R     HAL3     0.900000E-01   1.00800           0
     15218 MEMB     107      DOPC     H18S     HAL3     0.900000E-01   1.00800           0
     15219 MEMB     107      DOPC     H18T     HAL3     0.900000E-01   1.00800           0
     15220 MEMB     107      DOPC     C33      CTL2    -0.180000       12.0110           0
     15221 MEMB     107      DOPC     H3X      HAL2     0.900000E-01   1.00800           0
     15222 MEMB     107      DOPC     H3Y      HAL2     0.900000E-01   1.00800           0
     15223 MEMB     107      DOPC     C34      CTL2    -0.180000       12.0110           0
     15224 MEMB     107      DOPC     H4X      HAL2     0.900000E-01   1.00800           0
     15225 MEMB     107      DOPC     H4Y      HAL2     0.900000E-01   1.00800           0
     15226 MEMB     107      DOPC     C35      CTL2    -0.180000       12.0110           0
     15227 MEMB     107      DOPC     H5X      HAL2     0.900000E-01   1.00800           0
     15228 MEMB     107      DOPC     H5Y      HAL2     0.900000E-01   1.00800           0
     15229 MEMB     107      DOPC     C36      CTL2    -0.180000       12.0110           0
     15230 MEMB     107      DOPC     H6X      HAL2     0.900000E-01   1.00800           0
     15231 MEMB     107      DOPC     H6Y      HAL2     0.900000E-01   1.00800           0
     15232 MEMB     107      DOPC     C37      CTL2    -0.180000       12.0110           0
     15233 MEMB     107      DOPC     H7X      HAL2     0.900000E-01   1.00800           0
     15234 MEMB     107      DOPC     H7Y      HAL2     0.900000E-01   1.00800           0
     15235 MEMB     107      DOPC     C38      CTL2    -0.180000       12.0110           0
     15236 MEMB     107      DOPC     H8X      HAL2     0.900000E-01   1.00800           0
     15237 MEMB     107      DOPC     H8Y      HAL2     0.900000E-01   1.00800           0
     15238 MEMB     107      DOPC     C39      CEL1    -0.150000       12.0110           0
     15239 MEMB     107      DOPC     H9X      HEL1     0.150000       1.00800           0
     15240 MEMB     107      DOPC     C310     CEL1    -0.150000       12.0110           0
     15241 MEMB     107      DOPC     H10X     HEL1     0.150000       1.00800           0
     15242 MEMB     107      DOPC     C311     CTL2    -0.180000       12.0110           0
     15243 MEMB     107      DOPC     H11X     HAL2     0.900000E-01   1.00800           0
     15244 MEMB     107      DOPC     H11Y     HAL2     0.900000E-01   1.00800           0
     15245 MEMB     107      DOPC     C312     CTL2    -0.180000       12.0110           0
     15246 MEMB     107      DOPC     H12X     HAL2     0.900000E-01   1.00800           0
     15247 MEMB     107      DOPC     H12Y     HAL2     0.900000E-01   1.00800           0
     15248 MEMB     107      DOPC     C313     CTL2    -0.180000       12.0110           0
     15249 MEMB     107      DOPC     H13X     HAL2     0.900000E-01   1.00800           0
     15250 MEMB     107      DOPC     H13Y     HAL2     0.900000E-01   1.00800           0
     15251 MEMB     107      DOPC     C314     CTL2    -0.180000       12.0110           0
     15252 MEMB     107      DOPC     H14X     HAL2     0.900000E-01   1.00800           0
     15253 MEMB     107      DOPC     H14Y     HAL2     0.900000E-01   1.00800           0
     15254 MEMB     107      DOPC     C315     CTL2    -0.180000       12.0110           0
     15255 MEMB     107      DOPC     H15X     HAL2     0.900000E-01   1.00800           0
     15256 MEMB     107      DOPC     H15Y     HAL2     0.900000E-01   1.00800           0
     15257 MEMB     107      DOPC     C316     CTL2    -0.180000       12.0110           0
     15258 MEMB     107      DOPC     H16X     HAL2     0.900000E-01   1.00800           0
     15259 MEMB     107      DOPC     H16Y     HAL2     0.900000E-01   1.00800           0
     15260 MEMB     107      DOPC     C317     CTL2    -0.180000       12.0110           0
     15261 MEMB     107      DOPC     H17X     HAL2     0.900000E-01   1.00800           0
     15262 MEMB     107      DOPC     H17Y     HAL2     0.900000E-01   1.00800           0
     15263 MEMB     107      DOPC     C318     CTL3    -0.270000       12.0110           0
     15264 MEMB     107      DOPC     H18X     HAL3     0.900000E-01   1.00800           0
     15265 MEMB     107      DOPC     H18Y     HAL3     0.900000E-01   1.00800           0
     15266 MEMB     107      DOPC     H18Z     HAL3     0.900000E-01   1.00800           0
     15267 MEMB     108      DOPC     N        NTL     -0.600000       14.0070           0
     15268 MEMB     108      DOPC     C12      CTL2    -0.100000       12.0110           0
     15269 MEMB     108      DOPC     H12A     HL       0.250000       1.00800           0
     15270 MEMB     108      DOPC     H12B     HL       0.250000       1.00800           0
     15271 MEMB     108      DOPC     C13      CTL5    -0.350000       12.0110           0
     15272 MEMB     108      DOPC     H13A     HL       0.250000       1.00800           0
     15273 MEMB     108      DOPC     H13B     HL       0.250000       1.00800           0
     15274 MEMB     108      DOPC     H13C     HL       0.250000       1.00800           0
     15275 MEMB     108      DOPC     C14      CTL5    -0.350000       12.0110           0
     15276 MEMB     108      DOPC     H14A     HL       0.250000       1.00800           0
     15277 MEMB     108      DOPC     H14B     HL       0.250000       1.00800           0
     15278 MEMB     108      DOPC     H14C     HL       0.250000       1.00800           0
     15279 MEMB     108      DOPC     C15      CTL5    -0.350000       12.0110           0
     15280 MEMB     108      DOPC     H15A     HL       0.250000       1.00800           0
     15281 MEMB     108      DOPC     H15B     HL       0.250000       1.00800           0
     15282 MEMB     108      DOPC     H15C     HL       0.250000       1.00800           0
     15283 MEMB     108      DOPC     C11      CTL2    -0.800000E-01   12.0110           0
     15284 MEMB     108      DOPC     H11A     HAL2     0.900000E-01   1.00800           0
     15285 MEMB     108      DOPC     H11B     HAL2     0.900000E-01   1.00800           0
     15286 MEMB     108      DOPC     P        PL        1.50000       30.9740           0
     15287 MEMB     108      DOPC     O13      O2L     -0.780000       15.9994           0
     15288 MEMB     108      DOPC     O14      O2L     -0.780000       15.9994           0
     15289 MEMB     108      DOPC     O12      OSLP    -0.570000       15.9994           0
     15290 MEMB     108      DOPC     O11      OSLP    -0.570000       15.9994           0
     15291 MEMB     108      DOPC     C1       CTL2    -0.800000E-01   12.0110           0
     15292 MEMB     108      DOPC     HA       HAL2     0.900000E-01   1.00800           0
     15293 MEMB     108      DOPC     HB       HAL2     0.900000E-01   1.00800           0
     15294 MEMB     108      DOPC     C2       CTL1     0.170000       12.0110           0
     15295 MEMB     108      DOPC     HS       HAL1     0.900000E-01   1.00800           0
     15296 MEMB     108      DOPC     O21      OSL     -0.490000       15.9994           0
     15297 MEMB     108      DOPC     C21      CL       0.900000       12.0110           0
     15298 MEMB     108      DOPC     O22      OBL     -0.630000       15.9994           0
     15299 MEMB     108      DOPC     C22      CTL2    -0.220000       12.0110           0
     15300 MEMB     108      DOPC     H2R      HAL2     0.900000E-01   1.00800           0
     15301 MEMB     108      DOPC     H2S      HAL2     0.900000E-01   1.00800           0
     15302 MEMB     108      DOPC     C3       CTL2     0.800000E-01   12.0110           0
     15303 MEMB     108      DOPC     HX       HAL2     0.900000E-01   1.00800           0
     15304 MEMB     108      DOPC     HY       HAL2     0.900000E-01   1.00800           0
     15305 MEMB     108      DOPC     O31      OSL     -0.490000       15.9994           0
     15306 MEMB     108      DOPC     C31      CL       0.900000       12.0110           0
     15307 MEMB     108      DOPC     O32      OBL     -0.630000       15.9994           0
     15308 MEMB     108      DOPC     C32      CTL2    -0.220000       12.0110           0
     15309 MEMB     108      DOPC     H2X      HAL2     0.900000E-01   1.00800           0
     15310 MEMB     108      DOPC     H2Y      HAL2     0.900000E-01   1.00800           0
     15311 MEMB     108      DOPC     C23      CTL2    -0.180000       12.0110           0
     15312 MEMB     108      DOPC     H3R      HAL2     0.900000E-01   1.00800           0
     15313 MEMB     108      DOPC     H3S      HAL2     0.900000E-01   1.00800           0
     15314 MEMB     108      DOPC     C24      CTL2    -0.180000       12.0110           0
     15315 MEMB     108      DOPC     H4R      HAL2     0.900000E-01   1.00800           0
     15316 MEMB     108      DOPC     H4S      HAL2     0.900000E-01   1.00800           0
     15317 MEMB     108      DOPC     C25      CTL2    -0.180000       12.0110           0
     15318 MEMB     108      DOPC     H5R      HAL2     0.900000E-01   1.00800           0
     15319 MEMB     108      DOPC     H5S      HAL2     0.900000E-01   1.00800           0
     15320 MEMB     108      DOPC     C26      CTL2    -0.180000       12.0110           0
     15321 MEMB     108      DOPC     H6R      HAL2     0.900000E-01   1.00800           0
     15322 MEMB     108      DOPC     H6S      HAL2     0.900000E-01   1.00800           0
     15323 MEMB     108      DOPC     C27      CTL2    -0.180000       12.0110           0
     15324 MEMB     108      DOPC     H7R      HAL2     0.900000E-01   1.00800           0
     15325 MEMB     108      DOPC     H7S      HAL2     0.900000E-01   1.00800           0
     15326 MEMB     108      DOPC     C28      CTL2    -0.180000       12.0110           0
     15327 MEMB     108      DOPC     H8R      HAL2     0.900000E-01   1.00800           0
     15328 MEMB     108      DOPC     H8S      HAL2     0.900000E-01   1.00800           0
     15329 MEMB     108      DOPC     C29      CEL1    -0.150000       12.0110           0
     15330 MEMB     108      DOPC     H9R      HEL1     0.150000       1.00800           0
     15331 MEMB     108      DOPC     C210     CEL1    -0.150000       12.0110           0
     15332 MEMB     108      DOPC     H10R     HEL1     0.150000       1.00800           0
     15333 MEMB     108      DOPC     C211     CTL2    -0.180000       12.0110           0
     15334 MEMB     108      DOPC     H11R     HAL2     0.900000E-01   1.00800           0
     15335 MEMB     108      DOPC     H11S     HAL2     0.900000E-01   1.00800           0
     15336 MEMB     108      DOPC     C212     CTL2    -0.180000       12.0110           0
     15337 MEMB     108      DOPC     H12R     HAL2     0.900000E-01   1.00800           0
     15338 MEMB     108      DOPC     H12S     HAL2     0.900000E-01   1.00800           0
     15339 MEMB     108      DOPC     C213     CTL2    -0.180000       12.0110           0
     15340 MEMB     108      DOPC     H13R     HAL2     0.900000E-01   1.00800           0
     15341 MEMB     108      DOPC     H13S     HAL2     0.900000E-01   1.00800           0
     15342 MEMB     108      DOPC     C214     CTL2    -0.180000       12.0110           0
     15343 MEMB     108      DOPC     H14R     HAL2     0.900000E-01   1.00800           0
     15344 MEMB     108      DOPC     H14S     HAL2     0.900000E-01   1.00800           0
     15345 MEMB     108      DOPC     C215     CTL2    -0.180000       12.0110           0
     15346 MEMB     108      DOPC     H15R     HAL2     0.900000E-01   1.00800           0
     15347 MEMB     108      DOPC     H15S     HAL2     0.900000E-01   1.00800           0
     15348 MEMB     108      DOPC     C216     CTL2    -0.180000       12.0110           0
     15349 MEMB     108      DOPC     H16R     HAL2     0.900000E-01   1.00800           0
     15350 MEMB     108      DOPC     H16S     HAL2     0.900000E-01   1.00800           0
     15351 MEMB     108      DOPC     C217     CTL2    -0.180000       12.0110           0
     15352 MEMB     108      DOPC     H17R     HAL2     0.900000E-01   1.00800           0
     15353 MEMB     108      DOPC     H17S     HAL2     0.900000E-01   1.00800           0
     15354 MEMB     108      DOPC     C218     CTL3    -0.270000       12.0110           0
     15355 MEMB     108      DOPC     H18R     HAL3     0.900000E-01   1.00800           0
     15356 MEMB     108      DOPC     H18S     HAL3     0.900000E-01   1.00800           0
     15357 MEMB     108      DOPC     H18T     HAL3     0.900000E-01   1.00800           0
     15358 MEMB     108      DOPC     C33      CTL2    -0.180000       12.0110           0
     15359 MEMB     108      DOPC     H3X      HAL2     0.900000E-01   1.00800           0
     15360 MEMB     108      DOPC     H3Y      HAL2     0.900000E-01   1.00800           0
     15361 MEMB     108      DOPC     C34      CTL2    -0.180000       12.0110           0
     15362 MEMB     108      DOPC     H4X      HAL2     0.900000E-01   1.00800           0
     15363 MEMB     108      DOPC     H4Y      HAL2     0.900000E-01   1.00800           0
     15364 MEMB     108      DOPC     C35      CTL2    -0.180000       12.0110           0
     15365 MEMB     108      DOPC     H5X      HAL2     0.900000E-01   1.00800           0
     15366 MEMB     108      DOPC     H5Y      HAL2     0.900000E-01   1.00800           0
     15367 MEMB     108      DOPC     C36      CTL2    -0.180000       12.0110           0
     15368 MEMB     108      DOPC     H6X      HAL2     0.900000E-01   1.00800           0
     15369 MEMB     108      DOPC     H6Y      HAL2     0.900000E-01   1.00800           0
     15370 MEMB     108      DOPC     C37      CTL2    -0.180000       12.0110           0
     15371 MEMB     108      DOPC     H7X      HAL2     0.900000E-01   1.00800           0
     15372 MEMB     108      DOPC     H7Y      HAL2     0.900000E-01   1.00800           0
     15373 MEMB     108      DOPC     C38      CTL2    -0.180000       12.0110           0
     15374 MEMB     108      DOPC     H8X      HAL2     0.900000E-01   1.00800           0
     15375 MEMB     108      DOPC     H8Y      HAL2     0.900000E-01   1.00800           0
     15376 MEMB     108      DOPC     C39      CEL1    -0.150000       12.0110           0
     15377 MEMB     108      DOPC     H9X      HEL1     0.150000       1.00800           0
     15378 MEMB     108      DOPC     C310     CEL1    -0.150000       12.0110           0
     15379 MEMB     108      DOPC     H10X     HEL1     0.150000       1.00800           0
     15380 MEMB     108      DOPC     C311     CTL2    -0.180000       12.0110           0
     15381 MEMB     108      DOPC     H11X     HAL2     0.900000E-01   1.00800           0
     15382 MEMB     108      DOPC     H11Y     HAL2     0.900000E-01   1.00800           0
     15383 MEMB     108      DOPC     C312     CTL2    -0.180000       12.0110           0
     15384 MEMB     108      DOPC     H12X     HAL2     0.900000E-01   1.00800           0
     15385 MEMB     108      DOPC     H12Y     HAL2     0.900000E-01   1.00800           0
     15386 MEMB     108      DOPC     C313     CTL2    -0.180000       12.0110           0
     15387 MEMB     108      DOPC     H13X     HAL2     0.900000E-01   1.00800           0
     15388 MEMB     108      DOPC     H13Y     HAL2     0.900000E-01   1.00800           0
     15389 MEMB     108      DOPC     C314     CTL2    -0.180000       12.0110           0
     15390 MEMB     108      DOPC     H14X     HAL2     0.900000E-01   1.00800           0
     15391 MEMB     108      DOPC     H14Y     HAL2     0.900000E-01   1.00800           0
     15392 MEMB     108      DOPC     C315     CTL2    -0.180000       12.0110           0
     15393 MEMB     108      DOPC     H15X     HAL2     0.900000E-01   1.00800           0
     15394 MEMB     108      DOPC     H15Y     HAL2     0.900000E-01   1.00800           0
     15395 MEMB     108      DOPC     C316     CTL2    -0.180000       12.0110           0
     15396 MEMB     108      DOPC     H16X     HAL2     0.900000E-01   1.00800           0
     15397 MEMB     108      DOPC     H16Y     HAL2     0.900000E-01   1.00800           0
     15398 MEMB     108      DOPC     C317     CTL2    -0.180000       12.0110           0
     15399 MEMB     108      DOPC     H17X     HAL2     0.900000E-01   1.00800           0
     15400 MEMB     108      DOPC     H17Y     HAL2     0.900000E-01   1.00800           0
     15401 MEMB     108      DOPC     C318     CTL3    -0.270000       12.0110           0
     15402 MEMB     108      DOPC     H18X     HAL3     0.900000E-01   1.00800           0
     15403 MEMB     108      DOPC     H18Y     HAL3     0.900000E-01   1.00800           0
     15404 MEMB     108      DOPC     H18Z     HAL3     0.900000E-01   1.00800           0
     15405 MEMB     109      DOPC     N        NTL     -0.600000       14.0070           0
     15406 MEMB     109      DOPC     C12      CTL2    -0.100000       12.0110           0
     15407 MEMB     109      DOPC     H12A     HL       0.250000       1.00800           0
     15408 MEMB     109      DOPC     H12B     HL       0.250000       1.00800           0
     15409 MEMB     109      DOPC     C13      CTL5    -0.350000       12.0110           0
     15410 MEMB     109      DOPC     H13A     HL       0.250000       1.00800           0
     15411 MEMB     109      DOPC     H13B     HL       0.250000       1.00800           0
     15412 MEMB     109      DOPC     H13C     HL       0.250000       1.00800           0
     15413 MEMB     109      DOPC     C14      CTL5    -0.350000       12.0110           0
     15414 MEMB     109      DOPC     H14A     HL       0.250000       1.00800           0
     15415 MEMB     109      DOPC     H14B     HL       0.250000       1.00800           0
     15416 MEMB     109      DOPC     H14C     HL       0.250000       1.00800           0
     15417 MEMB     109      DOPC     C15      CTL5    -0.350000       12.0110           0
     15418 MEMB     109      DOPC     H15A     HL       0.250000       1.00800           0
     15419 MEMB     109      DOPC     H15B     HL       0.250000       1.00800           0
     15420 MEMB     109      DOPC     H15C     HL       0.250000       1.00800           0
     15421 MEMB     109      DOPC     C11      CTL2    -0.800000E-01   12.0110           0
     15422 MEMB     109      DOPC     H11A     HAL2     0.900000E-01   1.00800           0
     15423 MEMB     109      DOPC     H11B     HAL2     0.900000E-01   1.00800           0
     15424 MEMB     109      DOPC     P        PL        1.50000       30.9740           0
     15425 MEMB     109      DOPC     O13      O2L     -0.780000       15.9994           0
     15426 MEMB     109      DOPC     O14      O2L     -0.780000       15.9994           0
     15427 MEMB     109      DOPC     O12      OSLP    -0.570000       15.9994           0
     15428 MEMB     109      DOPC     O11      OSLP    -0.570000       15.9994           0
     15429 MEMB     109      DOPC     C1       CTL2    -0.800000E-01   12.0110           0
     15430 MEMB     109      DOPC     HA       HAL2     0.900000E-01   1.00800           0
     15431 MEMB     109      DOPC     HB       HAL2     0.900000E-01   1.00800           0
     15432 MEMB     109      DOPC     C2       CTL1     0.170000       12.0110           0
     15433 MEMB     109      DOPC     HS       HAL1     0.900000E-01   1.00800           0
     15434 MEMB     109      DOPC     O21      OSL     -0.490000       15.9994           0
     15435 MEMB     109      DOPC     C21      CL       0.900000       12.0110           0
     15436 MEMB     109      DOPC     O22      OBL     -0.630000       15.9994           0
     15437 MEMB     109      DOPC     C22      CTL2    -0.220000       12.0110           0
     15438 MEMB     109      DOPC     H2R      HAL2     0.900000E-01   1.00800           0
     15439 MEMB     109      DOPC     H2S      HAL2     0.900000E-01   1.00800           0
     15440 MEMB     109      DOPC     C3       CTL2     0.800000E-01   12.0110           0
     15441 MEMB     109      DOPC     HX       HAL2     0.900000E-01   1.00800           0
     15442 MEMB     109      DOPC     HY       HAL2     0.900000E-01   1.00800           0
     15443 MEMB     109      DOPC     O31      OSL     -0.490000       15.9994           0
     15444 MEMB     109      DOPC     C31      CL       0.900000       12.0110           0
     15445 MEMB     109      DOPC     O32      OBL     -0.630000       15.9994           0
     15446 MEMB     109      DOPC     C32      CTL2    -0.220000       12.0110           0
     15447 MEMB     109      DOPC     H2X      HAL2     0.900000E-01   1.00800           0
     15448 MEMB     109      DOPC     H2Y      HAL2     0.900000E-01   1.00800           0
     15449 MEMB     109      DOPC     C23      CTL2    -0.180000       12.0110           0
     15450 MEMB     109      DOPC     H3R      HAL2     0.900000E-01   1.00800           0
     15451 MEMB     109      DOPC     H3S      HAL2     0.900000E-01   1.00800           0
     15452 MEMB     109      DOPC     C24      CTL2    -0.180000       12.0110           0
     15453 MEMB     109      DOPC     H4R      HAL2     0.900000E-01   1.00800           0
     15454 MEMB     109      DOPC     H4S      HAL2     0.900000E-01   1.00800           0
     15455 MEMB     109      DOPC     C25      CTL2    -0.180000       12.0110           0
     15456 MEMB     109      DOPC     H5R      HAL2     0.900000E-01   1.00800           0
     15457 MEMB     109      DOPC     H5S      HAL2     0.900000E-01   1.00800           0
     15458 MEMB     109      DOPC     C26      CTL2    -0.180000       12.0110           0
     15459 MEMB     109      DOPC     H6R      HAL2     0.900000E-01   1.00800           0
     15460 MEMB     109      DOPC     H6S      HAL2     0.900000E-01   1.00800           0
     15461 MEMB     109      DOPC     C27      CTL2    -0.180000       12.0110           0
     15462 MEMB     109      DOPC     H7R      HAL2     0.900000E-01   1.00800           0
     15463 MEMB     109      DOPC     H7S      HAL2     0.900000E-01   1.00800           0
     15464 MEMB     109      DOPC     C28      CTL2    -0.180000       12.0110           0
     15465 MEMB     109      DOPC     H8R      HAL2     0.900000E-01   1.00800           0
     15466 MEMB     109      DOPC     H8S      HAL2     0.900000E-01   1.00800           0
     15467 MEMB     109      DOPC     C29      CEL1    -0.150000       12.0110           0
     15468 MEMB     109      DOPC     H9R      HEL1     0.150000       1.00800           0
     15469 MEMB     109      DOPC     C210     CEL1    -0.150000       12.0110           0
     15470 MEMB     109      DOPC     H10R     HEL1     0.150000       1.00800           0
     15471 MEMB     109      DOPC     C211     CTL2    -0.180000       12.0110           0
     15472 MEMB     109      DOPC     H11R     HAL2     0.900000E-01   1.00800           0
     15473 MEMB     109      DOPC     H11S     HAL2     0.900000E-01   1.00800           0
     15474 MEMB     109      DOPC     C212     CTL2    -0.180000       12.0110           0
     15475 MEMB     109      DOPC     H12R     HAL2     0.900000E-01   1.00800           0
     15476 MEMB     109      DOPC     H12S     HAL2     0.900000E-01   1.00800           0
     15477 MEMB     109      DOPC     C213     CTL2    -0.180000       12.0110           0
     15478 MEMB     109      DOPC     H13R     HAL2     0.900000E-01   1.00800           0
     15479 MEMB     109      DOPC     H13S     HAL2     0.900000E-01   1.00800           0
     15480 MEMB     109      DOPC     C214     CTL2    -0.180000       12.0110           0
     15481 MEMB     109      DOPC     H14R     HAL2     0.900000E-01   1.00800           0
     15482 MEMB     109      DOPC     H14S     HAL2     0.900000E-01   1.00800           0
     15483 MEMB     109      DOPC     C215     CTL2    -0.180000       12.0110           0
     15484 MEMB     109      DOPC     H15R     HAL2     0.900000E-01   1.00800           0
     15485 MEMB     109      DOPC     H15S     HAL2     0.900000E-01   1.00800           0
     15486 MEMB     109      DOPC     C216     CTL2    -0.180000       12.0110           0
     15487 MEMB     109      DOPC     H16R     HAL2     0.900000E-01   1.00800           0
     15488 MEMB     109      DOPC     H16S     HAL2     0.900000E-01   1.00800           0
     15489 MEMB     109      DOPC     C217     CTL2    -0.180000       12.0110           0
     15490 MEMB     109      DOPC     H17R     HAL2     0.900000E-01   1.00800           0
     15491 MEMB     109      DOPC     H17S     HAL2     0.900000E-01   1.00800           0
     15492 MEMB     109      DOPC     C218     CTL3    -0.270000       12.0110           0
     15493 MEMB     109      DOPC     H18R     HAL3     0.900000E-01   1.00800           0
     15494 MEMB     109      DOPC     H18S     HAL3     0.900000E-01   1.00800           0
     15495 MEMB     109      DOPC     H18T     HAL3     0.900000E-01   1.00800           0
     15496 MEMB     109      DOPC     C33      CTL2    -0.180000       12.0110           0
     15497 MEMB     109      DOPC     H3X      HAL2     0.900000E-01   1.00800           0
     15498 MEMB     109      DOPC     H3Y      HAL2     0.900000E-01   1.00800           0
     15499 MEMB     109      DOPC     C34      CTL2    -0.180000       12.0110           0
     15500 MEMB     109      DOPC     H4X      HAL2     0.900000E-01   1.00800           0
     15501 MEMB     109      DOPC     H4Y      HAL2     0.900000E-01   1.00800           0
     15502 MEMB     109      DOPC     C35      CTL2    -0.180000       12.0110           0
     15503 MEMB     109      DOPC     H5X      HAL2     0.900000E-01   1.00800           0
     15504 MEMB     109      DOPC     H5Y      HAL2     0.900000E-01   1.00800           0
     15505 MEMB     109      DOPC     C36      CTL2    -0.180000       12.0110           0
     15506 MEMB     109      DOPC     H6X      HAL2     0.900000E-01   1.00800           0
     15507 MEMB     109      DOPC     H6Y      HAL2     0.900000E-01   1.00800           0
     15508 MEMB     109      DOPC     C37      CTL2    -0.180000       12.0110           0
     15509 MEMB     109      DOPC     H7X      HAL2     0.900000E-01   1.00800           0
     15510 MEMB     109      DOPC     H7Y      HAL2     0.900000E-01   1.00800           0
     15511 MEMB     109      DOPC     C38      CTL2    -0.180000       12.0110           0
     15512 MEMB     109      DOPC     H8X      HAL2     0.900000E-01   1.00800           0
     15513 MEMB     109      DOPC     H8Y      HAL2     0.900000E-01   1.00800           0
     15514 MEMB     109      DOPC     C39      CEL1    -0.150000       12.0110           0
     15515 MEMB     109      DOPC     H9X      HEL1     0.150000       1.00800           0
     15516 MEMB     109      DOPC     C310     CEL1    -0.150000       12.0110           0
     15517 MEMB     109      DOPC     H10X     HEL1     0.150000       1.00800           0
     15518 MEMB     109      DOPC     C311     CTL2    -0.180000       12.0110           0
     15519 MEMB     109      DOPC     H11X     HAL2     0.900000E-01   1.00800           0
     15520 MEMB     109      DOPC     H11Y     HAL2     0.900000E-01   1.00800           0
     15521 MEMB     109      DOPC     C312     CTL2    -0.180000       12.0110           0
     15522 MEMB     109      DOPC     H12X     HAL2     0.900000E-01   1.00800           0
     15523 MEMB     109      DOPC     H12Y     HAL2     0.900000E-01   1.00800           0
     15524 MEMB     109      DOPC     C313     CTL2    -0.180000       12.0110           0
     15525 MEMB     109      DOPC     H13X     HAL2     0.900000E-01   1.00800           0
     15526 MEMB     109      DOPC     H13Y     HAL2     0.900000E-01   1.00800           0
     15527 MEMB     109      DOPC     C314     CTL2    -0.180000       12.0110           0
     15528 MEMB     109      DOPC     H14X     HAL2     0.900000E-01   1.00800           0
     15529 MEMB     109      DOPC     H14Y     HAL2     0.900000E-01   1.00800           0
     15530 MEMB     109      DOPC     C315     CTL2    -0.180000       12.0110           0
     15531 MEMB     109      DOPC     H15X     HAL2     0.900000E-01   1.00800           0
     15532 MEMB     109      DOPC     H15Y     HAL2     0.900000E-01   1.00800           0
     15533 MEMB     109      DOPC     C316     CTL2    -0.180000       12.0110           0
     15534 MEMB     109      DOPC     H16X     HAL2     0.900000E-01   1.00800           0
     15535 MEMB     109      DOPC     H16Y     HAL2     0.900000E-01   1.00800           0
     15536 MEMB     109      DOPC     C317     CTL2    -0.180000       12.0110           0
     15537 MEMB     109      DOPC     H17X     HAL2     0.900000E-01   1.00800           0
     15538 MEMB     109      DOPC     H17Y     HAL2     0.900000E-01   1.00800           0
     15539 MEMB     109      DOPC     C318     CTL3    -0.270000       12.0110           0
     15540 MEMB     109      DOPC     H18X     HAL3     0.900000E-01   1.00800           0
     15541 MEMB     109      DOPC     H18Y     HAL3     0.900000E-01   1.00800           0
     15542 MEMB     109      DOPC     H18Z     HAL3     0.900000E-01   1.00800           0
     15543 MEMB     110      DOPC     N        NTL     -0.600000       14.0070           0
     15544 MEMB     110      DOPC     C12      CTL2    -0.100000       12.0110           0
     15545 MEMB     110      DOPC     H12A     HL       0.250000       1.00800           0
     15546 MEMB     110      DOPC     H12B     HL       0.250000       1.00800           0
     15547 MEMB     110      DOPC     C13      CTL5    -0.350000       12.0110           0
     15548 MEMB     110      DOPC     H13A     HL       0.250000       1.00800           0
     15549 MEMB     110      DOPC     H13B     HL       0.250000       1.00800           0
     15550 MEMB     110      DOPC     H13C     HL       0.250000       1.00800           0
     15551 MEMB     110      DOPC     C14      CTL5    -0.350000       12.0110           0
     15552 MEMB     110      DOPC     H14A     HL       0.250000       1.00800           0
     15553 MEMB     110      DOPC     H14B     HL       0.250000       1.00800           0
     15554 MEMB     110      DOPC     H14C     HL       0.250000       1.00800           0
     15555 MEMB     110      DOPC     C15      CTL5    -0.350000       12.0110           0
     15556 MEMB     110      DOPC     H15A     HL       0.250000       1.00800           0
     15557 MEMB     110      DOPC     H15B     HL       0.250000       1.00800           0
     15558 MEMB     110      DOPC     H15C     HL       0.250000       1.00800           0
     15559 MEMB     110      DOPC     C11      CTL2    -0.800000E-01   12.0110           0
     15560 MEMB     110      DOPC     H11A     HAL2     0.900000E-01   1.00800           0
     15561 MEMB     110      DOPC     H11B     HAL2     0.900000E-01   1.00800           0
     15562 MEMB     110      DOPC     P        PL        1.50000       30.9740           0
     15563 MEMB     110      DOPC     O13      O2L     -0.780000       15.9994           0
     15564 MEMB     110      DOPC     O14      O2L     -0.780000       15.9994           0
     15565 MEMB     110      DOPC     O12      OSLP    -0.570000       15.9994           0
     15566 MEMB     110      DOPC     O11      OSLP    -0.570000       15.9994           0
     15567 MEMB     110      DOPC     C1       CTL2    -0.800000E-01   12.0110           0
     15568 MEMB     110      DOPC     HA       HAL2     0.900000E-01   1.00800           0
     15569 MEMB     110      DOPC     HB       HAL2     0.900000E-01   1.00800           0
     15570 MEMB     110      DOPC     C2       CTL1     0.170000       12.0110           0
     15571 MEMB     110      DOPC     HS       HAL1     0.900000E-01   1.00800           0
     15572 MEMB     110      DOPC     O21      OSL     -0.490000       15.9994           0
     15573 MEMB     110      DOPC     C21      CL       0.900000       12.0110           0
     15574 MEMB     110      DOPC     O22      OBL     -0.630000       15.9994           0
     15575 MEMB     110      DOPC     C22      CTL2    -0.220000       12.0110           0
     15576 MEMB     110      DOPC     H2R      HAL2     0.900000E-01   1.00800           0
     15577 MEMB     110      DOPC     H2S      HAL2     0.900000E-01   1.00800           0
     15578 MEMB     110      DOPC     C3       CTL2     0.800000E-01   12.0110           0
     15579 MEMB     110      DOPC     HX       HAL2     0.900000E-01   1.00800           0
     15580 MEMB     110      DOPC     HY       HAL2     0.900000E-01   1.00800           0
     15581 MEMB     110      DOPC     O31      OSL     -0.490000       15.9994           0
     15582 MEMB     110      DOPC     C31      CL       0.900000       12.0110           0
     15583 MEMB     110      DOPC     O32      OBL     -0.630000       15.9994           0
     15584 MEMB     110      DOPC     C32      CTL2    -0.220000       12.0110           0
     15585 MEMB     110      DOPC     H2X      HAL2     0.900000E-01   1.00800           0
     15586 MEMB     110      DOPC     H2Y      HAL2     0.900000E-01   1.00800           0
     15587 MEMB     110      DOPC     C23      CTL2    -0.180000       12.0110           0
     15588 MEMB     110      DOPC     H3R      HAL2     0.900000E-01   1.00800           0
     15589 MEMB     110      DOPC     H3S      HAL2     0.900000E-01   1.00800           0
     15590 MEMB     110      DOPC     C24      CTL2    -0.180000       12.0110           0
     15591 MEMB     110      DOPC     H4R      HAL2     0.900000E-01   1.00800           0
     15592 MEMB     110      DOPC     H4S      HAL2     0.900000E-01   1.00800           0
     15593 MEMB     110      DOPC     C25      CTL2    -0.180000       12.0110           0
     15594 MEMB     110      DOPC     H5R      HAL2     0.900000E-01   1.00800           0
     15595 MEMB     110      DOPC     H5S      HAL2     0.900000E-01   1.00800           0
     15596 MEMB     110      DOPC     C26      CTL2    -0.180000       12.0110           0
     15597 MEMB     110      DOPC     H6R      HAL2     0.900000E-01   1.00800           0
     15598 MEMB     110      DOPC     H6S      HAL2     0.900000E-01   1.00800           0
     15599 MEMB     110      DOPC     C27      CTL2    -0.180000       12.0110           0
     15600 MEMB     110      DOPC     H7R      HAL2     0.900000E-01   1.00800           0
     15601 MEMB     110      DOPC     H7S      HAL2     0.900000E-01   1.00800           0
     15602 MEMB     110      DOPC     C28      CTL2    -0.180000       12.0110           0
     15603 MEMB     110      DOPC     H8R      HAL2     0.900000E-01   1.00800           0
     15604 MEMB     110      DOPC     H8S      HAL2     0.900000E-01   1.00800           0
     15605 MEMB     110      DOPC     C29      CEL1    -0.150000       12.0110           0
     15606 MEMB     110      DOPC     H9R      HEL1     0.150000       1.00800           0
     15607 MEMB     110      DOPC     C210     CEL1    -0.150000       12.0110           0
     15608 MEMB     110      DOPC     H10R     HEL1     0.150000       1.00800           0
     15609 MEMB     110      DOPC     C211     CTL2    -0.180000       12.0110           0
     15610 MEMB     110      DOPC     H11R     HAL2     0.900000E-01   1.00800           0
     15611 MEMB     110      DOPC     H11S     HAL2     0.900000E-01   1.00800           0
     15612 MEMB     110      DOPC     C212     CTL2    -0.180000       12.0110           0
     15613 MEMB     110      DOPC     H12R     HAL2     0.900000E-01   1.00800           0
     15614 MEMB     110      DOPC     H12S     HAL2     0.900000E-01   1.00800           0
     15615 MEMB     110      DOPC     C213     CTL2    -0.180000       12.0110           0
     15616 MEMB     110      DOPC     H13R     HAL2     0.900000E-01   1.00800           0
     15617 MEMB     110      DOPC     H13S     HAL2     0.900000E-01   1.00800           0
     15618 MEMB     110      DOPC     C214     CTL2    -0.180000       12.0110           0
     15619 MEMB     110      DOPC     H14R     HAL2     0.900000E-01   1.00800           0
     15620 MEMB     110      DOPC     H14S     HAL2     0.900000E-01   1.00800           0
     15621 MEMB     110      DOPC     C215     CTL2    -0.180000       12.0110           0
     15622 MEMB     110      DOPC     H15R     HAL2     0.900000E-01   1.00800           0
     15623 MEMB     110      DOPC     H15S     HAL2     0.900000E-01   1.00800           0
     15624 MEMB     110      DOPC     C216     CTL2    -0.180000       12.0110           0
     15625 MEMB     110      DOPC     H16R     HAL2     0.900000E-01   1.00800           0
     15626 MEMB     110      DOPC     H16S     HAL2     0.900000E-01   1.00800           0
     15627 MEMB     110      DOPC     C217     CTL2    -0.180000       12.0110           0
     15628 MEMB     110      DOPC     H17R     HAL2     0.900000E-01   1.00800           0
     15629 MEMB     110      DOPC     H17S     HAL2     0.900000E-01   1.00800           0
     15630 MEMB     110      DOPC     C218     CTL3    -0.270000       12.0110           0
     15631 MEMB     110      DOPC     H18R     HAL3     0.900000E-01   1.00800           0
     15632 MEMB     110      DOPC     H18S     HAL3     0.900000E-01   1.00800           0
     15633 MEMB     110      DOPC     H18T     HAL3     0.900000E-01   1.00800           0
     15634 MEMB     110      DOPC     C33      CTL2    -0.180000       12.0110           0
     15635 MEMB     110      DOPC     H3X      HAL2     0.900000E-01   1.00800           0
     15636 MEMB     110      DOPC     H3Y      HAL2     0.900000E-01   1.00800           0
     15637 MEMB     110      DOPC     C34      CTL2    -0.180000       12.0110           0
     15638 MEMB     110      DOPC     H4X      HAL2     0.900000E-01   1.00800           0
     15639 MEMB     110      DOPC     H4Y      HAL2     0.900000E-01   1.00800           0
     15640 MEMB     110      DOPC     C35      CTL2    -0.180000       12.0110           0
     15641 MEMB     110      DOPC     H5X      HAL2     0.900000E-01   1.00800           0
     15642 MEMB     110      DOPC     H5Y      HAL2     0.900000E-01   1.00800           0
     15643 MEMB     110      DOPC     C36      CTL2    -0.180000       12.0110           0
     15644 MEMB     110      DOPC     H6X      HAL2     0.900000E-01   1.00800           0
     15645 MEMB     110      DOPC     H6Y      HAL2     0.900000E-01   1.00800           0
     15646 MEMB     110      DOPC     C37      CTL2    -0.180000       12.0110           0
     15647 MEMB     110      DOPC     H7X      HAL2     0.900000E-01   1.00800           0
     15648 MEMB     110      DOPC     H7Y      HAL2     0.900000E-01   1.00800           0
     15649 MEMB     110      DOPC     C38      CTL2    -0.180000       12.0110           0
     15650 MEMB     110      DOPC     H8X      HAL2     0.900000E-01   1.00800           0
     15651 MEMB     110      DOPC     H8Y      HAL2     0.900000E-01   1.00800           0
     15652 MEMB     110      DOPC     C39      CEL1    -0.150000       12.0110           0
     15653 MEMB     110      DOPC     H9X      HEL1     0.150000       1.00800           0
     15654 MEMB     110      DOPC     C310     CEL1    -0.150000       12.0110           0
     15655 MEMB     110      DOPC     H10X     HEL1     0.150000       1.00800           0
     15656 MEMB     110      DOPC     C311     CTL2    -0.180000       12.0110           0
     15657 MEMB     110      DOPC     H11X     HAL2     0.900000E-01   1.00800           0
     15658 MEMB     110      DOPC     H11Y     HAL2     0.900000E-01   1.00800           0
     15659 MEMB     110      DOPC     C312     CTL2    -0.180000       12.0110           0
     15660 MEMB     110      DOPC     H12X     HAL2     0.900000E-01   1.00800           0
     15661 MEMB     110      DOPC     H12Y     HAL2     0.900000E-01   1.00800           0
     15662 MEMB     110      DOPC     C313     CTL2    -0.180000       12.0110           0
     15663 MEMB     110      DOPC     H13X     HAL2     0.900000E-01   1.00800           0
     15664 MEMB     110      DOPC     H13Y     HAL2     0.900000E-01   1.00800           0
     15665 MEMB     110      DOPC     C314     CTL2    -0.180000       12.0110           0
     15666 MEMB     110      DOPC     H14X     HAL2     0.900000E-01   1.00800           0
     15667 MEMB     110      DOPC     H14Y     HAL2     0.900000E-01   1.00800           0
     15668 MEMB     110      DOPC     C315     CTL2    -0.180000       12.0110           0
     15669 MEMB     110      DOPC     H15X     HAL2     0.900000E-01   1.00800           0
     15670 MEMB     110      DOPC     H15Y     HAL2     0.900000E-01   1.00800           0
     15671 MEMB     110      DOPC     C316     CTL2    -0.180000       12.0110           0
     15672 MEMB     110      DOPC     H16X     HAL2     0.900000E-01   1.00800           0
     15673 MEMB     110      DOPC     H16Y     HAL2     0.900000E-01   1.00800           0
     15674 MEMB     110      DOPC     C317     CTL2    -0.180000       12.0110           0
     15675 MEMB     110      DOPC     H17X     HAL2     0.900000E-01   1.00800           0
     15676 MEMB     110      DOPC     H17Y     HAL2     0.900000E-01   1.00800           0
     15677 MEMB     110      DOPC     C318     CTL3    -0.270000       12.0110           0
     15678 MEMB     110      DOPC     H18X     HAL3     0.900000E-01   1.00800           0
     15679 MEMB     110      DOPC     H18Y     HAL3     0.900000E-01   1.00800           0
     15680 MEMB     110      DOPC     H18Z     HAL3     0.900000E-01   1.00800           0
     15681 MEMB     111      DOPC     N        NTL     -0.600000       14.0070           0
     15682 MEMB     111      DOPC     C12      CTL2    -0.100000       12.0110           0
     15683 MEMB     111      DOPC     H12A     HL       0.250000       1.00800           0
     15684 MEMB     111      DOPC     H12B     HL       0.250000       1.00800           0
     15685 MEMB     111      DOPC     C13      CTL5    -0.350000       12.0110           0
     15686 MEMB     111      DOPC     H13A     HL       0.250000       1.00800           0
     15687 MEMB     111      DOPC     H13B     HL       0.250000       1.00800           0
     15688 MEMB     111      DOPC     H13C     HL       0.250000       1.00800           0
     15689 MEMB     111      DOPC     C14      CTL5    -0.350000       12.0110           0
     15690 MEMB     111      DOPC     H14A     HL       0.250000       1.00800           0
     15691 MEMB     111      DOPC     H14B     HL       0.250000       1.00800           0
     15692 MEMB     111      DOPC     H14C     HL       0.250000       1.00800           0
     15693 MEMB     111      DOPC     C15      CTL5    -0.350000       12.0110           0
     15694 MEMB     111      DOPC     H15A     HL       0.250000       1.00800           0
     15695 MEMB     111      DOPC     H15B     HL       0.250000       1.00800           0
     15696 MEMB     111      DOPC     H15C     HL       0.250000       1.00800           0
     15697 MEMB     111      DOPC     C11      CTL2    -0.800000E-01   12.0110           0
     15698 MEMB     111      DOPC     H11A     HAL2     0.900000E-01   1.00800           0
     15699 MEMB     111      DOPC     H11B     HAL2     0.900000E-01   1.00800           0
     15700 MEMB     111      DOPC     P        PL        1.50000       30.9740           0
     15701 MEMB     111      DOPC     O13      O2L     -0.780000       15.9994           0
     15702 MEMB     111      DOPC     O14      O2L     -0.780000       15.9994           0
     15703 MEMB     111      DOPC     O12      OSLP    -0.570000       15.9994           0
     15704 MEMB     111      DOPC     O11      OSLP    -0.570000       15.9994           0
     15705 MEMB     111      DOPC     C1       CTL2    -0.800000E-01   12.0110           0
     15706 MEMB     111      DOPC     HA       HAL2     0.900000E-01   1.00800           0
     15707 MEMB     111      DOPC     HB       HAL2     0.900000E-01   1.00800           0
     15708 MEMB     111      DOPC     C2       CTL1     0.170000       12.0110           0
     15709 MEMB     111      DOPC     HS       HAL1     0.900000E-01   1.00800           0
     15710 MEMB     111      DOPC     O21      OSL     -0.490000       15.9994           0
     15711 MEMB     111      DOPC     C21      CL       0.900000       12.0110           0
     15712 MEMB     111      DOPC     O22      OBL     -0.630000       15.9994           0
     15713 MEMB     111      DOPC     C22      CTL2    -0.220000       12.0110           0
     15714 MEMB     111      DOPC     H2R      HAL2     0.900000E-01   1.00800           0
     15715 MEMB     111      DOPC     H2S      HAL2     0.900000E-01   1.00800           0
     15716 MEMB     111      DOPC     C3       CTL2     0.800000E-01   12.0110           0
     15717 MEMB     111      DOPC     HX       HAL2     0.900000E-01   1.00800           0
     15718 MEMB     111      DOPC     HY       HAL2     0.900000E-01   1.00800           0
     15719 MEMB     111      DOPC     O31      OSL     -0.490000       15.9994           0
     15720 MEMB     111      DOPC     C31      CL       0.900000       12.0110           0
     15721 MEMB     111      DOPC     O32      OBL     -0.630000       15.9994           0
     15722 MEMB     111      DOPC     C32      CTL2    -0.220000       12.0110           0
     15723 MEMB     111      DOPC     H2X      HAL2     0.900000E-01   1.00800           0
     15724 MEMB     111      DOPC     H2Y      HAL2     0.900000E-01   1.00800           0
     15725 MEMB     111      DOPC     C23      CTL2    -0.180000       12.0110           0
     15726 MEMB     111      DOPC     H3R      HAL2     0.900000E-01   1.00800           0
     15727 MEMB     111      DOPC     H3S      HAL2     0.900000E-01   1.00800           0
     15728 MEMB     111      DOPC     C24      CTL2    -0.180000       12.0110           0
     15729 MEMB     111      DOPC     H4R      HAL2     0.900000E-01   1.00800           0
     15730 MEMB     111      DOPC     H4S      HAL2     0.900000E-01   1.00800           0
     15731 MEMB     111      DOPC     C25      CTL2    -0.180000       12.0110           0
     15732 MEMB     111      DOPC     H5R      HAL2     0.900000E-01   1.00800           0
     15733 MEMB     111      DOPC     H5S      HAL2     0.900000E-01   1.00800           0
     15734 MEMB     111      DOPC     C26      CTL2    -0.180000       12.0110           0
     15735 MEMB     111      DOPC     H6R      HAL2     0.900000E-01   1.00800           0
     15736 MEMB     111      DOPC     H6S      HAL2     0.900000E-01   1.00800           0
     15737 MEMB     111      DOPC     C27      CTL2    -0.180000       12.0110           0
     15738 MEMB     111      DOPC     H7R      HAL2     0.900000E-01   1.00800           0
     15739 MEMB     111      DOPC     H7S      HAL2     0.900000E-01   1.00800           0
     15740 MEMB     111      DOPC     C28      CTL2    -0.180000       12.0110           0
     15741 MEMB     111      DOPC     H8R      HAL2     0.900000E-01   1.00800           0
     15742 MEMB     111      DOPC     H8S      HAL2     0.900000E-01   1.00800           0
     15743 MEMB     111      DOPC     C29      CEL1    -0.150000       12.0110           0
     15744 MEMB     111      DOPC     H9R      HEL1     0.150000       1.00800           0
     15745 MEMB     111      DOPC     C210     CEL1    -0.150000       12.0110           0
     15746 MEMB     111      DOPC     H10R     HEL1     0.150000       1.00800           0
     15747 MEMB     111      DOPC     C211     CTL2    -0.180000       12.0110           0
     15748 MEMB     111      DOPC     H11R     HAL2     0.900000E-01   1.00800           0
     15749 MEMB     111      DOPC     H11S     HAL2     0.900000E-01   1.00800           0
     15750 MEMB     111      DOPC     C212     CTL2    -0.180000       12.0110           0
     15751 MEMB     111      DOPC     H12R     HAL2     0.900000E-01   1.00800           0
     15752 MEMB     111      DOPC     H12S     HAL2     0.900000E-01   1.00800           0
     15753 MEMB     111      DOPC     C213     CTL2    -0.180000       12.0110           0
     15754 MEMB     111      DOPC     H13R     HAL2     0.900000E-01   1.00800           0
     15755 MEMB     111      DOPC     H13S     HAL2     0.900000E-01   1.00800           0
     15756 MEMB     111      DOPC     C214     CTL2    -0.180000       12.0110           0
     15757 MEMB     111      DOPC     H14R     HAL2     0.900000E-01   1.00800           0
     15758 MEMB     111      DOPC     H14S     HAL2     0.900000E-01   1.00800           0
     15759 MEMB     111      DOPC     C215     CTL2    -0.180000       12.0110           0
     15760 MEMB     111      DOPC     H15R     HAL2     0.900000E-01   1.00800           0
     15761 MEMB     111      DOPC     H15S     HAL2     0.900000E-01   1.00800           0
     15762 MEMB     111      DOPC     C216     CTL2    -0.180000       12.0110           0
     15763 MEMB     111      DOPC     H16R     HAL2     0.900000E-01   1.00800           0
     15764 MEMB     111      DOPC     H16S     HAL2     0.900000E-01   1.00800           0
     15765 MEMB     111      DOPC     C217     CTL2    -0.180000       12.0110           0
     15766 MEMB     111      DOPC     H17R     HAL2     0.900000E-01   1.00800           0
     15767 MEMB     111      DOPC     H17S     HAL2     0.900000E-01   1.00800           0
     15768 MEMB     111      DOPC     C218     CTL3    -0.270000       12.0110           0
     15769 MEMB     111      DOPC     H18R     HAL3     0.900000E-01   1.00800           0
     15770 MEMB     111      DOPC     H18S     HAL3     0.900000E-01   1.00800           0
     15771 MEMB     111      DOPC     H18T     HAL3     0.900000E-01   1.00800           0
     15772 MEMB     111      DOPC     C33      CTL2    -0.180000       12.0110           0
     15773 MEMB     111      DOPC     H3X      HAL2     0.900000E-01   1.00800           0
     15774 MEMB     111      DOPC     H3Y      HAL2     0.900000E-01   1.00800           0
     15775 MEMB     111      DOPC     C34      CTL2    -0.180000       12.0110           0
     15776 MEMB     111      DOPC     H4X      HAL2     0.900000E-01   1.00800           0
     15777 MEMB     111      DOPC     H4Y      HAL2     0.900000E-01   1.00800           0
     15778 MEMB     111      DOPC     C35      CTL2    -0.180000       12.0110           0
     15779 MEMB     111      DOPC     H5X      HAL2     0.900000E-01   1.00800           0
     15780 MEMB     111      DOPC     H5Y      HAL2     0.900000E-01   1.00800           0
     15781 MEMB     111      DOPC     C36      CTL2    -0.180000       12.0110           0
     15782 MEMB     111      DOPC     H6X      HAL2     0.900000E-01   1.00800           0
     15783 MEMB     111      DOPC     H6Y      HAL2     0.900000E-01   1.00800           0
     15784 MEMB     111      DOPC     C37      CTL2    -0.180000       12.0110           0
     15785 MEMB     111      DOPC     H7X      HAL2     0.900000E-01   1.00800           0
     15786 MEMB     111      DOPC     H7Y      HAL2     0.900000E-01   1.00800           0
     15787 MEMB     111      DOPC     C38      CTL2    -0.180000       12.0110           0
     15788 MEMB     111      DOPC     H8X      HAL2     0.900000E-01   1.00800           0
     15789 MEMB     111      DOPC     H8Y      HAL2     0.900000E-01   1.00800           0
     15790 MEMB     111      DOPC     C39      CEL1    -0.150000       12.0110           0
     15791 MEMB     111      DOPC     H9X      HEL1     0.150000       1.00800           0
     15792 MEMB     111      DOPC     C310     CEL1    -0.150000       12.0110           0
     15793 MEMB     111      DOPC     H10X     HEL1     0.150000       1.00800           0
     15794 MEMB     111      DOPC     C311     CTL2    -0.180000       12.0110           0
     15795 MEMB     111      DOPC     H11X     HAL2     0.900000E-01   1.00800           0
     15796 MEMB     111      DOPC     H11Y     HAL2     0.900000E-01   1.00800           0
     15797 MEMB     111      DOPC     C312     CTL2    -0.180000       12.0110           0
     15798 MEMB     111      DOPC     H12X     HAL2     0.900000E-01   1.00800           0
     15799 MEMB     111      DOPC     H12Y     HAL2     0.900000E-01   1.00800           0
     15800 MEMB     111      DOPC     C313     CTL2    -0.180000       12.0110           0
     15801 MEMB     111      DOPC     H13X     HAL2     0.900000E-01   1.00800           0
     15802 MEMB     111      DOPC     H13Y     HAL2     0.900000E-01   1.00800           0
     15803 MEMB     111      DOPC     C314     CTL2    -0.180000       12.0110           0
     15804 MEMB     111      DOPC     H14X     HAL2     0.900000E-01   1.00800           0
     15805 MEMB     111      DOPC     H14Y     HAL2     0.900000E-01   1.00800           0
     15806 MEMB     111      DOPC     C315     CTL2    -0.180000       12.0110           0
     15807 MEMB     111      DOPC     H15X     HAL2     0.900000E-01   1.00800           0
     15808 MEMB     111      DOPC     H15Y     HAL2     0.900000E-01   1.00800           0
     15809 MEMB     111      DOPC     C316     CTL2    -0.180000       12.0110           0
     15810 MEMB     111      DOPC     H16X     HAL2     0.900000E-01   1.00800           0
     15811 MEMB     111      DOPC     H16Y     HAL2     0.900000E-01   1.00800           0
     15812 MEMB     111      DOPC     C317     CTL2    -0.180000       12.0110           0
     15813 MEMB     111      DOPC     H17X     HAL2     0.900000E-01   1.00800           0
     15814 MEMB     111      DOPC     H17Y     HAL2     0.900000E-01   1.00800           0
     15815 MEMB     111      DOPC     C318     CTL3    -0.270000       12.0110           0
     15816 MEMB     111      DOPC     H18X     HAL3     0.900000E-01   1.00800           0
     15817 MEMB     111      DOPC     H18Y     HAL3     0.900000E-01   1.00800           0
     15818 MEMB     111      DOPC     H18Z     HAL3     0.900000E-01   1.00800           0
     15819 MEMB     112      DOPC     N        NTL     -0.600000       14.0070           0
     15820 MEMB     112      DOPC     C12      CTL2    -0.100000       12.0110           0
     15821 MEMB     112      DOPC     H12A     HL       0.250000       1.00800           0
     15822 MEMB     112      DOPC     H12B     HL       0.250000       1.00800           0
     15823 MEMB     112      DOPC     C13      CTL5    -0.350000       12.0110           0
     15824 MEMB     112      DOPC     H13A     HL       0.250000       1.00800           0
     15825 MEMB     112      DOPC     H13B     HL       0.250000       1.00800           0
     15826 MEMB     112      DOPC     H13C     HL       0.250000       1.00800           0
     15827 MEMB     112      DOPC     C14      CTL5    -0.350000       12.0110           0
     15828 MEMB     112      DOPC     H14A     HL       0.250000       1.00800           0
     15829 MEMB     112      DOPC     H14B     HL       0.250000       1.00800           0
     15830 MEMB     112      DOPC     H14C     HL       0.250000       1.00800           0
     15831 MEMB     112      DOPC     C15      CTL5    -0.350000       12.0110           0
     15832 MEMB     112      DOPC     H15A     HL       0.250000       1.00800           0
     15833 MEMB     112      DOPC     H15B     HL       0.250000       1.00800           0
     15834 MEMB     112      DOPC     H15C     HL       0.250000       1.00800           0
     15835 MEMB     112      DOPC     C11      CTL2    -0.800000E-01   12.0110           0
     15836 MEMB     112      DOPC     H11A     HAL2     0.900000E-01   1.00800           0
     15837 MEMB     112      DOPC     H11B     HAL2     0.900000E-01   1.00800           0
     15838 MEMB     112      DOPC     P        PL        1.50000       30.9740           0
     15839 MEMB     112      DOPC     O13      O2L     -0.780000       15.9994           0
     15840 MEMB     112      DOPC     O14      O2L     -0.780000       15.9994           0
     15841 MEMB     112      DOPC     O12      OSLP    -0.570000       15.9994           0
     15842 MEMB     112      DOPC     O11      OSLP    -0.570000       15.9994           0
     15843 MEMB     112      DOPC     C1       CTL2    -0.800000E-01   12.0110           0
     15844 MEMB     112      DOPC     HA       HAL2     0.900000E-01   1.00800           0
     15845 MEMB     112      DOPC     HB       HAL2     0.900000E-01   1.00800           0
     15846 MEMB     112      DOPC     C2       CTL1     0.170000       12.0110           0
     15847 MEMB     112      DOPC     HS       HAL1     0.900000E-01   1.00800           0
     15848 MEMB     112      DOPC     O21      OSL     -0.490000       15.9994           0
     15849 MEMB     112      DOPC     C21      CL       0.900000       12.0110           0
     15850 MEMB     112      DOPC     O22      OBL     -0.630000       15.9994           0
     15851 MEMB     112      DOPC     C22      CTL2    -0.220000       12.0110           0
     15852 MEMB     112      DOPC     H2R      HAL2     0.900000E-01   1.00800           0
     15853 MEMB     112      DOPC     H2S      HAL2     0.900000E-01   1.00800           0
     15854 MEMB     112      DOPC     C3       CTL2     0.800000E-01   12.0110           0
     15855 MEMB     112      DOPC     HX       HAL2     0.900000E-01   1.00800           0
     15856 MEMB     112      DOPC     HY       HAL2     0.900000E-01   1.00800           0
     15857 MEMB     112      DOPC     O31      OSL     -0.490000       15.9994           0
     15858 MEMB     112      DOPC     C31      CL       0.900000       12.0110           0
     15859 MEMB     112      DOPC     O32      OBL     -0.630000       15.9994           0
     15860 MEMB     112      DOPC     C32      CTL2    -0.220000       12.0110           0
     15861 MEMB     112      DOPC     H2X      HAL2     0.900000E-01   1.00800           0
     15862 MEMB     112      DOPC     H2Y      HAL2     0.900000E-01   1.00800           0
     15863 MEMB     112      DOPC     C23      CTL2    -0.180000       12.0110           0
     15864 MEMB     112      DOPC     H3R      HAL2     0.900000E-01   1.00800           0
     15865 MEMB     112      DOPC     H3S      HAL2     0.900000E-01   1.00800           0
     15866 MEMB     112      DOPC     C24      CTL2    -0.180000       12.0110           0
     15867 MEMB     112      DOPC     H4R      HAL2     0.900000E-01   1.00800           0
     15868 MEMB     112      DOPC     H4S      HAL2     0.900000E-01   1.00800           0
     15869 MEMB     112      DOPC     C25      CTL2    -0.180000       12.0110           0
     15870 MEMB     112      DOPC     H5R      HAL2     0.900000E-01   1.00800           0
     15871 MEMB     112      DOPC     H5S      HAL2     0.900000E-01   1.00800           0
     15872 MEMB     112      DOPC     C26      CTL2    -0.180000       12.0110           0
     15873 MEMB     112      DOPC     H6R      HAL2     0.900000E-01   1.00800           0
     15874 MEMB     112      DOPC     H6S      HAL2     0.900000E-01   1.00800           0
     15875 MEMB     112      DOPC     C27      CTL2    -0.180000       12.0110           0
     15876 MEMB     112      DOPC     H7R      HAL2     0.900000E-01   1.00800           0
     15877 MEMB     112      DOPC     H7S      HAL2     0.900000E-01   1.00800           0
     15878 MEMB     112      DOPC     C28      CTL2    -0.180000       12.0110           0
     15879 MEMB     112      DOPC     H8R      HAL2     0.900000E-01   1.00800           0
     15880 MEMB     112      DOPC     H8S      HAL2     0.900000E-01   1.00800           0
     15881 MEMB     112      DOPC     C29      CEL1    -0.150000       12.0110           0
     15882 MEMB     112      DOPC     H9R      HEL1     0.150000       1.00800           0
     15883 MEMB     112      DOPC     C210     CEL1    -0.150000       12.0110           0
     15884 MEMB     112      DOPC     H10R     HEL1     0.150000       1.00800           0
     15885 MEMB     112      DOPC     C211     CTL2    -0.180000       12.0110           0
     15886 MEMB     112      DOPC     H11R     HAL2     0.900000E-01   1.00800           0
     15887 MEMB     112      DOPC     H11S     HAL2     0.900000E-01   1.00800           0
     15888 MEMB     112      DOPC     C212     CTL2    -0.180000       12.0110           0
     15889 MEMB     112      DOPC     H12R     HAL2     0.900000E-01   1.00800           0
     15890 MEMB     112      DOPC     H12S     HAL2     0.900000E-01   1.00800           0
     15891 MEMB     112      DOPC     C213     CTL2    -0.180000       12.0110           0
     15892 MEMB     112      DOPC     H13R     HAL2     0.900000E-01   1.00800           0
     15893 MEMB     112      DOPC     H13S     HAL2     0.900000E-01   1.00800           0
     15894 MEMB     112      DOPC     C214     CTL2    -0.180000       12.0110           0
     15895 MEMB     112      DOPC     H14R     HAL2     0.900000E-01   1.00800           0
     15896 MEMB     112      DOPC     H14S     HAL2     0.900000E-01   1.00800           0
     15897 MEMB     112      DOPC     C215     CTL2    -0.180000       12.0110           0
     15898 MEMB     112      DOPC     H15R     HAL2     0.900000E-01   1.00800           0
     15899 MEMB     112      DOPC     H15S     HAL2     0.900000E-01   1.00800           0
     15900 MEMB     112      DOPC     C216     CTL2    -0.180000       12.0110           0
     15901 MEMB     112      DOPC     H16R     HAL2     0.900000E-01   1.00800           0
     15902 MEMB     112      DOPC     H16S     HAL2     0.900000E-01   1.00800           0
     15903 MEMB     112      DOPC     C217     CTL2    -0.180000       12.0110           0
     15904 MEMB     112      DOPC     H17R     HAL2     0.900000E-01   1.00800           0
     15905 MEMB     112      DOPC     H17S     HAL2     0.900000E-01   1.00800           0
     15906 MEMB     112      DOPC     C218     CTL3    -0.270000       12.0110           0
     15907 MEMB     112      DOPC     H18R     HAL3     0.900000E-01   1.00800           0
     15908 MEMB     112      DOPC     H18S     HAL3     0.900000E-01   1.00800           0
     15909 MEMB     112      DOPC     H18T     HAL3     0.900000E-01   1.00800           0
     15910 MEMB     112      DOPC     C33      CTL2    -0.180000       12.0110           0
     15911 MEMB     112      DOPC     H3X      HAL2     0.900000E-01   1.00800           0
     15912 MEMB     112      DOPC     H3Y      HAL2     0.900000E-01   1.00800           0
     15913 MEMB     112      DOPC     C34      CTL2    -0.180000       12.0110           0
     15914 MEMB     112      DOPC     H4X      HAL2     0.900000E-01   1.00800           0
     15915 MEMB     112      DOPC     H4Y      HAL2     0.900000E-01   1.00800           0
     15916 MEMB     112      DOPC     C35      CTL2    -0.180000       12.0110           0
     15917 MEMB     112      DOPC     H5X      HAL2     0.900000E-01   1.00800           0
     15918 MEMB     112      DOPC     H5Y      HAL2     0.900000E-01   1.00800           0
     15919 MEMB     112      DOPC     C36      CTL2    -0.180000       12.0110           0
     15920 MEMB     112      DOPC     H6X      HAL2     0.900000E-01   1.00800           0
     15921 MEMB     112      DOPC     H6Y      HAL2     0.900000E-01   1.00800           0
     15922 MEMB     112      DOPC     C37      CTL2    -0.180000       12.0110           0
     15923 MEMB     112      DOPC     H7X      HAL2     0.900000E-01   1.00800           0
     15924 MEMB     112      DOPC     H7Y      HAL2     0.900000E-01   1.00800           0
     15925 MEMB     112      DOPC     C38      CTL2    -0.180000       12.0110           0
     15926 MEMB     112      DOPC     H8X      HAL2     0.900000E-01   1.00800           0
     15927 MEMB     112      DOPC     H8Y      HAL2     0.900000E-01   1.00800           0
     15928 MEMB     112      DOPC     C39      CEL1    -0.150000       12.0110           0
     15929 MEMB     112      DOPC     H9X      HEL1     0.150000       1.00800           0
     15930 MEMB     112      DOPC     C310     CEL1    -0.150000       12.0110           0
     15931 MEMB     112      DOPC     H10X     HEL1     0.150000       1.00800           0
     15932 MEMB     112      DOPC     C311     CTL2    -0.180000       12.0110           0
     15933 MEMB     112      DOPC     H11X     HAL2     0.900000E-01   1.00800           0
     15934 MEMB     112      DOPC     H11Y     HAL2     0.900000E-01   1.00800           0
     15935 MEMB     112      DOPC     C312     CTL2    -0.180000       12.0110           0
     15936 MEMB     112      DOPC     H12X     HAL2     0.900000E-01   1.00800           0
     15937 MEMB     112      DOPC     H12Y     HAL2     0.900000E-01   1.00800           0
     15938 MEMB     112      DOPC     C313     CTL2    -0.180000       12.0110           0
     15939 MEMB     112      DOPC     H13X     HAL2     0.900000E-01   1.00800           0
     15940 MEMB     112      DOPC     H13Y     HAL2     0.900000E-01   1.00800           0
     15941 MEMB     112      DOPC     C314     CTL2    -0.180000       12.0110           0
     15942 MEMB     112      DOPC     H14X     HAL2     0.900000E-01   1.00800           0
     15943 MEMB     112      DOPC     H14Y     HAL2     0.900000E-01   1.00800           0
     15944 MEMB     112      DOPC     C315     CTL2    -0.180000       12.0110           0
     15945 MEMB     112      DOPC     H15X     HAL2     0.900000E-01   1.00800           0
     15946 MEMB     112      DOPC     H15Y     HAL2     0.900000E-01   1.00800           0
     15947 MEMB     112      DOPC     C316     CTL2    -0.180000       12.0110           0
     15948 MEMB     112      DOPC     H16X     HAL2     0.900000E-01   1.00800           0
     15949 MEMB     112      DOPC     H16Y     HAL2     0.900000E-01   1.00800           0
     15950 MEMB     112      DOPC     C317     CTL2    -0.180000       12.0110           0
     15951 MEMB     112      DOPC     H17X     HAL2     0.900000E-01   1.00800           0
     15952 MEMB     112      DOPC     H17Y     HAL2     0.900000E-01   1.00800           0
     15953 MEMB     112      DOPC     C318     CTL3    -0.270000       12.0110           0
     15954 MEMB     112      DOPC     H18X     HAL3     0.900000E-01   1.00800           0
     15955 MEMB     112      DOPC     H18Y     HAL3     0.900000E-01   1.00800           0
     15956 MEMB     112      DOPC     H18Z     HAL3     0.900000E-01   1.00800           0
     15957 MEMB     113      DOPC     N        NTL     -0.600000       14.0070           0
     15958 MEMB     113      DOPC     C12      CTL2    -0.100000       12.0110           0
     15959 MEMB     113      DOPC     H12A     HL       0.250000       1.00800           0
     15960 MEMB     113      DOPC     H12B     HL       0.250000       1.00800           0
     15961 MEMB     113      DOPC     C13      CTL5    -0.350000       12.0110           0
     15962 MEMB     113      DOPC     H13A     HL       0.250000       1.00800           0
     15963 MEMB     113      DOPC     H13B     HL       0.250000       1.00800           0
     15964 MEMB     113      DOPC     H13C     HL       0.250000       1.00800           0
     15965 MEMB     113      DOPC     C14      CTL5    -0.350000       12.0110           0
     15966 MEMB     113      DOPC     H14A     HL       0.250000       1.00800           0
     15967 MEMB     113      DOPC     H14B     HL       0.250000       1.00800           0
     15968 MEMB     113      DOPC     H14C     HL       0.250000       1.00800           0
     15969 MEMB     113      DOPC     C15      CTL5    -0.350000       12.0110           0
     15970 MEMB     113      DOPC     H15A     HL       0.250000       1.00800           0
     15971 MEMB     113      DOPC     H15B     HL       0.250000       1.00800           0
     15972 MEMB     113      DOPC     H15C     HL       0.250000       1.00800           0
     15973 MEMB     113      DOPC     C11      CTL2    -0.800000E-01   12.0110           0
     15974 MEMB     113      DOPC     H11A     HAL2     0.900000E-01   1.00800           0
     15975 MEMB     113      DOPC     H11B     HAL2     0.900000E-01   1.00800           0
     15976 MEMB     113      DOPC     P        PL        1.50000       30.9740           0
     15977 MEMB     113      DOPC     O13      O2L     -0.780000       15.9994           0
     15978 MEMB     113      DOPC     O14      O2L     -0.780000       15.9994           0
     15979 MEMB     113      DOPC     O12      OSLP    -0.570000       15.9994           0
     15980 MEMB     113      DOPC     O11      OSLP    -0.570000       15.9994           0
     15981 MEMB     113      DOPC     C1       CTL2    -0.800000E-01   12.0110           0
     15982 MEMB     113      DOPC     HA       HAL2     0.900000E-01   1.00800           0
     15983 MEMB     113      DOPC     HB       HAL2     0.900000E-01   1.00800           0
     15984 MEMB     113      DOPC     C2       CTL1     0.170000       12.0110           0
     15985 MEMB     113      DOPC     HS       HAL1     0.900000E-01   1.00800           0
     15986 MEMB     113      DOPC     O21      OSL     -0.490000       15.9994           0
     15987 MEMB     113      DOPC     C21      CL       0.900000       12.0110           0
     15988 MEMB     113      DOPC     O22      OBL     -0.630000       15.9994           0
     15989 MEMB     113      DOPC     C22      CTL2    -0.220000       12.0110           0
     15990 MEMB     113      DOPC     H2R      HAL2     0.900000E-01   1.00800           0
     15991 MEMB     113      DOPC     H2S      HAL2     0.900000E-01   1.00800           0
     15992 MEMB     113      DOPC     C3       CTL2     0.800000E-01   12.0110           0
     15993 MEMB     113      DOPC     HX       HAL2     0.900000E-01   1.00800           0
     15994 MEMB     113      DOPC     HY       HAL2     0.900000E-01   1.00800           0
     15995 MEMB     113      DOPC     O31      OSL     -0.490000       15.9994           0
     15996 MEMB     113      DOPC     C31      CL       0.900000       12.0110           0
     15997 MEMB     113      DOPC     O32      OBL     -0.630000       15.9994           0
     15998 MEMB     113      DOPC     C32      CTL2    -0.220000       12.0110           0
     15999 MEMB     113      DOPC     H2X      HAL2     0.900000E-01   1.00800           0
     16000 MEMB     113      DOPC     H2Y      HAL2     0.900000E-01   1.00800           0
     16001 MEMB     113      DOPC     C23      CTL2    -0.180000       12.0110           0
     16002 MEMB     113      DOPC     H3R      HAL2     0.900000E-01   1.00800           0
     16003 MEMB     113      DOPC     H3S      HAL2     0.900000E-01   1.00800           0
     16004 MEMB     113      DOPC     C24      CTL2    -0.180000       12.0110           0
     16005 MEMB     113      DOPC     H4R      HAL2     0.900000E-01   1.00800           0
     16006 MEMB     113      DOPC     H4S      HAL2     0.900000E-01   1.00800           0
     16007 MEMB     113      DOPC     C25      CTL2    -0.180000       12.0110           0
     16008 MEMB     113      DOPC     H5R      HAL2     0.900000E-01   1.00800           0
     16009 MEMB     113      DOPC     H5S      HAL2     0.900000E-01   1.00800           0
     16010 MEMB     113      DOPC     C26      CTL2    -0.180000       12.0110           0
     16011 MEMB     113      DOPC     H6R      HAL2     0.900000E-01   1.00800           0
     16012 MEMB     113      DOPC     H6S      HAL2     0.900000E-01   1.00800           0
     16013 MEMB     113      DOPC     C27      CTL2    -0.180000       12.0110           0
     16014 MEMB     113      DOPC     H7R      HAL2     0.900000E-01   1.00800           0
     16015 MEMB     113      DOPC     H7S      HAL2     0.900000E-01   1.00800           0
     16016 MEMB     113      DOPC     C28      CTL2    -0.180000       12.0110           0
     16017 MEMB     113      DOPC     H8R      HAL2     0.900000E-01   1.00800           0
     16018 MEMB     113      DOPC     H8S      HAL2     0.900000E-01   1.00800           0
     16019 MEMB     113      DOPC     C29      CEL1    -0.150000       12.0110           0
     16020 MEMB     113      DOPC     H9R      HEL1     0.150000       1.00800           0
     16021 MEMB     113      DOPC     C210     CEL1    -0.150000       12.0110           0
     16022 MEMB     113      DOPC     H10R     HEL1     0.150000       1.00800           0
     16023 MEMB     113      DOPC     C211     CTL2    -0.180000       12.0110           0
     16024 MEMB     113      DOPC     H11R     HAL2     0.900000E-01   1.00800           0
     16025 MEMB     113      DOPC     H11S     HAL2     0.900000E-01   1.00800           0
     16026 MEMB     113      DOPC     C212     CTL2    -0.180000       12.0110           0
     16027 MEMB     113      DOPC     H12R     HAL2     0.900000E-01   1.00800           0
     16028 MEMB     113      DOPC     H12S     HAL2     0.900000E-01   1.00800           0
     16029 MEMB     113      DOPC     C213     CTL2    -0.180000       12.0110           0
     16030 MEMB     113      DOPC     H13R     HAL2     0.900000E-01   1.00800           0
     16031 MEMB     113      DOPC     H13S     HAL2     0.900000E-01   1.00800           0
     16032 MEMB     113      DOPC     C214     CTL2    -0.180000       12.0110           0
     16033 MEMB     113      DOPC     H14R     HAL2     0.900000E-01   1.00800           0
     16034 MEMB     113      DOPC     H14S     HAL2     0.900000E-01   1.00800           0
     16035 MEMB     113      DOPC     C215     CTL2    -0.180000       12.0110           0
     16036 MEMB     113      DOPC     H15R     HAL2     0.900000E-01   1.00800           0
     16037 MEMB     113      DOPC     H15S     HAL2     0.900000E-01   1.00800           0
     16038 MEMB     113      DOPC     C216     CTL2    -0.180000       12.0110           0
     16039 MEMB     113      DOPC     H16R     HAL2     0.900000E-01   1.00800           0
     16040 MEMB     113      DOPC     H16S     HAL2     0.900000E-01   1.00800           0
     16041 MEMB     113      DOPC     C217     CTL2    -0.180000       12.0110           0
     16042 MEMB     113      DOPC     H17R     HAL2     0.900000E-01   1.00800           0
     16043 MEMB     113      DOPC     H17S     HAL2     0.900000E-01   1.00800           0
     16044 MEMB     113      DOPC     C218     CTL3    -0.270000       12.0110           0
     16045 MEMB     113      DOPC     H18R     HAL3     0.900000E-01   1.00800           0
     16046 MEMB     113      DOPC     H18S     HAL3     0.900000E-01   1.00800           0
     16047 MEMB     113      DOPC     H18T     HAL3     0.900000E-01   1.00800           0
     16048 MEMB     113      DOPC     C33      CTL2    -0.180000       12.0110           0
     16049 MEMB     113      DOPC     H3X      HAL2     0.900000E-01   1.00800           0
     16050 MEMB     113      DOPC     H3Y      HAL2     0.900000E-01   1.00800           0
     16051 MEMB     113      DOPC     C34      CTL2    -0.180000       12.0110           0
     16052 MEMB     113      DOPC     H4X      HAL2     0.900000E-01   1.00800           0
     16053 MEMB     113      DOPC     H4Y      HAL2     0.900000E-01   1.00800           0
     16054 MEMB     113      DOPC     C35      CTL2    -0.180000       12.0110           0
     16055 MEMB     113      DOPC     H5X      HAL2     0.900000E-01   1.00800           0
     16056 MEMB     113      DOPC     H5Y      HAL2     0.900000E-01   1.00800           0
     16057 MEMB     113      DOPC     C36      CTL2    -0.180000       12.0110           0
     16058 MEMB     113      DOPC     H6X      HAL2     0.900000E-01   1.00800           0
     16059 MEMB     113      DOPC     H6Y      HAL2     0.900000E-01   1.00800           0
     16060 MEMB     113      DOPC     C37      CTL2    -0.180000       12.0110           0
     16061 MEMB     113      DOPC     H7X      HAL2     0.900000E-01   1.00800           0
     16062 MEMB     113      DOPC     H7Y      HAL2     0.900000E-01   1.00800           0
     16063 MEMB     113      DOPC     C38      CTL2    -0.180000       12.0110           0
     16064 MEMB     113      DOPC     H8X      HAL2     0.900000E-01   1.00800           0
     16065 MEMB     113      DOPC     H8Y      HAL2     0.900000E-01   1.00800           0
     16066 MEMB     113      DOPC     C39      CEL1    -0.150000       12.0110           0
     16067 MEMB     113      DOPC     H9X      HEL1     0.150000       1.00800           0
     16068 MEMB     113      DOPC     C310     CEL1    -0.150000       12.0110           0
     16069 MEMB     113      DOPC     H10X     HEL1     0.150000       1.00800           0
     16070 MEMB     113      DOPC     C311     CTL2    -0.180000       12.0110           0
     16071 MEMB     113      DOPC     H11X     HAL2     0.900000E-01   1.00800           0
     16072 MEMB     113      DOPC     H11Y     HAL2     0.900000E-01   1.00800           0
     16073 MEMB     113      DOPC     C312     CTL2    -0.180000       12.0110           0
     16074 MEMB     113      DOPC     H12X     HAL2     0.900000E-01   1.00800           0
     16075 MEMB     113      DOPC     H12Y     HAL2     0.900000E-01   1.00800           0
     16076 MEMB     113      DOPC     C313     CTL2    -0.180000       12.0110           0
     16077 MEMB     113      DOPC     H13X     HAL2     0.900000E-01   1.00800           0
     16078 MEMB     113      DOPC     H13Y     HAL2     0.900000E-01   1.00800           0
     16079 MEMB     113      DOPC     C314     CTL2    -0.180000       12.0110           0
     16080 MEMB     113      DOPC     H14X     HAL2     0.900000E-01   1.00800           0
     16081 MEMB     113      DOPC     H14Y     HAL2     0.900000E-01   1.00800           0
     16082 MEMB     113      DOPC     C315     CTL2    -0.180000       12.0110           0
     16083 MEMB     113      DOPC     H15X     HAL2     0.900000E-01   1.00800           0
     16084 MEMB     113      DOPC     H15Y     HAL2     0.900000E-01   1.00800           0
     16085 MEMB     113      DOPC     C316     CTL2    -0.180000       12.0110           0
     16086 MEMB     113      DOPC     H16X     HAL2     0.900000E-01   1.00800           0
     16087 MEMB     113      DOPC     H16Y     HAL2     0.900000E-01   1.00800           0
     16088 MEMB     113      DOPC     C317     CTL2    -0.180000       12.0110           0
     16089 MEMB     113      DOPC     H17X     HAL2     0.900000E-01   1.00800           0
     16090 MEMB     113      DOPC     H17Y     HAL2     0.900000E-01   1.00800           0
     16091 MEMB     113      DOPC     C318     CTL3    -0.270000       12.0110           0
     16092 MEMB     113      DOPC     H18X     HAL3     0.900000E-01   1.00800           0
     16093 MEMB     113      DOPC     H18Y     HAL3     0.900000E-01   1.00800           0
     16094 MEMB     113      DOPC     H18Z     HAL3     0.900000E-01   1.00800           0
     16095 MEMB     114      DOPC     N        NTL     -0.600000       14.0070           0
     16096 MEMB     114      DOPC     C12      CTL2    -0.100000       12.0110           0
     16097 MEMB     114      DOPC     H12A     HL       0.250000       1.00800           0
     16098 MEMB     114      DOPC     H12B     HL       0.250000       1.00800           0
     16099 MEMB     114      DOPC     C13      CTL5    -0.350000       12.0110           0
     16100 MEMB     114      DOPC     H13A     HL       0.250000       1.00800           0
     16101 MEMB     114      DOPC     H13B     HL       0.250000       1.00800           0
     16102 MEMB     114      DOPC     H13C     HL       0.250000       1.00800           0
     16103 MEMB     114      DOPC     C14      CTL5    -0.350000       12.0110           0
     16104 MEMB     114      DOPC     H14A     HL       0.250000       1.00800           0
     16105 MEMB     114      DOPC     H14B     HL       0.250000       1.00800           0
     16106 MEMB     114      DOPC     H14C     HL       0.250000       1.00800           0
     16107 MEMB     114      DOPC     C15      CTL5    -0.350000       12.0110           0
     16108 MEMB     114      DOPC     H15A     HL       0.250000       1.00800           0
     16109 MEMB     114      DOPC     H15B     HL       0.250000       1.00800           0
     16110 MEMB     114      DOPC     H15C     HL       0.250000       1.00800           0
     16111 MEMB     114      DOPC     C11      CTL2    -0.800000E-01   12.0110           0
     16112 MEMB     114      DOPC     H11A     HAL2     0.900000E-01   1.00800           0
     16113 MEMB     114      DOPC     H11B     HAL2     0.900000E-01   1.00800           0
     16114 MEMB     114      DOPC     P        PL        1.50000       30.9740           0
     16115 MEMB     114      DOPC     O13      O2L     -0.780000       15.9994           0
     16116 MEMB     114      DOPC     O14      O2L     -0.780000       15.9994           0
     16117 MEMB     114      DOPC     O12      OSLP    -0.570000       15.9994           0
     16118 MEMB     114      DOPC     O11      OSLP    -0.570000       15.9994           0
     16119 MEMB     114      DOPC     C1       CTL2    -0.800000E-01   12.0110           0
     16120 MEMB     114      DOPC     HA       HAL2     0.900000E-01   1.00800           0
     16121 MEMB     114      DOPC     HB       HAL2     0.900000E-01   1.00800           0
     16122 MEMB     114      DOPC     C2       CTL1     0.170000       12.0110           0
     16123 MEMB     114      DOPC     HS       HAL1     0.900000E-01   1.00800           0
     16124 MEMB     114      DOPC     O21      OSL     -0.490000       15.9994           0
     16125 MEMB     114      DOPC     C21      CL       0.900000       12.0110           0
     16126 MEMB     114      DOPC     O22      OBL     -0.630000       15.9994           0
     16127 MEMB     114      DOPC     C22      CTL2    -0.220000       12.0110           0
     16128 MEMB     114      DOPC     H2R      HAL2     0.900000E-01   1.00800           0
     16129 MEMB     114      DOPC     H2S      HAL2     0.900000E-01   1.00800           0
     16130 MEMB     114      DOPC     C3       CTL2     0.800000E-01   12.0110           0
     16131 MEMB     114      DOPC     HX       HAL2     0.900000E-01   1.00800           0
     16132 MEMB     114      DOPC     HY       HAL2     0.900000E-01   1.00800           0
     16133 MEMB     114      DOPC     O31      OSL     -0.490000       15.9994           0
     16134 MEMB     114      DOPC     C31      CL       0.900000       12.0110           0
     16135 MEMB     114      DOPC     O32      OBL     -0.630000       15.9994           0
     16136 MEMB     114      DOPC     C32      CTL2    -0.220000       12.0110           0
     16137 MEMB     114      DOPC     H2X      HAL2     0.900000E-01   1.00800           0
     16138 MEMB     114      DOPC     H2Y      HAL2     0.900000E-01   1.00800           0
     16139 MEMB     114      DOPC     C23      CTL2    -0.180000       12.0110           0
     16140 MEMB     114      DOPC     H3R      HAL2     0.900000E-01   1.00800           0
     16141 MEMB     114      DOPC     H3S      HAL2     0.900000E-01   1.00800           0
     16142 MEMB     114      DOPC     C24      CTL2    -0.180000       12.0110           0
     16143 MEMB     114      DOPC     H4R      HAL2     0.900000E-01   1.00800           0
     16144 MEMB     114      DOPC     H4S      HAL2     0.900000E-01   1.00800           0
     16145 MEMB     114      DOPC     C25      CTL2    -0.180000       12.0110           0
     16146 MEMB     114      DOPC     H5R      HAL2     0.900000E-01   1.00800           0
     16147 MEMB     114      DOPC     H5S      HAL2     0.900000E-01   1.00800           0
     16148 MEMB     114      DOPC     C26      CTL2    -0.180000       12.0110           0
     16149 MEMB     114      DOPC     H6R      HAL2     0.900000E-01   1.00800           0
     16150 MEMB     114      DOPC     H6S      HAL2     0.900000E-01   1.00800           0
     16151 MEMB     114      DOPC     C27      CTL2    -0.180000       12.0110           0
     16152 MEMB     114      DOPC     H7R      HAL2     0.900000E-01   1.00800           0
     16153 MEMB     114      DOPC     H7S      HAL2     0.900000E-01   1.00800           0
     16154 MEMB     114      DOPC     C28      CTL2    -0.180000       12.0110           0
     16155 MEMB     114      DOPC     H8R      HAL2     0.900000E-01   1.00800           0
     16156 MEMB     114      DOPC     H8S      HAL2     0.900000E-01   1.00800           0
     16157 MEMB     114      DOPC     C29      CEL1    -0.150000       12.0110           0
     16158 MEMB     114      DOPC     H9R      HEL1     0.150000       1.00800           0
     16159 MEMB     114      DOPC     C210     CEL1    -0.150000       12.0110           0
     16160 MEMB     114      DOPC     H10R     HEL1     0.150000       1.00800           0
     16161 MEMB     114      DOPC     C211     CTL2    -0.180000       12.0110           0
     16162 MEMB     114      DOPC     H11R     HAL2     0.900000E-01   1.00800           0
     16163 MEMB     114      DOPC     H11S     HAL2     0.900000E-01   1.00800           0
     16164 MEMB     114      DOPC     C212     CTL2    -0.180000       12.0110           0
     16165 MEMB     114      DOPC     H12R     HAL2     0.900000E-01   1.00800           0
     16166 MEMB     114      DOPC     H12S     HAL2     0.900000E-01   1.00800           0
     16167 MEMB     114      DOPC     C213     CTL2    -0.180000       12.0110           0
     16168 MEMB     114      DOPC     H13R     HAL2     0.900000E-01   1.00800           0
     16169 MEMB     114      DOPC     H13S     HAL2     0.900000E-01   1.00800           0
     16170 MEMB     114      DOPC     C214     CTL2    -0.180000       12.0110           0
     16171 MEMB     114      DOPC     H14R     HAL2     0.900000E-01   1.00800           0
     16172 MEMB     114      DOPC     H14S     HAL2     0.900000E-01   1.00800           0
     16173 MEMB     114      DOPC     C215     CTL2    -0.180000       12.0110           0
     16174 MEMB     114      DOPC     H15R     HAL2     0.900000E-01   1.00800           0
     16175 MEMB     114      DOPC     H15S     HAL2     0.900000E-01   1.00800           0
     16176 MEMB     114      DOPC     C216     CTL2    -0.180000       12.0110           0
     16177 MEMB     114      DOPC     H16R     HAL2     0.900000E-01   1.00800           0
     16178 MEMB     114      DOPC     H16S     HAL2     0.900000E-01   1.00800           0
     16179 MEMB     114      DOPC     C217     CTL2    -0.180000       12.0110           0
     16180 MEMB     114      DOPC     H17R     HAL2     0.900000E-01   1.00800           0
     16181 MEMB     114      DOPC     H17S     HAL2     0.900000E-01   1.00800           0
     16182 MEMB     114      DOPC     C218     CTL3    -0.270000       12.0110           0
     16183 MEMB     114      DOPC     H18R     HAL3     0.900000E-01   1.00800           0
     16184 MEMB     114      DOPC     H18S     HAL3     0.900000E-01   1.00800           0
     16185 MEMB     114      DOPC     H18T     HAL3     0.900000E-01   1.00800           0
     16186 MEMB     114      DOPC     C33      CTL2    -0.180000       12.0110           0
     16187 MEMB     114      DOPC     H3X      HAL2     0.900000E-01   1.00800           0
     16188 MEMB     114      DOPC     H3Y      HAL2     0.900000E-01   1.00800           0
     16189 MEMB     114      DOPC     C34      CTL2    -0.180000       12.0110           0
     16190 MEMB     114      DOPC     H4X      HAL2     0.900000E-01   1.00800           0
     16191 MEMB     114      DOPC     H4Y      HAL2     0.900000E-01   1.00800           0
     16192 MEMB     114      DOPC     C35      CTL2    -0.180000       12.0110           0
     16193 MEMB     114      DOPC     H5X      HAL2     0.900000E-01   1.00800           0
     16194 MEMB     114      DOPC     H5Y      HAL2     0.900000E-01   1.00800           0
     16195 MEMB     114      DOPC     C36      CTL2    -0.180000       12.0110           0
     16196 MEMB     114      DOPC     H6X      HAL2     0.900000E-01   1.00800           0
     16197 MEMB     114      DOPC     H6Y      HAL2     0.900000E-01   1.00800           0
     16198 MEMB     114      DOPC     C37      CTL2    -0.180000       12.0110           0
     16199 MEMB     114      DOPC     H7X      HAL2     0.900000E-01   1.00800           0
     16200 MEMB     114      DOPC     H7Y      HAL2     0.900000E-01   1.00800           0
     16201 MEMB     114      DOPC     C38      CTL2    -0.180000       12.0110           0
     16202 MEMB     114      DOPC     H8X      HAL2     0.900000E-01   1.00800           0
     16203 MEMB     114      DOPC     H8Y      HAL2     0.900000E-01   1.00800           0
     16204 MEMB     114      DOPC     C39      CEL1    -0.150000       12.0110           0
     16205 MEMB     114      DOPC     H9X      HEL1     0.150000       1.00800           0
     16206 MEMB     114      DOPC     C310     CEL1    -0.150000       12.0110           0
     16207 MEMB     114      DOPC     H10X     HEL1     0.150000       1.00800           0
     16208 MEMB     114      DOPC     C311     CTL2    -0.180000       12.0110           0
     16209 MEMB     114      DOPC     H11X     HAL2     0.900000E-01   1.00800           0
     16210 MEMB     114      DOPC     H11Y     HAL2     0.900000E-01   1.00800           0
     16211 MEMB     114      DOPC     C312     CTL2    -0.180000       12.0110           0
     16212 MEMB     114      DOPC     H12X     HAL2     0.900000E-01   1.00800           0
     16213 MEMB     114      DOPC     H12Y     HAL2     0.900000E-01   1.00800           0
     16214 MEMB     114      DOPC     C313     CTL2    -0.180000       12.0110           0
     16215 MEMB     114      DOPC     H13X     HAL2     0.900000E-01   1.00800           0
     16216 MEMB     114      DOPC     H13Y     HAL2     0.900000E-01   1.00800           0
     16217 MEMB     114      DOPC     C314     CTL2    -0.180000       12.0110           0
     16218 MEMB     114      DOPC     H14X     HAL2     0.900000E-01   1.00800           0
     16219 MEMB     114      DOPC     H14Y     HAL2     0.900000E-01   1.00800           0
     16220 MEMB     114      DOPC     C315     CTL2    -0.180000       12.0110           0
     16221 MEMB     114      DOPC     H15X     HAL2     0.900000E-01   1.00800           0
     16222 MEMB     114      DOPC     H15Y     HAL2     0.900000E-01   1.00800           0
     16223 MEMB     114      DOPC     C316     CTL2    -0.180000       12.0110           0
     16224 MEMB     114      DOPC     H16X     HAL2     0.900000E-01   1.00800           0
     16225 MEMB     114      DOPC     H16Y     HAL2     0.900000E-01   1.00800           0
     16226 MEMB     114      DOPC     C317     CTL2    -0.180000       12.0110           0
     16227 MEMB     114      DOPC     H17X     HAL2     0.900000E-01   1.00800           0
     16228 MEMB     114      DOPC     H17Y     HAL2     0.900000E-01   1.00800           0
     16229 MEMB     114      DOPC     C318     CTL3    -0.270000       12.0110           0
     16230 MEMB     114      DOPC     H18X     HAL3     0.900000E-01   1.00800           0
     16231 MEMB     114      DOPC     H18Y     HAL3     0.900000E-01   1.00800           0
     16232 MEMB     114      DOPC     H18Z     HAL3     0.900000E-01   1.00800           0
     16233 MEMB     115      DOPC     N        NTL     -0.600000       14.0070           0
     16234 MEMB     115      DOPC     C12      CTL2    -0.100000       12.0110           0
     16235 MEMB     115      DOPC     H12A     HL       0.250000       1.00800           0
     16236 MEMB     115      DOPC     H12B     HL       0.250000       1.00800           0
     16237 MEMB     115      DOPC     C13      CTL5    -0.350000       12.0110           0
     16238 MEMB     115      DOPC     H13A     HL       0.250000       1.00800           0
     16239 MEMB     115      DOPC     H13B     HL       0.250000       1.00800           0
     16240 MEMB     115      DOPC     H13C     HL       0.250000       1.00800           0
     16241 MEMB     115      DOPC     C14      CTL5    -0.350000       12.0110           0
     16242 MEMB     115      DOPC     H14A     HL       0.250000       1.00800           0
     16243 MEMB     115      DOPC     H14B     HL       0.250000       1.00800           0
     16244 MEMB     115      DOPC     H14C     HL       0.250000       1.00800           0
     16245 MEMB     115      DOPC     C15      CTL5    -0.350000       12.0110           0
     16246 MEMB     115      DOPC     H15A     HL       0.250000       1.00800           0
     16247 MEMB     115      DOPC     H15B     HL       0.250000       1.00800           0
     16248 MEMB     115      DOPC     H15C     HL       0.250000       1.00800           0
     16249 MEMB     115      DOPC     C11      CTL2    -0.800000E-01   12.0110           0
     16250 MEMB     115      DOPC     H11A     HAL2     0.900000E-01   1.00800           0
     16251 MEMB     115      DOPC     H11B     HAL2     0.900000E-01   1.00800           0
     16252 MEMB     115      DOPC     P        PL        1.50000       30.9740           0
     16253 MEMB     115      DOPC     O13      O2L     -0.780000       15.9994           0
     16254 MEMB     115      DOPC     O14      O2L     -0.780000       15.9994           0
     16255 MEMB     115      DOPC     O12      OSLP    -0.570000       15.9994           0
     16256 MEMB     115      DOPC     O11      OSLP    -0.570000       15.9994           0
     16257 MEMB     115      DOPC     C1       CTL2    -0.800000E-01   12.0110           0
     16258 MEMB     115      DOPC     HA       HAL2     0.900000E-01   1.00800           0
     16259 MEMB     115      DOPC     HB       HAL2     0.900000E-01   1.00800           0
     16260 MEMB     115      DOPC     C2       CTL1     0.170000       12.0110           0
     16261 MEMB     115      DOPC     HS       HAL1     0.900000E-01   1.00800           0
     16262 MEMB     115      DOPC     O21      OSL     -0.490000       15.9994           0
     16263 MEMB     115      DOPC     C21      CL       0.900000       12.0110           0
     16264 MEMB     115      DOPC     O22      OBL     -0.630000       15.9994           0
     16265 MEMB     115      DOPC     C22      CTL2    -0.220000       12.0110           0
     16266 MEMB     115      DOPC     H2R      HAL2     0.900000E-01   1.00800           0
     16267 MEMB     115      DOPC     H2S      HAL2     0.900000E-01   1.00800           0
     16268 MEMB     115      DOPC     C3       CTL2     0.800000E-01   12.0110           0
     16269 MEMB     115      DOPC     HX       HAL2     0.900000E-01   1.00800           0
     16270 MEMB     115      DOPC     HY       HAL2     0.900000E-01   1.00800           0
     16271 MEMB     115      DOPC     O31      OSL     -0.490000       15.9994           0
     16272 MEMB     115      DOPC     C31      CL       0.900000       12.0110           0
     16273 MEMB     115      DOPC     O32      OBL     -0.630000       15.9994           0
     16274 MEMB     115      DOPC     C32      CTL2    -0.220000       12.0110           0
     16275 MEMB     115      DOPC     H2X      HAL2     0.900000E-01   1.00800           0
     16276 MEMB     115      DOPC     H2Y      HAL2     0.900000E-01   1.00800           0
     16277 MEMB     115      DOPC     C23      CTL2    -0.180000       12.0110           0
     16278 MEMB     115      DOPC     H3R      HAL2     0.900000E-01   1.00800           0
     16279 MEMB     115      DOPC     H3S      HAL2     0.900000E-01   1.00800           0
     16280 MEMB     115      DOPC     C24      CTL2    -0.180000       12.0110           0
     16281 MEMB     115      DOPC     H4R      HAL2     0.900000E-01   1.00800           0
     16282 MEMB     115      DOPC     H4S      HAL2     0.900000E-01   1.00800           0
     16283 MEMB     115      DOPC     C25      CTL2    -0.180000       12.0110           0
     16284 MEMB     115      DOPC     H5R      HAL2     0.900000E-01   1.00800           0
     16285 MEMB     115      DOPC     H5S      HAL2     0.900000E-01   1.00800           0
     16286 MEMB     115      DOPC     C26      CTL2    -0.180000       12.0110           0
     16287 MEMB     115      DOPC     H6R      HAL2     0.900000E-01   1.00800           0
     16288 MEMB     115      DOPC     H6S      HAL2     0.900000E-01   1.00800           0
     16289 MEMB     115      DOPC     C27      CTL2    -0.180000       12.0110           0
     16290 MEMB     115      DOPC     H7R      HAL2     0.900000E-01   1.00800           0
     16291 MEMB     115      DOPC     H7S      HAL2     0.900000E-01   1.00800           0
     16292 MEMB     115      DOPC     C28      CTL2    -0.180000       12.0110           0
     16293 MEMB     115      DOPC     H8R      HAL2     0.900000E-01   1.00800           0
     16294 MEMB     115      DOPC     H8S      HAL2     0.900000E-01   1.00800           0
     16295 MEMB     115      DOPC     C29      CEL1    -0.150000       12.0110           0
     16296 MEMB     115      DOPC     H9R      HEL1     0.150000       1.00800           0
     16297 MEMB     115      DOPC     C210     CEL1    -0.150000       12.0110           0
     16298 MEMB     115      DOPC     H10R     HEL1     0.150000       1.00800           0
     16299 MEMB     115      DOPC     C211     CTL2    -0.180000       12.0110           0
     16300 MEMB     115      DOPC     H11R     HAL2     0.900000E-01   1.00800           0
     16301 MEMB     115      DOPC     H11S     HAL2     0.900000E-01   1.00800           0
     16302 MEMB     115      DOPC     C212     CTL2    -0.180000       12.0110           0
     16303 MEMB     115      DOPC     H12R     HAL2     0.900000E-01   1.00800           0
     16304 MEMB     115      DOPC     H12S     HAL2     0.900000E-01   1.00800           0
     16305 MEMB     115      DOPC     C213     CTL2    -0.180000       12.0110           0
     16306 MEMB     115      DOPC     H13R     HAL2     0.900000E-01   1.00800           0
     16307 MEMB     115      DOPC     H13S     HAL2     0.900000E-01   1.00800           0
     16308 MEMB     115      DOPC     C214     CTL2    -0.180000       12.0110           0
     16309 MEMB     115      DOPC     H14R     HAL2     0.900000E-01   1.00800           0
     16310 MEMB     115      DOPC     H14S     HAL2     0.900000E-01   1.00800           0
     16311 MEMB     115      DOPC     C215     CTL2    -0.180000       12.0110           0
     16312 MEMB     115      DOPC     H15R     HAL2     0.900000E-01   1.00800           0
     16313 MEMB     115      DOPC     H15S     HAL2     0.900000E-01   1.00800           0
     16314 MEMB     115      DOPC     C216     CTL2    -0.180000       12.0110           0
     16315 MEMB     115      DOPC     H16R     HAL2     0.900000E-01   1.00800           0
     16316 MEMB     115      DOPC     H16S     HAL2     0.900000E-01   1.00800           0
     16317 MEMB     115      DOPC     C217     CTL2    -0.180000       12.0110           0
     16318 MEMB     115      DOPC     H17R     HAL2     0.900000E-01   1.00800           0
     16319 MEMB     115      DOPC     H17S     HAL2     0.900000E-01   1.00800           0
     16320 MEMB     115      DOPC     C218     CTL3    -0.270000       12.0110           0
     16321 MEMB     115      DOPC     H18R     HAL3     0.900000E-01   1.00800           0
     16322 MEMB     115      DOPC     H18S     HAL3     0.900000E-01   1.00800           0
     16323 MEMB     115      DOPC     H18T     HAL3     0.900000E-01   1.00800           0
     16324 MEMB     115      DOPC     C33      CTL2    -0.180000       12.0110           0
     16325 MEMB     115      DOPC     H3X      HAL2     0.900000E-01   1.00800           0
     16326 MEMB     115      DOPC     H3Y      HAL2     0.900000E-01   1.00800           0
     16327 MEMB     115      DOPC     C34      CTL2    -0.180000       12.0110           0
     16328 MEMB     115      DOPC     H4X      HAL2     0.900000E-01   1.00800           0
     16329 MEMB     115      DOPC     H4Y      HAL2     0.900000E-01   1.00800           0
     16330 MEMB     115      DOPC     C35      CTL2    -0.180000       12.0110           0
     16331 MEMB     115      DOPC     H5X      HAL2     0.900000E-01   1.00800           0
     16332 MEMB     115      DOPC     H5Y      HAL2     0.900000E-01   1.00800           0
     16333 MEMB     115      DOPC     C36      CTL2    -0.180000       12.0110           0
     16334 MEMB     115      DOPC     H6X      HAL2     0.900000E-01   1.00800           0
     16335 MEMB     115      DOPC     H6Y      HAL2     0.900000E-01   1.00800           0
     16336 MEMB     115      DOPC     C37      CTL2    -0.180000       12.0110           0
     16337 MEMB     115      DOPC     H7X      HAL2     0.900000E-01   1.00800           0
     16338 MEMB     115      DOPC     H7Y      HAL2     0.900000E-01   1.00800           0
     16339 MEMB     115      DOPC     C38      CTL2    -0.180000       12.0110           0
     16340 MEMB     115      DOPC     H8X      HAL2     0.900000E-01   1.00800           0
     16341 MEMB     115      DOPC     H8Y      HAL2     0.900000E-01   1.00800           0
     16342 MEMB     115      DOPC     C39      CEL1    -0.150000       12.0110           0
     16343 MEMB     115      DOPC     H9X      HEL1     0.150000       1.00800           0
     16344 MEMB     115      DOPC     C310     CEL1    -0.150000       12.0110           0
     16345 MEMB     115      DOPC     H10X     HEL1     0.150000       1.00800           0
     16346 MEMB     115      DOPC     C311     CTL2    -0.180000       12.0110           0
     16347 MEMB     115      DOPC     H11X     HAL2     0.900000E-01   1.00800           0
     16348 MEMB     115      DOPC     H11Y     HAL2     0.900000E-01   1.00800           0
     16349 MEMB     115      DOPC     C312     CTL2    -0.180000       12.0110           0
     16350 MEMB     115      DOPC     H12X     HAL2     0.900000E-01   1.00800           0
     16351 MEMB     115      DOPC     H12Y     HAL2     0.900000E-01   1.00800           0
     16352 MEMB     115      DOPC     C313     CTL2    -0.180000       12.0110           0
     16353 MEMB     115      DOPC     H13X     HAL2     0.900000E-01   1.00800           0
     16354 MEMB     115      DOPC     H13Y     HAL2     0.900000E-01   1.00800           0
     16355 MEMB     115      DOPC     C314     CTL2    -0.180000       12.0110           0
     16356 MEMB     115      DOPC     H14X     HAL2     0.900000E-01   1.00800           0
     16357 MEMB     115      DOPC     H14Y     HAL2     0.900000E-01   1.00800           0
     16358 MEMB     115      DOPC     C315     CTL2    -0.180000       12.0110           0
     16359 MEMB     115      DOPC     H15X     HAL2     0.900000E-01   1.00800           0
     16360 MEMB     115      DOPC     H15Y     HAL2     0.900000E-01   1.00800           0
     16361 MEMB     115      DOPC     C316     CTL2    -0.180000       12.0110           0
     16362 MEMB     115      DOPC     H16X     HAL2     0.900000E-01   1.00800           0
     16363 MEMB     115      DOPC     H16Y     HAL2     0.900000E-01   1.00800           0
     16364 MEMB     115      DOPC     C317     CTL2    -0.180000       12.0110           0
     16365 MEMB     115      DOPC     H17X     HAL2     0.900000E-01   1.00800           0
     16366 MEMB     115      DOPC     H17Y     HAL2     0.900000E-01   1.00800           0
     16367 MEMB     115      DOPC     C318     CTL3    -0.270000       12.0110           0
     16368 MEMB     115      DOPC     H18X     HAL3     0.900000E-01   1.00800           0
     16369 MEMB     115      DOPC     H18Y     HAL3     0.900000E-01   1.00800           0
     16370 MEMB     115      DOPC     H18Z     HAL3     0.900000E-01   1.00800           0
     16371 MEMB     116      DOPC     N        NTL     -0.600000       14.0070           0
     16372 MEMB     116      DOPC     C12      CTL2    -0.100000       12.0110           0
     16373 MEMB     116      DOPC     H12A     HL       0.250000       1.00800           0
     16374 MEMB     116      DOPC     H12B     HL       0.250000       1.00800           0
     16375 MEMB     116      DOPC     C13      CTL5    -0.350000       12.0110           0
     16376 MEMB     116      DOPC     H13A     HL       0.250000       1.00800           0
     16377 MEMB     116      DOPC     H13B     HL       0.250000       1.00800           0
     16378 MEMB     116      DOPC     H13C     HL       0.250000       1.00800           0
     16379 MEMB     116      DOPC     C14      CTL5    -0.350000       12.0110           0
     16380 MEMB     116      DOPC     H14A     HL       0.250000       1.00800           0
     16381 MEMB     116      DOPC     H14B     HL       0.250000       1.00800           0
     16382 MEMB     116      DOPC     H14C     HL       0.250000       1.00800           0
     16383 MEMB     116      DOPC     C15      CTL5    -0.350000       12.0110           0
     16384 MEMB     116      DOPC     H15A     HL       0.250000       1.00800           0
     16385 MEMB     116      DOPC     H15B     HL       0.250000       1.00800           0
     16386 MEMB     116      DOPC     H15C     HL       0.250000       1.00800           0
     16387 MEMB     116      DOPC     C11      CTL2    -0.800000E-01   12.0110           0
     16388 MEMB     116      DOPC     H11A     HAL2     0.900000E-01   1.00800           0
     16389 MEMB     116      DOPC     H11B     HAL2     0.900000E-01   1.00800           0
     16390 MEMB     116      DOPC     P        PL        1.50000       30.9740           0
     16391 MEMB     116      DOPC     O13      O2L     -0.780000       15.9994           0
     16392 MEMB     116      DOPC     O14      O2L     -0.780000       15.9994           0
     16393 MEMB     116      DOPC     O12      OSLP    -0.570000       15.9994           0
     16394 MEMB     116      DOPC     O11      OSLP    -0.570000       15.9994           0
     16395 MEMB     116      DOPC     C1       CTL2    -0.800000E-01   12.0110           0
     16396 MEMB     116      DOPC     HA       HAL2     0.900000E-01   1.00800           0
     16397 MEMB     116      DOPC     HB       HAL2     0.900000E-01   1.00800           0
     16398 MEMB     116      DOPC     C2       CTL1     0.170000       12.0110           0
     16399 MEMB     116      DOPC     HS       HAL1     0.900000E-01   1.00800           0
     16400 MEMB     116      DOPC     O21      OSL     -0.490000       15.9994           0
     16401 MEMB     116      DOPC     C21      CL       0.900000       12.0110           0
     16402 MEMB     116      DOPC     O22      OBL     -0.630000       15.9994           0
     16403 MEMB     116      DOPC     C22      CTL2    -0.220000       12.0110           0
     16404 MEMB     116      DOPC     H2R      HAL2     0.900000E-01   1.00800           0
     16405 MEMB     116      DOPC     H2S      HAL2     0.900000E-01   1.00800           0
     16406 MEMB     116      DOPC     C3       CTL2     0.800000E-01   12.0110           0
     16407 MEMB     116      DOPC     HX       HAL2     0.900000E-01   1.00800           0
     16408 MEMB     116      DOPC     HY       HAL2     0.900000E-01   1.00800           0
     16409 MEMB     116      DOPC     O31      OSL     -0.490000       15.9994           0
     16410 MEMB     116      DOPC     C31      CL       0.900000       12.0110           0
     16411 MEMB     116      DOPC     O32      OBL     -0.630000       15.9994           0
     16412 MEMB     116      DOPC     C32      CTL2    -0.220000       12.0110           0
     16413 MEMB     116      DOPC     H2X      HAL2     0.900000E-01   1.00800           0
     16414 MEMB     116      DOPC     H2Y      HAL2     0.900000E-01   1.00800           0
     16415 MEMB     116      DOPC     C23      CTL2    -0.180000       12.0110           0
     16416 MEMB     116      DOPC     H3R      HAL2     0.900000E-01   1.00800           0
     16417 MEMB     116      DOPC     H3S      HAL2     0.900000E-01   1.00800           0
     16418 MEMB     116      DOPC     C24      CTL2    -0.180000       12.0110           0
     16419 MEMB     116      DOPC     H4R      HAL2     0.900000E-01   1.00800           0
     16420 MEMB     116      DOPC     H4S      HAL2     0.900000E-01   1.00800           0
     16421 MEMB     116      DOPC     C25      CTL2    -0.180000       12.0110           0
     16422 MEMB     116      DOPC     H5R      HAL2     0.900000E-01   1.00800           0
     16423 MEMB     116      DOPC     H5S      HAL2     0.900000E-01   1.00800           0
     16424 MEMB     116      DOPC     C26      CTL2    -0.180000       12.0110           0
     16425 MEMB     116      DOPC     H6R      HAL2     0.900000E-01   1.00800           0
     16426 MEMB     116      DOPC     H6S      HAL2     0.900000E-01   1.00800           0
     16427 MEMB     116      DOPC     C27      CTL2    -0.180000       12.0110           0
     16428 MEMB     116      DOPC     H7R      HAL2     0.900000E-01   1.00800           0
     16429 MEMB     116      DOPC     H7S      HAL2     0.900000E-01   1.00800           0
     16430 MEMB     116      DOPC     C28      CTL2    -0.180000       12.0110           0
     16431 MEMB     116      DOPC     H8R      HAL2     0.900000E-01   1.00800           0
     16432 MEMB     116      DOPC     H8S      HAL2     0.900000E-01   1.00800           0
     16433 MEMB     116      DOPC     C29      CEL1    -0.150000       12.0110           0
     16434 MEMB     116      DOPC     H9R      HEL1     0.150000       1.00800           0
     16435 MEMB     116      DOPC     C210     CEL1    -0.150000       12.0110           0
     16436 MEMB     116      DOPC     H10R     HEL1     0.150000       1.00800           0
     16437 MEMB     116      DOPC     C211     CTL2    -0.180000       12.0110           0
     16438 MEMB     116      DOPC     H11R     HAL2     0.900000E-01   1.00800           0
     16439 MEMB     116      DOPC     H11S     HAL2     0.900000E-01   1.00800           0
     16440 MEMB     116      DOPC     C212     CTL2    -0.180000       12.0110           0
     16441 MEMB     116      DOPC     H12R     HAL2     0.900000E-01   1.00800           0
     16442 MEMB     116      DOPC     H12S     HAL2     0.900000E-01   1.00800           0
     16443 MEMB     116      DOPC     C213     CTL2    -0.180000       12.0110           0
     16444 MEMB     116      DOPC     H13R     HAL2     0.900000E-01   1.00800           0
     16445 MEMB     116      DOPC     H13S     HAL2     0.900000E-01   1.00800           0
     16446 MEMB     116      DOPC     C214     CTL2    -0.180000       12.0110           0
     16447 MEMB     116      DOPC     H14R     HAL2     0.900000E-01   1.00800           0
     16448 MEMB     116      DOPC     H14S     HAL2     0.900000E-01   1.00800           0
     16449 MEMB     116      DOPC     C215     CTL2    -0.180000       12.0110           0
     16450 MEMB     116      DOPC     H15R     HAL2     0.900000E-01   1.00800           0
     16451 MEMB     116      DOPC     H15S     HAL2     0.900000E-01   1.00800           0
     16452 MEMB     116      DOPC     C216     CTL2    -0.180000       12.0110           0
     16453 MEMB     116      DOPC     H16R     HAL2     0.900000E-01   1.00800           0
     16454 MEMB     116      DOPC     H16S     HAL2     0.900000E-01   1.00800           0
     16455 MEMB     116      DOPC     C217     CTL2    -0.180000       12.0110           0
     16456 MEMB     116      DOPC     H17R     HAL2     0.900000E-01   1.00800           0
     16457 MEMB     116      DOPC     H17S     HAL2     0.900000E-01   1.00800           0
     16458 MEMB     116      DOPC     C218     CTL3    -0.270000       12.0110           0
     16459 MEMB     116      DOPC     H18R     HAL3     0.900000E-01   1.00800           0
     16460 MEMB     116      DOPC     H18S     HAL3     0.900000E-01   1.00800           0
     16461 MEMB     116      DOPC     H18T     HAL3     0.900000E-01   1.00800           0
     16462 MEMB     116      DOPC     C33      CTL2    -0.180000       12.0110           0
     16463 MEMB     116      DOPC     H3X      HAL2     0.900000E-01   1.00800           0
     16464 MEMB     116      DOPC     H3Y      HAL2     0.900000E-01   1.00800           0
     16465 MEMB     116      DOPC     C34      CTL2    -0.180000       12.0110           0
     16466 MEMB     116      DOPC     H4X      HAL2     0.900000E-01   1.00800           0
     16467 MEMB     116      DOPC     H4Y      HAL2     0.900000E-01   1.00800           0
     16468 MEMB     116      DOPC     C35      CTL2    -0.180000       12.0110           0
     16469 MEMB     116      DOPC     H5X      HAL2     0.900000E-01   1.00800           0
     16470 MEMB     116      DOPC     H5Y      HAL2     0.900000E-01   1.00800           0
     16471 MEMB     116      DOPC     C36      CTL2    -0.180000       12.0110           0
     16472 MEMB     116      DOPC     H6X      HAL2     0.900000E-01   1.00800           0
     16473 MEMB     116      DOPC     H6Y      HAL2     0.900000E-01   1.00800           0
     16474 MEMB     116      DOPC     C37      CTL2    -0.180000       12.0110           0
     16475 MEMB     116      DOPC     H7X      HAL2     0.900000E-01   1.00800           0
     16476 MEMB     116      DOPC     H7Y      HAL2     0.900000E-01   1.00800           0
     16477 MEMB     116      DOPC     C38      CTL2    -0.180000       12.0110           0
     16478 MEMB     116      DOPC     H8X      HAL2     0.900000E-01   1.00800           0
     16479 MEMB     116      DOPC     H8Y      HAL2     0.900000E-01   1.00800           0
     16480 MEMB     116      DOPC     C39      CEL1    -0.150000       12.0110           0
     16481 MEMB     116      DOPC     H9X      HEL1     0.150000       1.00800           0
     16482 MEMB     116      DOPC     C310     CEL1    -0.150000       12.0110           0
     16483 MEMB     116      DOPC     H10X     HEL1     0.150000       1.00800           0
     16484 MEMB     116      DOPC     C311     CTL2    -0.180000       12.0110           0
     16485 MEMB     116      DOPC     H11X     HAL2     0.900000E-01   1.00800           0
     16486 MEMB     116      DOPC     H11Y     HAL2     0.900000E-01   1.00800           0
     16487 MEMB     116      DOPC     C312     CTL2    -0.180000       12.0110           0
     16488 MEMB     116      DOPC     H12X     HAL2     0.900000E-01   1.00800           0
     16489 MEMB     116      DOPC     H12Y     HAL2     0.900000E-01   1.00800           0
     16490 MEMB     116      DOPC     C313     CTL2    -0.180000       12.0110           0
     16491 MEMB     116      DOPC     H13X     HAL2     0.900000E-01   1.00800           0
     16492 MEMB     116      DOPC     H13Y     HAL2     0.900000E-01   1.00800           0
     16493 MEMB     116      DOPC     C314     CTL2    -0.180000       12.0110           0
     16494 MEMB     116      DOPC     H14X     HAL2     0.900000E-01   1.00800           0
     16495 MEMB     116      DOPC     H14Y     HAL2     0.900000E-01   1.00800           0
     16496 MEMB     116      DOPC     C315     CTL2    -0.180000       12.0110           0
     16497 MEMB     116      DOPC     H15X     HAL2     0.900000E-01   1.00800           0
     16498 MEMB     116      DOPC     H15Y     HAL2     0.900000E-01   1.00800           0
     16499 MEMB     116      DOPC     C316     CTL2    -0.180000       12.0110           0
     16500 MEMB     116      DOPC     H16X     HAL2     0.900000E-01   1.00800           0
     16501 MEMB     116      DOPC     H16Y     HAL2     0.900000E-01   1.00800           0
     16502 MEMB     116      DOPC     C317     CTL2    -0.180000       12.0110           0
     16503 MEMB     116      DOPC     H17X     HAL2     0.900000E-01   1.00800           0
     16504 MEMB     116      DOPC     H17Y     HAL2     0.900000E-01   1.00800           0
     16505 MEMB     116      DOPC     C318     CTL3    -0.270000       12.0110           0
     16506 MEMB     116      DOPC     H18X     HAL3     0.900000E-01   1.00800           0
     16507 MEMB     116      DOPC     H18Y     HAL3     0.900000E-01   1.00800           0
     16508 MEMB     116      DOPC     H18Z     HAL3     0.900000E-01   1.00800           0
     16509 MEMB     117      DOPC     N        NTL     -0.600000       14.0070           0
     16510 MEMB     117      DOPC     C12      CTL2    -0.100000       12.0110           0
     16511 MEMB     117      DOPC     H12A     HL       0.250000       1.00800           0
     16512 MEMB     117      DOPC     H12B     HL       0.250000       1.00800           0
     16513 MEMB     117      DOPC     C13      CTL5    -0.350000       12.0110           0
     16514 MEMB     117      DOPC     H13A     HL       0.250000       1.00800           0
     16515 MEMB     117      DOPC     H13B     HL       0.250000       1.00800           0
     16516 MEMB     117      DOPC     H13C     HL       0.250000       1.00800           0
     16517 MEMB     117      DOPC     C14      CTL5    -0.350000       12.0110           0
     16518 MEMB     117      DOPC     H14A     HL       0.250000       1.00800           0
     16519 MEMB     117      DOPC     H14B     HL       0.250000       1.00800           0
     16520 MEMB     117      DOPC     H14C     HL       0.250000       1.00800           0
     16521 MEMB     117      DOPC     C15      CTL5    -0.350000       12.0110           0
     16522 MEMB     117      DOPC     H15A     HL       0.250000       1.00800           0
     16523 MEMB     117      DOPC     H15B     HL       0.250000       1.00800           0
     16524 MEMB     117      DOPC     H15C     HL       0.250000       1.00800           0
     16525 MEMB     117      DOPC     C11      CTL2    -0.800000E-01   12.0110           0
     16526 MEMB     117      DOPC     H11A     HAL2     0.900000E-01   1.00800           0
     16527 MEMB     117      DOPC     H11B     HAL2     0.900000E-01   1.00800           0
     16528 MEMB     117      DOPC     P        PL        1.50000       30.9740           0
     16529 MEMB     117      DOPC     O13      O2L     -0.780000       15.9994           0
     16530 MEMB     117      DOPC     O14      O2L     -0.780000       15.9994           0
     16531 MEMB     117      DOPC     O12      OSLP    -0.570000       15.9994           0
     16532 MEMB     117      DOPC     O11      OSLP    -0.570000       15.9994           0
     16533 MEMB     117      DOPC     C1       CTL2    -0.800000E-01   12.0110           0
     16534 MEMB     117      DOPC     HA       HAL2     0.900000E-01   1.00800           0
     16535 MEMB     117      DOPC     HB       HAL2     0.900000E-01   1.00800           0
     16536 MEMB     117      DOPC     C2       CTL1     0.170000       12.0110           0
     16537 MEMB     117      DOPC     HS       HAL1     0.900000E-01   1.00800           0
     16538 MEMB     117      DOPC     O21      OSL     -0.490000       15.9994           0
     16539 MEMB     117      DOPC     C21      CL       0.900000       12.0110           0
     16540 MEMB     117      DOPC     O22      OBL     -0.630000       15.9994           0
     16541 MEMB     117      DOPC     C22      CTL2    -0.220000       12.0110           0
     16542 MEMB     117      DOPC     H2R      HAL2     0.900000E-01   1.00800           0
     16543 MEMB     117      DOPC     H2S      HAL2     0.900000E-01   1.00800           0
     16544 MEMB     117      DOPC     C3       CTL2     0.800000E-01   12.0110           0
     16545 MEMB     117      DOPC     HX       HAL2     0.900000E-01   1.00800           0
     16546 MEMB     117      DOPC     HY       HAL2     0.900000E-01   1.00800           0
     16547 MEMB     117      DOPC     O31      OSL     -0.490000       15.9994           0
     16548 MEMB     117      DOPC     C31      CL       0.900000       12.0110           0
     16549 MEMB     117      DOPC     O32      OBL     -0.630000       15.9994           0
     16550 MEMB     117      DOPC     C32      CTL2    -0.220000       12.0110           0
     16551 MEMB     117      DOPC     H2X      HAL2     0.900000E-01   1.00800           0
     16552 MEMB     117      DOPC     H2Y      HAL2     0.900000E-01   1.00800           0
     16553 MEMB     117      DOPC     C23      CTL2    -0.180000       12.0110           0
     16554 MEMB     117      DOPC     H3R      HAL2     0.900000E-01   1.00800           0
     16555 MEMB     117      DOPC     H3S      HAL2     0.900000E-01   1.00800           0
     16556 MEMB     117      DOPC     C24      CTL2    -0.180000       12.0110           0
     16557 MEMB     117      DOPC     H4R      HAL2     0.900000E-01   1.00800           0
     16558 MEMB     117      DOPC     H4S      HAL2     0.900000E-01   1.00800           0
     16559 MEMB     117      DOPC     C25      CTL2    -0.180000       12.0110           0
     16560 MEMB     117      DOPC     H5R      HAL2     0.900000E-01   1.00800           0
     16561 MEMB     117      DOPC     H5S      HAL2     0.900000E-01   1.00800           0
     16562 MEMB     117      DOPC     C26      CTL2    -0.180000       12.0110           0
     16563 MEMB     117      DOPC     H6R      HAL2     0.900000E-01   1.00800           0
     16564 MEMB     117      DOPC     H6S      HAL2     0.900000E-01   1.00800           0
     16565 MEMB     117      DOPC     C27      CTL2    -0.180000       12.0110           0
     16566 MEMB     117      DOPC     H7R      HAL2     0.900000E-01   1.00800           0
     16567 MEMB     117      DOPC     H7S      HAL2     0.900000E-01   1.00800           0
     16568 MEMB     117      DOPC     C28      CTL2    -0.180000       12.0110           0
     16569 MEMB     117      DOPC     H8R      HAL2     0.900000E-01   1.00800           0
     16570 MEMB     117      DOPC     H8S      HAL2     0.900000E-01   1.00800           0
     16571 MEMB     117      DOPC     C29      CEL1    -0.150000       12.0110           0
     16572 MEMB     117      DOPC     H9R      HEL1     0.150000       1.00800           0
     16573 MEMB     117      DOPC     C210     CEL1    -0.150000       12.0110           0
     16574 MEMB     117      DOPC     H10R     HEL1     0.150000       1.00800           0
     16575 MEMB     117      DOPC     C211     CTL2    -0.180000       12.0110           0
     16576 MEMB     117      DOPC     H11R     HAL2     0.900000E-01   1.00800           0
     16577 MEMB     117      DOPC     H11S     HAL2     0.900000E-01   1.00800           0
     16578 MEMB     117      DOPC     C212     CTL2    -0.180000       12.0110           0
     16579 MEMB     117      DOPC     H12R     HAL2     0.900000E-01   1.00800           0
     16580 MEMB     117      DOPC     H12S     HAL2     0.900000E-01   1.00800           0
     16581 MEMB     117      DOPC     C213     CTL2    -0.180000       12.0110           0
     16582 MEMB     117      DOPC     H13R     HAL2     0.900000E-01   1.00800           0
     16583 MEMB     117      DOPC     H13S     HAL2     0.900000E-01   1.00800           0
     16584 MEMB     117      DOPC     C214     CTL2    -0.180000       12.0110           0
     16585 MEMB     117      DOPC     H14R     HAL2     0.900000E-01   1.00800           0
     16586 MEMB     117      DOPC     H14S     HAL2     0.900000E-01   1.00800           0
     16587 MEMB     117      DOPC     C215     CTL2    -0.180000       12.0110           0
     16588 MEMB     117      DOPC     H15R     HAL2     0.900000E-01   1.00800           0
     16589 MEMB     117      DOPC     H15S     HAL2     0.900000E-01   1.00800           0
     16590 MEMB     117      DOPC     C216     CTL2    -0.180000       12.0110           0
     16591 MEMB     117      DOPC     H16R     HAL2     0.900000E-01   1.00800           0
     16592 MEMB     117      DOPC     H16S     HAL2     0.900000E-01   1.00800           0
     16593 MEMB     117      DOPC     C217     CTL2    -0.180000       12.0110           0
     16594 MEMB     117      DOPC     H17R     HAL2     0.900000E-01   1.00800           0
     16595 MEMB     117      DOPC     H17S     HAL2     0.900000E-01   1.00800           0
     16596 MEMB     117      DOPC     C218     CTL3    -0.270000       12.0110           0
     16597 MEMB     117      DOPC     H18R     HAL3     0.900000E-01   1.00800           0
     16598 MEMB     117      DOPC     H18S     HAL3     0.900000E-01   1.00800           0
     16599 MEMB     117      DOPC     H18T     HAL3     0.900000E-01   1.00800           0
     16600 MEMB     117      DOPC     C33      CTL2    -0.180000       12.0110           0
     16601 MEMB     117      DOPC     H3X      HAL2     0.900000E-01   1.00800           0
     16602 MEMB     117      DOPC     H3Y      HAL2     0.900000E-01   1.00800           0
     16603 MEMB     117      DOPC     C34      CTL2    -0.180000       12.0110           0
     16604 MEMB     117      DOPC     H4X      HAL2     0.900000E-01   1.00800           0
     16605 MEMB     117      DOPC     H4Y      HAL2     0.900000E-01   1.00800           0
     16606 MEMB     117      DOPC     C35      CTL2    -0.180000       12.0110           0
     16607 MEMB     117      DOPC     H5X      HAL2     0.900000E-01   1.00800           0
     16608 MEMB     117      DOPC     H5Y      HAL2     0.900000E-01   1.00800           0
     16609 MEMB     117      DOPC     C36      CTL2    -0.180000       12.0110           0
     16610 MEMB     117      DOPC     H6X      HAL2     0.900000E-01   1.00800           0
     16611 MEMB     117      DOPC     H6Y      HAL2     0.900000E-01   1.00800           0
     16612 MEMB     117      DOPC     C37      CTL2    -0.180000       12.0110           0
     16613 MEMB     117      DOPC     H7X      HAL2     0.900000E-01   1.00800           0
     16614 MEMB     117      DOPC     H7Y      HAL2     0.900000E-01   1.00800           0
     16615 MEMB     117      DOPC     C38      CTL2    -0.180000       12.0110           0
     16616 MEMB     117      DOPC     H8X      HAL2     0.900000E-01   1.00800           0
     16617 MEMB     117      DOPC     H8Y      HAL2     0.900000E-01   1.00800           0
     16618 MEMB     117      DOPC     C39      CEL1    -0.150000       12.0110           0
     16619 MEMB     117      DOPC     H9X      HEL1     0.150000       1.00800           0
     16620 MEMB     117      DOPC     C310     CEL1    -0.150000       12.0110           0
     16621 MEMB     117      DOPC     H10X     HEL1     0.150000       1.00800           0
     16622 MEMB     117      DOPC     C311     CTL2    -0.180000       12.0110           0
     16623 MEMB     117      DOPC     H11X     HAL2     0.900000E-01   1.00800           0
     16624 MEMB     117      DOPC     H11Y     HAL2     0.900000E-01   1.00800           0
     16625 MEMB     117      DOPC     C312     CTL2    -0.180000       12.0110           0
     16626 MEMB     117      DOPC     H12X     HAL2     0.900000E-01   1.00800           0
     16627 MEMB     117      DOPC     H12Y     HAL2     0.900000E-01   1.00800           0
     16628 MEMB     117      DOPC     C313     CTL2    -0.180000       12.0110           0
     16629 MEMB     117      DOPC     H13X     HAL2     0.900000E-01   1.00800           0
     16630 MEMB     117      DOPC     H13Y     HAL2     0.900000E-01   1.00800           0
     16631 MEMB     117      DOPC     C314     CTL2    -0.180000       12.0110           0
     16632 MEMB     117      DOPC     H14X     HAL2     0.900000E-01   1.00800           0
     16633 MEMB     117      DOPC     H14Y     HAL2     0.900000E-01   1.00800           0
     16634 MEMB     117      DOPC     C315     CTL2    -0.180000       12.0110           0
     16635 MEMB     117      DOPC     H15X     HAL2     0.900000E-01   1.00800           0
     16636 MEMB     117      DOPC     H15Y     HAL2     0.900000E-01   1.00800           0
     16637 MEMB     117      DOPC     C316     CTL2    -0.180000       12.0110           0
     16638 MEMB     117      DOPC     H16X     HAL2     0.900000E-01   1.00800           0
     16639 MEMB     117      DOPC     H16Y     HAL2     0.900000E-01   1.00800           0
     16640 MEMB     117      DOPC     C317     CTL2    -0.180000       12.0110           0
     16641 MEMB     117      DOPC     H17X     HAL2     0.900000E-01   1.00800           0
     16642 MEMB     117      DOPC     H17Y     HAL2     0.900000E-01   1.00800           0
     16643 MEMB     117      DOPC     C318     CTL3    -0.270000       12.0110           0
     16644 MEMB     117      DOPC     H18X     HAL3     0.900000E-01   1.00800           0
     16645 MEMB     117      DOPC     H18Y     HAL3     0.900000E-01   1.00800           0
     16646 MEMB     117      DOPC     H18Z     HAL3     0.900000E-01   1.00800           0
     16647 MEMB     118      DOPC     N        NTL     -0.600000       14.0070           0
     16648 MEMB     118      DOPC     C12      CTL2    -0.100000       12.0110           0
     16649 MEMB     118      DOPC     H12A     HL       0.250000       1.00800           0
     16650 MEMB     118      DOPC     H12B     HL       0.250000       1.00800           0
     16651 MEMB     118      DOPC     C13      CTL5    -0.350000       12.0110           0
     16652 MEMB     118      DOPC     H13A     HL       0.250000       1.00800           0
     16653 MEMB     118      DOPC     H13B     HL       0.250000       1.00800           0
     16654 MEMB     118      DOPC     H13C     HL       0.250000       1.00800           0
     16655 MEMB     118      DOPC     C14      CTL5    -0.350000       12.0110           0
     16656 MEMB     118      DOPC     H14A     HL       0.250000       1.00800           0
     16657 MEMB     118      DOPC     H14B     HL       0.250000       1.00800           0
     16658 MEMB     118      DOPC     H14C     HL       0.250000       1.00800           0
     16659 MEMB     118      DOPC     C15      CTL5    -0.350000       12.0110           0
     16660 MEMB     118      DOPC     H15A     HL       0.250000       1.00800           0
     16661 MEMB     118      DOPC     H15B     HL       0.250000       1.00800           0
     16662 MEMB     118      DOPC     H15C     HL       0.250000       1.00800           0
     16663 MEMB     118      DOPC     C11      CTL2    -0.800000E-01   12.0110           0
     16664 MEMB     118      DOPC     H11A     HAL2     0.900000E-01   1.00800           0
     16665 MEMB     118      DOPC     H11B     HAL2     0.900000E-01   1.00800           0
     16666 MEMB     118      DOPC     P        PL        1.50000       30.9740           0
     16667 MEMB     118      DOPC     O13      O2L     -0.780000       15.9994           0
     16668 MEMB     118      DOPC     O14      O2L     -0.780000       15.9994           0
     16669 MEMB     118      DOPC     O12      OSLP    -0.570000       15.9994           0
     16670 MEMB     118      DOPC     O11      OSLP    -0.570000       15.9994           0
     16671 MEMB     118      DOPC     C1       CTL2    -0.800000E-01   12.0110           0
     16672 MEMB     118      DOPC     HA       HAL2     0.900000E-01   1.00800           0
     16673 MEMB     118      DOPC     HB       HAL2     0.900000E-01   1.00800           0
     16674 MEMB     118      DOPC     C2       CTL1     0.170000       12.0110           0
     16675 MEMB     118      DOPC     HS       HAL1     0.900000E-01   1.00800           0
     16676 MEMB     118      DOPC     O21      OSL     -0.490000       15.9994           0
     16677 MEMB     118      DOPC     C21      CL       0.900000       12.0110           0
     16678 MEMB     118      DOPC     O22      OBL     -0.630000       15.9994           0
     16679 MEMB     118      DOPC     C22      CTL2    -0.220000       12.0110           0
     16680 MEMB     118      DOPC     H2R      HAL2     0.900000E-01   1.00800           0
     16681 MEMB     118      DOPC     H2S      HAL2     0.900000E-01   1.00800           0
     16682 MEMB     118      DOPC     C3       CTL2     0.800000E-01   12.0110           0
     16683 MEMB     118      DOPC     HX       HAL2     0.900000E-01   1.00800           0
     16684 MEMB     118      DOPC     HY       HAL2     0.900000E-01   1.00800           0
     16685 MEMB     118      DOPC     O31      OSL     -0.490000       15.9994           0
     16686 MEMB     118      DOPC     C31      CL       0.900000       12.0110           0
     16687 MEMB     118      DOPC     O32      OBL     -0.630000       15.9994           0
     16688 MEMB     118      DOPC     C32      CTL2    -0.220000       12.0110           0
     16689 MEMB     118      DOPC     H2X      HAL2     0.900000E-01   1.00800           0
     16690 MEMB     118      DOPC     H2Y      HAL2     0.900000E-01   1.00800           0
     16691 MEMB     118      DOPC     C23      CTL2    -0.180000       12.0110           0
     16692 MEMB     118      DOPC     H3R      HAL2     0.900000E-01   1.00800           0
     16693 MEMB     118      DOPC     H3S      HAL2     0.900000E-01   1.00800           0
     16694 MEMB     118      DOPC     C24      CTL2    -0.180000       12.0110           0
     16695 MEMB     118      DOPC     H4R      HAL2     0.900000E-01   1.00800           0
     16696 MEMB     118      DOPC     H4S      HAL2     0.900000E-01   1.00800           0
     16697 MEMB     118      DOPC     C25      CTL2    -0.180000       12.0110           0
     16698 MEMB     118      DOPC     H5R      HAL2     0.900000E-01   1.00800           0
     16699 MEMB     118      DOPC     H5S      HAL2     0.900000E-01   1.00800           0
     16700 MEMB     118      DOPC     C26      CTL2    -0.180000       12.0110           0
     16701 MEMB     118      DOPC     H6R      HAL2     0.900000E-01   1.00800           0
     16702 MEMB     118      DOPC     H6S      HAL2     0.900000E-01   1.00800           0
     16703 MEMB     118      DOPC     C27      CTL2    -0.180000       12.0110           0
     16704 MEMB     118      DOPC     H7R      HAL2     0.900000E-01   1.00800           0
     16705 MEMB     118      DOPC     H7S      HAL2     0.900000E-01   1.00800           0
     16706 MEMB     118      DOPC     C28      CTL2    -0.180000       12.0110           0
     16707 MEMB     118      DOPC     H8R      HAL2     0.900000E-01   1.00800           0
     16708 MEMB     118      DOPC     H8S      HAL2     0.900000E-01   1.00800           0
     16709 MEMB     118      DOPC     C29      CEL1    -0.150000       12.0110           0
     16710 MEMB     118      DOPC     H9R      HEL1     0.150000       1.00800           0
     16711 MEMB     118      DOPC     C210     CEL1    -0.150000       12.0110           0
     16712 MEMB     118      DOPC     H10R     HEL1     0.150000       1.00800           0
     16713 MEMB     118      DOPC     C211     CTL2    -0.180000       12.0110           0
     16714 MEMB     118      DOPC     H11R     HAL2     0.900000E-01   1.00800           0
     16715 MEMB     118      DOPC     H11S     HAL2     0.900000E-01   1.00800           0
     16716 MEMB     118      DOPC     C212     CTL2    -0.180000       12.0110           0
     16717 MEMB     118      DOPC     H12R     HAL2     0.900000E-01   1.00800           0
     16718 MEMB     118      DOPC     H12S     HAL2     0.900000E-01   1.00800           0
     16719 MEMB     118      DOPC     C213     CTL2    -0.180000       12.0110           0
     16720 MEMB     118      DOPC     H13R     HAL2     0.900000E-01   1.00800           0
     16721 MEMB     118      DOPC     H13S     HAL2     0.900000E-01   1.00800           0
     16722 MEMB     118      DOPC     C214     CTL2    -0.180000       12.0110           0
     16723 MEMB     118      DOPC     H14R     HAL2     0.900000E-01   1.00800           0
     16724 MEMB     118      DOPC     H14S     HAL2     0.900000E-01   1.00800           0
     16725 MEMB     118      DOPC     C215     CTL2    -0.180000       12.0110           0
     16726 MEMB     118      DOPC     H15R     HAL2     0.900000E-01   1.00800           0
     16727 MEMB     118      DOPC     H15S     HAL2     0.900000E-01   1.00800           0
     16728 MEMB     118      DOPC     C216     CTL2    -0.180000       12.0110           0
     16729 MEMB     118      DOPC     H16R     HAL2     0.900000E-01   1.00800           0
     16730 MEMB     118      DOPC     H16S     HAL2     0.900000E-01   1.00800           0
     16731 MEMB     118      DOPC     C217     CTL2    -0.180000       12.0110           0
     16732 MEMB     118      DOPC     H17R     HAL2     0.900000E-01   1.00800           0
     16733 MEMB     118      DOPC     H17S     HAL2     0.900000E-01   1.00800           0
     16734 MEMB     118      DOPC     C218     CTL3    -0.270000       12.0110           0
     16735 MEMB     118      DOPC     H18R     HAL3     0.900000E-01   1.00800           0
     16736 MEMB     118      DOPC     H18S     HAL3     0.900000E-01   1.00800           0
     16737 MEMB     118      DOPC     H18T     HAL3     0.900000E-01   1.00800           0
     16738 MEMB     118      DOPC     C33      CTL2    -0.180000       12.0110           0
     16739 MEMB     118      DOPC     H3X      HAL2     0.900000E-01   1.00800           0
     16740 MEMB     118      DOPC     H3Y      HAL2     0.900000E-01   1.00800           0
     16741 MEMB     118      DOPC     C34      CTL2    -0.180000       12.0110           0
     16742 MEMB     118      DOPC     H4X      HAL2     0.900000E-01   1.00800           0
     16743 MEMB     118      DOPC     H4Y      HAL2     0.900000E-01   1.00800           0
     16744 MEMB     118      DOPC     C35      CTL2    -0.180000       12.0110           0
     16745 MEMB     118      DOPC     H5X      HAL2     0.900000E-01   1.00800           0
     16746 MEMB     118      DOPC     H5Y      HAL2     0.900000E-01   1.00800           0
     16747 MEMB     118      DOPC     C36      CTL2    -0.180000       12.0110           0
     16748 MEMB     118      DOPC     H6X      HAL2     0.900000E-01   1.00800           0
     16749 MEMB     118      DOPC     H6Y      HAL2     0.900000E-01   1.00800           0
     16750 MEMB     118      DOPC     C37      CTL2    -0.180000       12.0110           0
     16751 MEMB     118      DOPC     H7X      HAL2     0.900000E-01   1.00800           0
     16752 MEMB     118      DOPC     H7Y      HAL2     0.900000E-01   1.00800           0
     16753 MEMB     118      DOPC     C38      CTL2    -0.180000       12.0110           0
     16754 MEMB     118      DOPC     H8X      HAL2     0.900000E-01   1.00800           0
     16755 MEMB     118      DOPC     H8Y      HAL2     0.900000E-01   1.00800           0
     16756 MEMB     118      DOPC     C39      CEL1    -0.150000       12.0110           0
     16757 MEMB     118      DOPC     H9X      HEL1     0.150000       1.00800           0
     16758 MEMB     118      DOPC     C310     CEL1    -0.150000       12.0110           0
     16759 MEMB     118      DOPC     H10X     HEL1     0.150000       1.00800           0
     16760 MEMB     118      DOPC     C311     CTL2    -0.180000       12.0110           0
     16761 MEMB     118      DOPC     H11X     HAL2     0.900000E-01   1.00800           0
     16762 MEMB     118      DOPC     H11Y     HAL2     0.900000E-01   1.00800           0
     16763 MEMB     118      DOPC     C312     CTL2    -0.180000       12.0110           0
     16764 MEMB     118      DOPC     H12X     HAL2     0.900000E-01   1.00800           0
     16765 MEMB     118      DOPC     H12Y     HAL2     0.900000E-01   1.00800           0
     16766 MEMB     118      DOPC     C313     CTL2    -0.180000       12.0110           0
     16767 MEMB     118      DOPC     H13X     HAL2     0.900000E-01   1.00800           0
     16768 MEMB     118      DOPC     H13Y     HAL2     0.900000E-01   1.00800           0
     16769 MEMB     118      DOPC     C314     CTL2    -0.180000       12.0110           0
     16770 MEMB     118      DOPC     H14X     HAL2     0.900000E-01   1.00800           0
     16771 MEMB     118      DOPC     H14Y     HAL2     0.900000E-01   1.00800           0
     16772 MEMB     118      DOPC     C315     CTL2    -0.180000       12.0110           0
     16773 MEMB     118      DOPC     H15X     HAL2     0.900000E-01   1.00800           0
     16774 MEMB     118      DOPC     H15Y     HAL2     0.900000E-01   1.00800           0
     16775 MEMB     118      DOPC     C316     CTL2    -0.180000       12.0110           0
     16776 MEMB     118      DOPC     H16X     HAL2     0.900000E-01   1.00800           0
     16777 MEMB     118      DOPC     H16Y     HAL2     0.900000E-01   1.00800           0
     16778 MEMB     118      DOPC     C317     CTL2    -0.180000       12.0110           0
     16779 MEMB     118      DOPC     H17X     HAL2     0.900000E-01   1.00800           0
     16780 MEMB     118      DOPC     H17Y     HAL2     0.900000E-01   1.00800           0
     16781 MEMB     118      DOPC     C318     CTL3    -0.270000       12.0110           0
     16782 MEMB     118      DOPC     H18X     HAL3     0.900000E-01   1.00800           0
     16783 MEMB     118      DOPC     H18Y     HAL3     0.900000E-01   1.00800           0
     16784 MEMB     118      DOPC     H18Z     HAL3     0.900000E-01   1.00800           0
     16785 MEMB     119      DOPC     N        NTL     -0.600000       14.0070           0
     16786 MEMB     119      DOPC     C12      CTL2    -0.100000       12.0110           0
     16787 MEMB     119      DOPC     H12A     HL       0.250000       1.00800           0
     16788 MEMB     119      DOPC     H12B     HL       0.250000       1.00800           0
     16789 MEMB     119      DOPC     C13      CTL5    -0.350000       12.0110           0
     16790 MEMB     119      DOPC     H13A     HL       0.250000       1.00800           0
     16791 MEMB     119      DOPC     H13B     HL       0.250000       1.00800           0
     16792 MEMB     119      DOPC     H13C     HL       0.250000       1.00800           0
     16793 MEMB     119      DOPC     C14      CTL5    -0.350000       12.0110           0
     16794 MEMB     119      DOPC     H14A     HL       0.250000       1.00800           0
     16795 MEMB     119      DOPC     H14B     HL       0.250000       1.00800           0
     16796 MEMB     119      DOPC     H14C     HL       0.250000       1.00800           0
     16797 MEMB     119      DOPC     C15      CTL5    -0.350000       12.0110           0
     16798 MEMB     119      DOPC     H15A     HL       0.250000       1.00800           0
     16799 MEMB     119      DOPC     H15B     HL       0.250000       1.00800           0
     16800 MEMB     119      DOPC     H15C     HL       0.250000       1.00800           0
     16801 MEMB     119      DOPC     C11      CTL2    -0.800000E-01   12.0110           0
     16802 MEMB     119      DOPC     H11A     HAL2     0.900000E-01   1.00800           0
     16803 MEMB     119      DOPC     H11B     HAL2     0.900000E-01   1.00800           0
     16804 MEMB     119      DOPC     P        PL        1.50000       30.9740           0
     16805 MEMB     119      DOPC     O13      O2L     -0.780000       15.9994           0
     16806 MEMB     119      DOPC     O14      O2L     -0.780000       15.9994           0
     16807 MEMB     119      DOPC     O12      OSLP    -0.570000       15.9994           0
     16808 MEMB     119      DOPC     O11      OSLP    -0.570000       15.9994           0
     16809 MEMB     119      DOPC     C1       CTL2    -0.800000E-01   12.0110           0
     16810 MEMB     119      DOPC     HA       HAL2     0.900000E-01   1.00800           0
     16811 MEMB     119      DOPC     HB       HAL2     0.900000E-01   1.00800           0
     16812 MEMB     119      DOPC     C2       CTL1     0.170000       12.0110           0
     16813 MEMB     119      DOPC     HS       HAL1     0.900000E-01   1.00800           0
     16814 MEMB     119      DOPC     O21      OSL     -0.490000       15.9994           0
     16815 MEMB     119      DOPC     C21      CL       0.900000       12.0110           0
     16816 MEMB     119      DOPC     O22      OBL     -0.630000       15.9994           0
     16817 MEMB     119      DOPC     C22      CTL2    -0.220000       12.0110           0
     16818 MEMB     119      DOPC     H2R      HAL2     0.900000E-01   1.00800           0
     16819 MEMB     119      DOPC     H2S      HAL2     0.900000E-01   1.00800           0
     16820 MEMB     119      DOPC     C3       CTL2     0.800000E-01   12.0110           0
     16821 MEMB     119      DOPC     HX       HAL2     0.900000E-01   1.00800           0
     16822 MEMB     119      DOPC     HY       HAL2     0.900000E-01   1.00800           0
     16823 MEMB     119      DOPC     O31      OSL     -0.490000       15.9994           0
     16824 MEMB     119      DOPC     C31      CL       0.900000       12.0110           0
     16825 MEMB     119      DOPC     O32      OBL     -0.630000       15.9994           0
     16826 MEMB     119      DOPC     C32      CTL2    -0.220000       12.0110           0
     16827 MEMB     119      DOPC     H2X      HAL2     0.900000E-01   1.00800           0
     16828 MEMB     119      DOPC     H2Y      HAL2     0.900000E-01   1.00800           0
     16829 MEMB     119      DOPC     C23      CTL2    -0.180000       12.0110           0
     16830 MEMB     119      DOPC     H3R      HAL2     0.900000E-01   1.00800           0
     16831 MEMB     119      DOPC     H3S      HAL2     0.900000E-01   1.00800           0
     16832 MEMB     119      DOPC     C24      CTL2    -0.180000       12.0110           0
     16833 MEMB     119      DOPC     H4R      HAL2     0.900000E-01   1.00800           0
     16834 MEMB     119      DOPC     H4S      HAL2     0.900000E-01   1.00800           0
     16835 MEMB     119      DOPC     C25      CTL2    -0.180000       12.0110           0
     16836 MEMB     119      DOPC     H5R      HAL2     0.900000E-01   1.00800           0
     16837 MEMB     119      DOPC     H5S      HAL2     0.900000E-01   1.00800           0
     16838 MEMB     119      DOPC     C26      CTL2    -0.180000       12.0110           0
     16839 MEMB     119      DOPC     H6R      HAL2     0.900000E-01   1.00800           0
     16840 MEMB     119      DOPC     H6S      HAL2     0.900000E-01   1.00800           0
     16841 MEMB     119      DOPC     C27      CTL2    -0.180000       12.0110           0
     16842 MEMB     119      DOPC     H7R      HAL2     0.900000E-01   1.00800           0
     16843 MEMB     119      DOPC     H7S      HAL2     0.900000E-01   1.00800           0
     16844 MEMB     119      DOPC     C28      CTL2    -0.180000       12.0110           0
     16845 MEMB     119      DOPC     H8R      HAL2     0.900000E-01   1.00800           0
     16846 MEMB     119      DOPC     H8S      HAL2     0.900000E-01   1.00800           0
     16847 MEMB     119      DOPC     C29      CEL1    -0.150000       12.0110           0
     16848 MEMB     119      DOPC     H9R      HEL1     0.150000       1.00800           0
     16849 MEMB     119      DOPC     C210     CEL1    -0.150000       12.0110           0
     16850 MEMB     119      DOPC     H10R     HEL1     0.150000       1.00800           0
     16851 MEMB     119      DOPC     C211     CTL2    -0.180000       12.0110           0
     16852 MEMB     119      DOPC     H11R     HAL2     0.900000E-01   1.00800           0
     16853 MEMB     119      DOPC     H11S     HAL2     0.900000E-01   1.00800           0
     16854 MEMB     119      DOPC     C212     CTL2    -0.180000       12.0110           0
     16855 MEMB     119      DOPC     H12R     HAL2     0.900000E-01   1.00800           0
     16856 MEMB     119      DOPC     H12S     HAL2     0.900000E-01   1.00800           0
     16857 MEMB     119      DOPC     C213     CTL2    -0.180000       12.0110           0
     16858 MEMB     119      DOPC     H13R     HAL2     0.900000E-01   1.00800           0
     16859 MEMB     119      DOPC     H13S     HAL2     0.900000E-01   1.00800           0
     16860 MEMB     119      DOPC     C214     CTL2    -0.180000       12.0110           0
     16861 MEMB     119      DOPC     H14R     HAL2     0.900000E-01   1.00800           0
     16862 MEMB     119      DOPC     H14S     HAL2     0.900000E-01   1.00800           0
     16863 MEMB     119      DOPC     C215     CTL2    -0.180000       12.0110           0
     16864 MEMB     119      DOPC     H15R     HAL2     0.900000E-01   1.00800           0
     16865 MEMB     119      DOPC     H15S     HAL2     0.900000E-01   1.00800           0
     16866 MEMB     119      DOPC     C216     CTL2    -0.180000       12.0110           0
     16867 MEMB     119      DOPC     H16R     HAL2     0.900000E-01   1.00800           0
     16868 MEMB     119      DOPC     H16S     HAL2     0.900000E-01   1.00800           0
     16869 MEMB     119      DOPC     C217     CTL2    -0.180000       12.0110           0
     16870 MEMB     119      DOPC     H17R     HAL2     0.900000E-01   1.00800           0
     16871 MEMB     119      DOPC     H17S     HAL2     0.900000E-01   1.00800           0
     16872 MEMB     119      DOPC     C218     CTL3    -0.270000       12.0110           0
     16873 MEMB     119      DOPC     H18R     HAL3     0.900000E-01   1.00800           0
     16874 MEMB     119      DOPC     H18S     HAL3     0.900000E-01   1.00800           0
     16875 MEMB     119      DOPC     H18T     HAL3     0.900000E-01   1.00800           0
     16876 MEMB     119      DOPC     C33      CTL2    -0.180000       12.0110           0
     16877 MEMB     119      DOPC     H3X      HAL2     0.900000E-01   1.00800           0
     16878 MEMB     119      DOPC     H3Y      HAL2     0.900000E-01   1.00800           0
     16879 MEMB     119      DOPC     C34      CTL2    -0.180000       12.0110           0
     16880 MEMB     119      DOPC     H4X      HAL2     0.900000E-01   1.00800           0
     16881 MEMB     119      DOPC     H4Y      HAL2     0.900000E-01   1.00800           0
     16882 MEMB     119      DOPC     C35      CTL2    -0.180000       12.0110           0
     16883 MEMB     119      DOPC     H5X      HAL2     0.900000E-01   1.00800           0
     16884 MEMB     119      DOPC     H5Y      HAL2     0.900000E-01   1.00800           0
     16885 MEMB     119      DOPC     C36      CTL2    -0.180000       12.0110           0
     16886 MEMB     119      DOPC     H6X      HAL2     0.900000E-01   1.00800           0
     16887 MEMB     119      DOPC     H6Y      HAL2     0.900000E-01   1.00800           0
     16888 MEMB     119      DOPC     C37      CTL2    -0.180000       12.0110           0
     16889 MEMB     119      DOPC     H7X      HAL2     0.900000E-01   1.00800           0
     16890 MEMB     119      DOPC     H7Y      HAL2     0.900000E-01   1.00800           0
     16891 MEMB     119      DOPC     C38      CTL2    -0.180000       12.0110           0
     16892 MEMB     119      DOPC     H8X      HAL2     0.900000E-01   1.00800           0
     16893 MEMB     119      DOPC     H8Y      HAL2     0.900000E-01   1.00800           0
     16894 MEMB     119      DOPC     C39      CEL1    -0.150000       12.0110           0
     16895 MEMB     119      DOPC     H9X      HEL1     0.150000       1.00800           0
     16896 MEMB     119      DOPC     C310     CEL1    -0.150000       12.0110           0
     16897 MEMB     119      DOPC     H10X     HEL1     0.150000       1.00800           0
     16898 MEMB     119      DOPC     C311     CTL2    -0.180000       12.0110           0
     16899 MEMB     119      DOPC     H11X     HAL2     0.900000E-01   1.00800           0
     16900 MEMB     119      DOPC     H11Y     HAL2     0.900000E-01   1.00800           0
     16901 MEMB     119      DOPC     C312     CTL2    -0.180000       12.0110           0
     16902 MEMB     119      DOPC     H12X     HAL2     0.900000E-01   1.00800           0
     16903 MEMB     119      DOPC     H12Y     HAL2     0.900000E-01   1.00800           0
     16904 MEMB     119      DOPC     C313     CTL2    -0.180000       12.0110           0
     16905 MEMB     119      DOPC     H13X     HAL2     0.900000E-01   1.00800           0
     16906 MEMB     119      DOPC     H13Y     HAL2     0.900000E-01   1.00800           0
     16907 MEMB     119      DOPC     C314     CTL2    -0.180000       12.0110           0
     16908 MEMB     119      DOPC     H14X     HAL2     0.900000E-01   1.00800           0
     16909 MEMB     119      DOPC     H14Y     HAL2     0.900000E-01   1.00800           0
     16910 MEMB     119      DOPC     C315     CTL2    -0.180000       12.0110           0
     16911 MEMB     119      DOPC     H15X     HAL2     0.900000E-01   1.00800           0
     16912 MEMB     119      DOPC     H15Y     HAL2     0.900000E-01   1.00800           0
     16913 MEMB     119      DOPC     C316     CTL2    -0.180000       12.0110           0
     16914 MEMB     119      DOPC     H16X     HAL2     0.900000E-01   1.00800           0
     16915 MEMB     119      DOPC     H16Y     HAL2     0.900000E-01   1.00800           0
     16916 MEMB     119      DOPC     C317     CTL2    -0.180000       12.0110           0
     16917 MEMB     119      DOPC     H17X     HAL2     0.900000E-01   1.00800           0
     16918 MEMB     119      DOPC     H17Y     HAL2     0.900000E-01   1.00800           0
     16919 MEMB     119      DOPC     C318     CTL3    -0.270000       12.0110           0
     16920 MEMB     119      DOPC     H18X     HAL3     0.900000E-01   1.00800           0
     16921 MEMB     119      DOPC     H18Y     HAL3     0.900000E-01   1.00800           0
     16922 MEMB     119      DOPC     H18Z     HAL3     0.900000E-01   1.00800           0
     16923 MEMB     120      DOPC     N        NTL     -0.600000       14.0070           0
     16924 MEMB     120      DOPC     C12      CTL2    -0.100000       12.0110           0
     16925 MEMB     120      DOPC     H12A     HL       0.250000       1.00800           0
     16926 MEMB     120      DOPC     H12B     HL       0.250000       1.00800           0
     16927 MEMB     120      DOPC     C13      CTL5    -0.350000       12.0110           0
     16928 MEMB     120      DOPC     H13A     HL       0.250000       1.00800           0
     16929 MEMB     120      DOPC     H13B     HL       0.250000       1.00800           0
     16930 MEMB     120      DOPC     H13C     HL       0.250000       1.00800           0
     16931 MEMB     120      DOPC     C14      CTL5    -0.350000       12.0110           0
     16932 MEMB     120      DOPC     H14A     HL       0.250000       1.00800           0
     16933 MEMB     120      DOPC     H14B     HL       0.250000       1.00800           0
     16934 MEMB     120      DOPC     H14C     HL       0.250000       1.00800           0
     16935 MEMB     120      DOPC     C15      CTL5    -0.350000       12.0110           0
     16936 MEMB     120      DOPC     H15A     HL       0.250000       1.00800           0
     16937 MEMB     120      DOPC     H15B     HL       0.250000       1.00800           0
     16938 MEMB     120      DOPC     H15C     HL       0.250000       1.00800           0
     16939 MEMB     120      DOPC     C11      CTL2    -0.800000E-01   12.0110           0
     16940 MEMB     120      DOPC     H11A     HAL2     0.900000E-01   1.00800           0
     16941 MEMB     120      DOPC     H11B     HAL2     0.900000E-01   1.00800           0
     16942 MEMB     120      DOPC     P        PL        1.50000       30.9740           0
     16943 MEMB     120      DOPC     O13      O2L     -0.780000       15.9994           0
     16944 MEMB     120      DOPC     O14      O2L     -0.780000       15.9994           0
     16945 MEMB     120      DOPC     O12      OSLP    -0.570000       15.9994           0
     16946 MEMB     120      DOPC     O11      OSLP    -0.570000       15.9994           0
     16947 MEMB     120      DOPC     C1       CTL2    -0.800000E-01   12.0110           0
     16948 MEMB     120      DOPC     HA       HAL2     0.900000E-01   1.00800           0
     16949 MEMB     120      DOPC     HB       HAL2     0.900000E-01   1.00800           0
     16950 MEMB     120      DOPC     C2       CTL1     0.170000       12.0110           0
     16951 MEMB     120      DOPC     HS       HAL1     0.900000E-01   1.00800           0
     16952 MEMB     120      DOPC     O21      OSL     -0.490000       15.9994           0
     16953 MEMB     120      DOPC     C21      CL       0.900000       12.0110           0
     16954 MEMB     120      DOPC     O22      OBL     -0.630000       15.9994           0
     16955 MEMB     120      DOPC     C22      CTL2    -0.220000       12.0110           0
     16956 MEMB     120      DOPC     H2R      HAL2     0.900000E-01   1.00800           0
     16957 MEMB     120      DOPC     H2S      HAL2     0.900000E-01   1.00800           0
     16958 MEMB     120      DOPC     C3       CTL2     0.800000E-01   12.0110           0
     16959 MEMB     120      DOPC     HX       HAL2     0.900000E-01   1.00800           0
     16960 MEMB     120      DOPC     HY       HAL2     0.900000E-01   1.00800           0
     16961 MEMB     120      DOPC     O31      OSL     -0.490000       15.9994           0
     16962 MEMB     120      DOPC     C31      CL       0.900000       12.0110           0
     16963 MEMB     120      DOPC     O32      OBL     -0.630000       15.9994           0
     16964 MEMB     120      DOPC     C32      CTL2    -0.220000       12.0110           0
     16965 MEMB     120      DOPC     H2X      HAL2     0.900000E-01   1.00800           0
     16966 MEMB     120      DOPC     H2Y      HAL2     0.900000E-01   1.00800           0
     16967 MEMB     120      DOPC     C23      CTL2    -0.180000       12.0110           0
     16968 MEMB     120      DOPC     H3R      HAL2     0.900000E-01   1.00800           0
     16969 MEMB     120      DOPC     H3S      HAL2     0.900000E-01   1.00800           0
     16970 MEMB     120      DOPC     C24      CTL2    -0.180000       12.0110           0
     16971 MEMB     120      DOPC     H4R      HAL2     0.900000E-01   1.00800           0
     16972 MEMB     120      DOPC     H4S      HAL2     0.900000E-01   1.00800           0
     16973 MEMB     120      DOPC     C25      CTL2    -0.180000       12.0110           0
     16974 MEMB     120      DOPC     H5R      HAL2     0.900000E-01   1.00800           0
     16975 MEMB     120      DOPC     H5S      HAL2     0.900000E-01   1.00800           0
     16976 MEMB     120      DOPC     C26      CTL2    -0.180000       12.0110           0
     16977 MEMB     120      DOPC     H6R      HAL2     0.900000E-01   1.00800           0
     16978 MEMB     120      DOPC     H6S      HAL2     0.900000E-01   1.00800           0
     16979 MEMB     120      DOPC     C27      CTL2    -0.180000       12.0110           0
     16980 MEMB     120      DOPC     H7R      HAL2     0.900000E-01   1.00800           0
     16981 MEMB     120      DOPC     H7S      HAL2     0.900000E-01   1.00800           0
     16982 MEMB     120      DOPC     C28      CTL2    -0.180000       12.0110           0
     16983 MEMB     120      DOPC     H8R      HAL2     0.900000E-01   1.00800           0
     16984 MEMB     120      DOPC     H8S      HAL2     0.900000E-01   1.00800           0
     16985 MEMB     120      DOPC     C29      CEL1    -0.150000       12.0110           0
     16986 MEMB     120      DOPC     H9R      HEL1     0.150000       1.00800           0
     16987 MEMB     120      DOPC     C210     CEL1    -0.150000       12.0110           0
     16988 MEMB     120      DOPC     H10R     HEL1     0.150000       1.00800           0
     16989 MEMB     120      DOPC     C211     CTL2    -0.180000       12.0110           0
     16990 MEMB     120      DOPC     H11R     HAL2     0.900000E-01   1.00800           0
     16991 MEMB     120      DOPC     H11S     HAL2     0.900000E-01   1.00800           0
     16992 MEMB     120      DOPC     C212     CTL2    -0.180000       12.0110           0
     16993 MEMB     120      DOPC     H12R     HAL2     0.900000E-01   1.00800           0
     16994 MEMB     120      DOPC     H12S     HAL2     0.900000E-01   1.00800           0
     16995 MEMB     120      DOPC     C213     CTL2    -0.180000       12.0110           0
     16996 MEMB     120      DOPC     H13R     HAL2     0.900000E-01   1.00800           0
     16997 MEMB     120      DOPC     H13S     HAL2     0.900000E-01   1.00800           0
     16998 MEMB     120      DOPC     C214     CTL2    -0.180000       12.0110           0
     16999 MEMB     120      DOPC     H14R     HAL2     0.900000E-01   1.00800           0
     17000 MEMB     120      DOPC     H14S     HAL2     0.900000E-01   1.00800           0
     17001 MEMB     120      DOPC     C215     CTL2    -0.180000       12.0110           0
     17002 MEMB     120      DOPC     H15R     HAL2     0.900000E-01   1.00800           0
     17003 MEMB     120      DOPC     H15S     HAL2     0.900000E-01   1.00800           0
     17004 MEMB     120      DOPC     C216     CTL2    -0.180000       12.0110           0
     17005 MEMB     120      DOPC     H16R     HAL2     0.900000E-01   1.00800           0
     17006 MEMB     120      DOPC     H16S     HAL2     0.900000E-01   1.00800           0
     17007 MEMB     120      DOPC     C217     CTL2    -0.180000       12.0110           0
     17008 MEMB     120      DOPC     H17R     HAL2     0.900000E-01   1.00800           0
     17009 MEMB     120      DOPC     H17S     HAL2     0.900000E-01   1.00800           0
     17010 MEMB     120      DOPC     C218     CTL3    -0.270000       12.0110           0
     17011 MEMB     120      DOPC     H18R     HAL3     0.900000E-01   1.00800           0
     17012 MEMB     120      DOPC     H18S     HAL3     0.900000E-01   1.00800           0
     17013 MEMB     120      DOPC     H18T     HAL3     0.900000E-01   1.00800           0
     17014 MEMB     120      DOPC     C33      CTL2    -0.180000       12.0110           0
     17015 MEMB     120      DOPC     H3X      HAL2     0.900000E-01   1.00800           0
     17016 MEMB     120      DOPC     H3Y      HAL2     0.900000E-01   1.00800           0
     17017 MEMB     120      DOPC     C34      CTL2    -0.180000       12.0110           0
     17018 MEMB     120      DOPC     H4X      HAL2     0.900000E-01   1.00800           0
     17019 MEMB     120      DOPC     H4Y      HAL2     0.900000E-01   1.00800           0
     17020 MEMB     120      DOPC     C35      CTL2    -0.180000       12.0110           0
     17021 MEMB     120      DOPC     H5X      HAL2     0.900000E-01   1.00800           0
     17022 MEMB     120      DOPC     H5Y      HAL2     0.900000E-01   1.00800           0
     17023 MEMB     120      DOPC     C36      CTL2    -0.180000       12.0110           0
     17024 MEMB     120      DOPC     H6X      HAL2     0.900000E-01   1.00800           0
     17025 MEMB     120      DOPC     H6Y      HAL2     0.900000E-01   1.00800           0
     17026 MEMB     120      DOPC     C37      CTL2    -0.180000       12.0110           0
     17027 MEMB     120      DOPC     H7X      HAL2     0.900000E-01   1.00800           0
     17028 MEMB     120      DOPC     H7Y      HAL2     0.900000E-01   1.00800           0
     17029 MEMB     120      DOPC     C38      CTL2    -0.180000       12.0110           0
     17030 MEMB     120      DOPC     H8X      HAL2     0.900000E-01   1.00800           0
     17031 MEMB     120      DOPC     H8Y      HAL2     0.900000E-01   1.00800           0
     17032 MEMB     120      DOPC     C39      CEL1    -0.150000       12.0110           0
     17033 MEMB     120      DOPC     H9X      HEL1     0.150000       1.00800           0
     17034 MEMB     120      DOPC     C310     CEL1    -0.150000       12.0110           0
     17035 MEMB     120      DOPC     H10X     HEL1     0.150000       1.00800           0
     17036 MEMB     120      DOPC     C311     CTL2    -0.180000       12.0110           0
     17037 MEMB     120      DOPC     H11X     HAL2     0.900000E-01   1.00800           0
     17038 MEMB     120      DOPC     H11Y     HAL2     0.900000E-01   1.00800           0
     17039 MEMB     120      DOPC     C312     CTL2    -0.180000       12.0110           0
     17040 MEMB     120      DOPC     H12X     HAL2     0.900000E-01   1.00800           0
     17041 MEMB     120      DOPC     H12Y     HAL2     0.900000E-01   1.00800           0
     17042 MEMB     120      DOPC     C313     CTL2    -0.180000       12.0110           0
     17043 MEMB     120      DOPC     H13X     HAL2     0.900000E-01   1.00800           0
     17044 MEMB     120      DOPC     H13Y     HAL2     0.900000E-01   1.00800           0
     17045 MEMB     120      DOPC     C314     CTL2    -0.180000       12.0110           0
     17046 MEMB     120      DOPC     H14X     HAL2     0.900000E-01   1.00800           0
     17047 MEMB     120      DOPC     H14Y     HAL2     0.900000E-01   1.00800           0
     17048 MEMB     120      DOPC     C315     CTL2    -0.180000       12.0110           0
     17049 MEMB     120      DOPC     H15X     HAL2     0.900000E-01   1.00800           0
     17050 MEMB     120      DOPC     H15Y     HAL2     0.900000E-01   1.00800           0
     17051 MEMB     120      DOPC     C316     CTL2    -0.180000       12.0110           0
     17052 MEMB     120      DOPC     H16X     HAL2     0.900000E-01   1.00800           0
     17053 MEMB     120      DOPC     H16Y     HAL2     0.900000E-01   1.00800           0
     17054 MEMB     120      DOPC     C317     CTL2    -0.180000       12.0110           0
     17055 MEMB     120      DOPC     H17X     HAL2     0.900000E-01   1.00800           0
     17056 MEMB     120      DOPC     H17Y     HAL2     0.900000E-01   1.00800           0
     17057 MEMB     120      DOPC     C318     CTL3    -0.270000       12.0110           0
     17058 MEMB     120      DOPC     H18X     HAL3     0.900000E-01   1.00800           0
     17059 MEMB     120      DOPC     H18Y     HAL3     0.900000E-01   1.00800           0
     17060 MEMB     120      DOPC     H18Z     HAL3     0.900000E-01   1.00800           0
     17061 MEMB     121      DOPC     N        NTL     -0.600000       14.0070           0
     17062 MEMB     121      DOPC     C12      CTL2    -0.100000       12.0110           0
     17063 MEMB     121      DOPC     H12A     HL       0.250000       1.00800           0
     17064 MEMB     121      DOPC     H12B     HL       0.250000       1.00800           0
     17065 MEMB     121      DOPC     C13      CTL5    -0.350000       12.0110           0
     17066 MEMB     121      DOPC     H13A     HL       0.250000       1.00800           0
     17067 MEMB     121      DOPC     H13B     HL       0.250000       1.00800           0
     17068 MEMB     121      DOPC     H13C     HL       0.250000       1.00800           0
     17069 MEMB     121      DOPC     C14      CTL5    -0.350000       12.0110           0
     17070 MEMB     121      DOPC     H14A     HL       0.250000       1.00800           0
     17071 MEMB     121      DOPC     H14B     HL       0.250000       1.00800           0
     17072 MEMB     121      DOPC     H14C     HL       0.250000       1.00800           0
     17073 MEMB     121      DOPC     C15      CTL5    -0.350000       12.0110           0
     17074 MEMB     121      DOPC     H15A     HL       0.250000       1.00800           0
     17075 MEMB     121      DOPC     H15B     HL       0.250000       1.00800           0
     17076 MEMB     121      DOPC     H15C     HL       0.250000       1.00800           0
     17077 MEMB     121      DOPC     C11      CTL2    -0.800000E-01   12.0110           0
     17078 MEMB     121      DOPC     H11A     HAL2     0.900000E-01   1.00800           0
     17079 MEMB     121      DOPC     H11B     HAL2     0.900000E-01   1.00800           0
     17080 MEMB     121      DOPC     P        PL        1.50000       30.9740           0
     17081 MEMB     121      DOPC     O13      O2L     -0.780000       15.9994           0
     17082 MEMB     121      DOPC     O14      O2L     -0.780000       15.9994           0
     17083 MEMB     121      DOPC     O12      OSLP    -0.570000       15.9994           0
     17084 MEMB     121      DOPC     O11      OSLP    -0.570000       15.9994           0
     17085 MEMB     121      DOPC     C1       CTL2    -0.800000E-01   12.0110           0
     17086 MEMB     121      DOPC     HA       HAL2     0.900000E-01   1.00800           0
     17087 MEMB     121      DOPC     HB       HAL2     0.900000E-01   1.00800           0
     17088 MEMB     121      DOPC     C2       CTL1     0.170000       12.0110           0
     17089 MEMB     121      DOPC     HS       HAL1     0.900000E-01   1.00800           0
     17090 MEMB     121      DOPC     O21      OSL     -0.490000       15.9994           0
     17091 MEMB     121      DOPC     C21      CL       0.900000       12.0110           0
     17092 MEMB     121      DOPC     O22      OBL     -0.630000       15.9994           0
     17093 MEMB     121      DOPC     C22      CTL2    -0.220000       12.0110           0
     17094 MEMB     121      DOPC     H2R      HAL2     0.900000E-01   1.00800           0
     17095 MEMB     121      DOPC     H2S      HAL2     0.900000E-01   1.00800           0
     17096 MEMB     121      DOPC     C3       CTL2     0.800000E-01   12.0110           0
     17097 MEMB     121      DOPC     HX       HAL2     0.900000E-01   1.00800           0
     17098 MEMB     121      DOPC     HY       HAL2     0.900000E-01   1.00800           0
     17099 MEMB     121      DOPC     O31      OSL     -0.490000       15.9994           0
     17100 MEMB     121      DOPC     C31      CL       0.900000       12.0110           0
     17101 MEMB     121      DOPC     O32      OBL     -0.630000       15.9994           0
     17102 MEMB     121      DOPC     C32      CTL2    -0.220000       12.0110           0
     17103 MEMB     121      DOPC     H2X      HAL2     0.900000E-01   1.00800           0
     17104 MEMB     121      DOPC     H2Y      HAL2     0.900000E-01   1.00800           0
     17105 MEMB     121      DOPC     C23      CTL2    -0.180000       12.0110           0
     17106 MEMB     121      DOPC     H3R      HAL2     0.900000E-01   1.00800           0
     17107 MEMB     121      DOPC     H3S      HAL2     0.900000E-01   1.00800           0
     17108 MEMB     121      DOPC     C24      CTL2    -0.180000       12.0110           0
     17109 MEMB     121      DOPC     H4R      HAL2     0.900000E-01   1.00800           0
     17110 MEMB     121      DOPC     H4S      HAL2     0.900000E-01   1.00800           0
     17111 MEMB     121      DOPC     C25      CTL2    -0.180000       12.0110           0
     17112 MEMB     121      DOPC     H5R      HAL2     0.900000E-01   1.00800           0
     17113 MEMB     121      DOPC     H5S      HAL2     0.900000E-01   1.00800           0
     17114 MEMB     121      DOPC     C26      CTL2    -0.180000       12.0110           0
     17115 MEMB     121      DOPC     H6R      HAL2     0.900000E-01   1.00800           0
     17116 MEMB     121      DOPC     H6S      HAL2     0.900000E-01   1.00800           0
     17117 MEMB     121      DOPC     C27      CTL2    -0.180000       12.0110           0
     17118 MEMB     121      DOPC     H7R      HAL2     0.900000E-01   1.00800           0
     17119 MEMB     121      DOPC     H7S      HAL2     0.900000E-01   1.00800           0
     17120 MEMB     121      DOPC     C28      CTL2    -0.180000       12.0110           0
     17121 MEMB     121      DOPC     H8R      HAL2     0.900000E-01   1.00800           0
     17122 MEMB     121      DOPC     H8S      HAL2     0.900000E-01   1.00800           0
     17123 MEMB     121      DOPC     C29      CEL1    -0.150000       12.0110           0
     17124 MEMB     121      DOPC     H9R      HEL1     0.150000       1.00800           0
     17125 MEMB     121      DOPC     C210     CEL1    -0.150000       12.0110           0
     17126 MEMB     121      DOPC     H10R     HEL1     0.150000       1.00800           0
     17127 MEMB     121      DOPC     C211     CTL2    -0.180000       12.0110           0
     17128 MEMB     121      DOPC     H11R     HAL2     0.900000E-01   1.00800           0
     17129 MEMB     121      DOPC     H11S     HAL2     0.900000E-01   1.00800           0
     17130 MEMB     121      DOPC     C212     CTL2    -0.180000       12.0110           0
     17131 MEMB     121      DOPC     H12R     HAL2     0.900000E-01   1.00800           0
     17132 MEMB     121      DOPC     H12S     HAL2     0.900000E-01   1.00800           0
     17133 MEMB     121      DOPC     C213     CTL2    -0.180000       12.0110           0
     17134 MEMB     121      DOPC     H13R     HAL2     0.900000E-01   1.00800           0
     17135 MEMB     121      DOPC     H13S     HAL2     0.900000E-01   1.00800           0
     17136 MEMB     121      DOPC     C214     CTL2    -0.180000       12.0110           0
     17137 MEMB     121      DOPC     H14R     HAL2     0.900000E-01   1.00800           0
     17138 MEMB     121      DOPC     H14S     HAL2     0.900000E-01   1.00800           0
     17139 MEMB     121      DOPC     C215     CTL2    -0.180000       12.0110           0
     17140 MEMB     121      DOPC     H15R     HAL2     0.900000E-01   1.00800           0
     17141 MEMB     121      DOPC     H15S     HAL2     0.900000E-01   1.00800           0
     17142 MEMB     121      DOPC     C216     CTL2    -0.180000       12.0110           0
     17143 MEMB     121      DOPC     H16R     HAL2     0.900000E-01   1.00800           0
     17144 MEMB     121      DOPC     H16S     HAL2     0.900000E-01   1.00800           0
     17145 MEMB     121      DOPC     C217     CTL2    -0.180000       12.0110           0
     17146 MEMB     121      DOPC     H17R     HAL2     0.900000E-01   1.00800           0
     17147 MEMB     121      DOPC     H17S     HAL2     0.900000E-01   1.00800           0
     17148 MEMB     121      DOPC     C218     CTL3    -0.270000       12.0110           0
     17149 MEMB     121      DOPC     H18R     HAL3     0.900000E-01   1.00800           0
     17150 MEMB     121      DOPC     H18S     HAL3     0.900000E-01   1.00800           0
     17151 MEMB     121      DOPC     H18T     HAL3     0.900000E-01   1.00800           0
     17152 MEMB     121      DOPC     C33      CTL2    -0.180000       12.0110           0
     17153 MEMB     121      DOPC     H3X      HAL2     0.900000E-01   1.00800           0
     17154 MEMB     121      DOPC     H3Y      HAL2     0.900000E-01   1.00800           0
     17155 MEMB     121      DOPC     C34      CTL2    -0.180000       12.0110           0
     17156 MEMB     121      DOPC     H4X      HAL2     0.900000E-01   1.00800           0
     17157 MEMB     121      DOPC     H4Y      HAL2     0.900000E-01   1.00800           0
     17158 MEMB     121      DOPC     C35      CTL2    -0.180000       12.0110           0
     17159 MEMB     121      DOPC     H5X      HAL2     0.900000E-01   1.00800           0
     17160 MEMB     121      DOPC     H5Y      HAL2     0.900000E-01   1.00800           0
     17161 MEMB     121      DOPC     C36      CTL2    -0.180000       12.0110           0
     17162 MEMB     121      DOPC     H6X      HAL2     0.900000E-01   1.00800           0
     17163 MEMB     121      DOPC     H6Y      HAL2     0.900000E-01   1.00800           0
     17164 MEMB     121      DOPC     C37      CTL2    -0.180000       12.0110           0
     17165 MEMB     121      DOPC     H7X      HAL2     0.900000E-01   1.00800           0
     17166 MEMB     121      DOPC     H7Y      HAL2     0.900000E-01   1.00800           0
     17167 MEMB     121      DOPC     C38      CTL2    -0.180000       12.0110           0
     17168 MEMB     121      DOPC     H8X      HAL2     0.900000E-01   1.00800           0
     17169 MEMB     121      DOPC     H8Y      HAL2     0.900000E-01   1.00800           0
     17170 MEMB     121      DOPC     C39      CEL1    -0.150000       12.0110           0
     17171 MEMB     121      DOPC     H9X      HEL1     0.150000       1.00800           0
     17172 MEMB     121      DOPC     C310     CEL1    -0.150000       12.0110           0
     17173 MEMB     121      DOPC     H10X     HEL1     0.150000       1.00800           0
     17174 MEMB     121      DOPC     C311     CTL2    -0.180000       12.0110           0
     17175 MEMB     121      DOPC     H11X     HAL2     0.900000E-01   1.00800           0
     17176 MEMB     121      DOPC     H11Y     HAL2     0.900000E-01   1.00800           0
     17177 MEMB     121      DOPC     C312     CTL2    -0.180000       12.0110           0
     17178 MEMB     121      DOPC     H12X     HAL2     0.900000E-01   1.00800           0
     17179 MEMB     121      DOPC     H12Y     HAL2     0.900000E-01   1.00800           0
     17180 MEMB     121      DOPC     C313     CTL2    -0.180000       12.0110           0
     17181 MEMB     121      DOPC     H13X     HAL2     0.900000E-01   1.00800           0
     17182 MEMB     121      DOPC     H13Y     HAL2     0.900000E-01   1.00800           0
     17183 MEMB     121      DOPC     C314     CTL2    -0.180000       12.0110           0
     17184 MEMB     121      DOPC     H14X     HAL2     0.900000E-01   1.00800           0
     17185 MEMB     121      DOPC     H14Y     HAL2     0.900000E-01   1.00800           0
     17186 MEMB     121      DOPC     C315     CTL2    -0.180000       12.0110           0
     17187 MEMB     121      DOPC     H15X     HAL2     0.900000E-01   1.00800           0
     17188 MEMB     121      DOPC     H15Y     HAL2     0.900000E-01   1.00800           0
     17189 MEMB     121      DOPC     C316     CTL2    -0.180000       12.0110           0
     17190 MEMB     121      DOPC     H16X     HAL2     0.900000E-01   1.00800           0
     17191 MEMB     121      DOPC     H16Y     HAL2     0.900000E-01   1.00800           0
     17192 MEMB     121      DOPC     C317     CTL2    -0.180000       12.0110           0
     17193 MEMB     121      DOPC     H17X     HAL2     0.900000E-01   1.00800           0
     17194 MEMB     121      DOPC     H17Y     HAL2     0.900000E-01   1.00800           0
     17195 MEMB     121      DOPC     C318     CTL3    -0.270000       12.0110           0
     17196 MEMB     121      DOPC     H18X     HAL3     0.900000E-01   1.00800           0
     17197 MEMB     121      DOPC     H18Y     HAL3     0.900000E-01   1.00800           0
     17198 MEMB     121      DOPC     H18Z     HAL3     0.900000E-01   1.00800           0
     17199 MEMB     122      DOPC     N        NTL     -0.600000       14.0070           0
     17200 MEMB     122      DOPC     C12      CTL2    -0.100000       12.0110           0
     17201 MEMB     122      DOPC     H12A     HL       0.250000       1.00800           0
     17202 MEMB     122      DOPC     H12B     HL       0.250000       1.00800           0
     17203 MEMB     122      DOPC     C13      CTL5    -0.350000       12.0110           0
     17204 MEMB     122      DOPC     H13A     HL       0.250000       1.00800           0
     17205 MEMB     122      DOPC     H13B     HL       0.250000       1.00800           0
     17206 MEMB     122      DOPC     H13C     HL       0.250000       1.00800           0
     17207 MEMB     122      DOPC     C14      CTL5    -0.350000       12.0110           0
     17208 MEMB     122      DOPC     H14A     HL       0.250000       1.00800           0
     17209 MEMB     122      DOPC     H14B     HL       0.250000       1.00800           0
     17210 MEMB     122      DOPC     H14C     HL       0.250000       1.00800           0
     17211 MEMB     122      DOPC     C15      CTL5    -0.350000       12.0110           0
     17212 MEMB     122      DOPC     H15A     HL       0.250000       1.00800           0
     17213 MEMB     122      DOPC     H15B     HL       0.250000       1.00800           0
     17214 MEMB     122      DOPC     H15C     HL       0.250000       1.00800           0
     17215 MEMB     122      DOPC     C11      CTL2    -0.800000E-01   12.0110           0
     17216 MEMB     122      DOPC     H11A     HAL2     0.900000E-01   1.00800           0
     17217 MEMB     122      DOPC     H11B     HAL2     0.900000E-01   1.00800           0
     17218 MEMB     122      DOPC     P        PL        1.50000       30.9740           0
     17219 MEMB     122      DOPC     O13      O2L     -0.780000       15.9994           0
     17220 MEMB     122      DOPC     O14      O2L     -0.780000       15.9994           0
     17221 MEMB     122      DOPC     O12      OSLP    -0.570000       15.9994           0
     17222 MEMB     122      DOPC     O11      OSLP    -0.570000       15.9994           0
     17223 MEMB     122      DOPC     C1       CTL2    -0.800000E-01   12.0110           0
     17224 MEMB     122      DOPC     HA       HAL2     0.900000E-01   1.00800           0
     17225 MEMB     122      DOPC     HB       HAL2     0.900000E-01   1.00800           0
     17226 MEMB     122      DOPC     C2       CTL1     0.170000       12.0110           0
     17227 MEMB     122      DOPC     HS       HAL1     0.900000E-01   1.00800           0
     17228 MEMB     122      DOPC     O21      OSL     -0.490000       15.9994           0
     17229 MEMB     122      DOPC     C21      CL       0.900000       12.0110           0
     17230 MEMB     122      DOPC     O22      OBL     -0.630000       15.9994           0
     17231 MEMB     122      DOPC     C22      CTL2    -0.220000       12.0110           0
     17232 MEMB     122      DOPC     H2R      HAL2     0.900000E-01   1.00800           0
     17233 MEMB     122      DOPC     H2S      HAL2     0.900000E-01   1.00800           0
     17234 MEMB     122      DOPC     C3       CTL2     0.800000E-01   12.0110           0
     17235 MEMB     122      DOPC     HX       HAL2     0.900000E-01   1.00800           0
     17236 MEMB     122      DOPC     HY       HAL2     0.900000E-01   1.00800           0
     17237 MEMB     122      DOPC     O31      OSL     -0.490000       15.9994           0
     17238 MEMB     122      DOPC     C31      CL       0.900000       12.0110           0
     17239 MEMB     122      DOPC     O32      OBL     -0.630000       15.9994           0
     17240 MEMB     122      DOPC     C32      CTL2    -0.220000       12.0110           0
     17241 MEMB     122      DOPC     H2X      HAL2     0.900000E-01   1.00800           0
     17242 MEMB     122      DOPC     H2Y      HAL2     0.900000E-01   1.00800           0
     17243 MEMB     122      DOPC     C23      CTL2    -0.180000       12.0110           0
     17244 MEMB     122      DOPC     H3R      HAL2     0.900000E-01   1.00800           0
     17245 MEMB     122      DOPC     H3S      HAL2     0.900000E-01   1.00800           0
     17246 MEMB     122      DOPC     C24      CTL2    -0.180000       12.0110           0
     17247 MEMB     122      DOPC     H4R      HAL2     0.900000E-01   1.00800           0
     17248 MEMB     122      DOPC     H4S      HAL2     0.900000E-01   1.00800           0
     17249 MEMB     122      DOPC     C25      CTL2    -0.180000       12.0110           0
     17250 MEMB     122      DOPC     H5R      HAL2     0.900000E-01   1.00800           0
     17251 MEMB     122      DOPC     H5S      HAL2     0.900000E-01   1.00800           0
     17252 MEMB     122      DOPC     C26      CTL2    -0.180000       12.0110           0
     17253 MEMB     122      DOPC     H6R      HAL2     0.900000E-01   1.00800           0
     17254 MEMB     122      DOPC     H6S      HAL2     0.900000E-01   1.00800           0
     17255 MEMB     122      DOPC     C27      CTL2    -0.180000       12.0110           0
     17256 MEMB     122      DOPC     H7R      HAL2     0.900000E-01   1.00800           0
     17257 MEMB     122      DOPC     H7S      HAL2     0.900000E-01   1.00800           0
     17258 MEMB     122      DOPC     C28      CTL2    -0.180000       12.0110           0
     17259 MEMB     122      DOPC     H8R      HAL2     0.900000E-01   1.00800           0
     17260 MEMB     122      DOPC     H8S      HAL2     0.900000E-01   1.00800           0
     17261 MEMB     122      DOPC     C29      CEL1    -0.150000       12.0110           0
     17262 MEMB     122      DOPC     H9R      HEL1     0.150000       1.00800           0
     17263 MEMB     122      DOPC     C210     CEL1    -0.150000       12.0110           0
     17264 MEMB     122      DOPC     H10R     HEL1     0.150000       1.00800           0
     17265 MEMB     122      DOPC     C211     CTL2    -0.180000       12.0110           0
     17266 MEMB     122      DOPC     H11R     HAL2     0.900000E-01   1.00800           0
     17267 MEMB     122      DOPC     H11S     HAL2     0.900000E-01   1.00800           0
     17268 MEMB     122      DOPC     C212     CTL2    -0.180000       12.0110           0
     17269 MEMB     122      DOPC     H12R     HAL2     0.900000E-01   1.00800           0
     17270 MEMB     122      DOPC     H12S     HAL2     0.900000E-01   1.00800           0
     17271 MEMB     122      DOPC     C213     CTL2    -0.180000       12.0110           0
     17272 MEMB     122      DOPC     H13R     HAL2     0.900000E-01   1.00800           0
     17273 MEMB     122      DOPC     H13S     HAL2     0.900000E-01   1.00800           0
     17274 MEMB     122      DOPC     C214     CTL2    -0.180000       12.0110           0
     17275 MEMB     122      DOPC     H14R     HAL2     0.900000E-01   1.00800           0
     17276 MEMB     122      DOPC     H14S     HAL2     0.900000E-01   1.00800           0
     17277 MEMB     122      DOPC     C215     CTL2    -0.180000       12.0110           0
     17278 MEMB     122      DOPC     H15R     HAL2     0.900000E-01   1.00800           0
     17279 MEMB     122      DOPC     H15S     HAL2     0.900000E-01   1.00800           0
     17280 MEMB     122      DOPC     C216     CTL2    -0.180000       12.0110           0
     17281 MEMB     122      DOPC     H16R     HAL2     0.900000E-01   1.00800           0
     17282 MEMB     122      DOPC     H16S     HAL2     0.900000E-01   1.00800           0
     17283 MEMB     122      DOPC     C217     CTL2    -0.180000       12.0110           0
     17284 MEMB     122      DOPC     H17R     HAL2     0.900000E-01   1.00800           0
     17285 MEMB     122      DOPC     H17S     HAL2     0.900000E-01   1.00800           0
     17286 MEMB     122      DOPC     C218     CTL3    -0.270000       12.0110           0
     17287 MEMB     122      DOPC     H18R     HAL3     0.900000E-01   1.00800           0
     17288 MEMB     122      DOPC     H18S     HAL3     0.900000E-01   1.00800           0
     17289 MEMB     122      DOPC     H18T     HAL3     0.900000E-01   1.00800           0
     17290 MEMB     122      DOPC     C33      CTL2    -0.180000       12.0110           0
     17291 MEMB     122      DOPC     H3X      HAL2     0.900000E-01   1.00800           0
     17292 MEMB     122      DOPC     H3Y      HAL2     0.900000E-01   1.00800           0
     17293 MEMB     122      DOPC     C34      CTL2    -0.180000       12.0110           0
     17294 MEMB     122      DOPC     H4X      HAL2     0.900000E-01   1.00800           0
     17295 MEMB     122      DOPC     H4Y      HAL2     0.900000E-01   1.00800           0
     17296 MEMB     122      DOPC     C35      CTL2    -0.180000       12.0110           0
     17297 MEMB     122      DOPC     H5X      HAL2     0.900000E-01   1.00800           0
     17298 MEMB     122      DOPC     H5Y      HAL2     0.900000E-01   1.00800           0
     17299 MEMB     122      DOPC     C36      CTL2    -0.180000       12.0110           0
     17300 MEMB     122      DOPC     H6X      HAL2     0.900000E-01   1.00800           0
     17301 MEMB     122      DOPC     H6Y      HAL2     0.900000E-01   1.00800           0
     17302 MEMB     122      DOPC     C37      CTL2    -0.180000       12.0110           0
     17303 MEMB     122      DOPC     H7X      HAL2     0.900000E-01   1.00800           0
     17304 MEMB     122      DOPC     H7Y      HAL2     0.900000E-01   1.00800           0
     17305 MEMB     122      DOPC     C38      CTL2    -0.180000       12.0110           0
     17306 MEMB     122      DOPC     H8X      HAL2     0.900000E-01   1.00800           0
     17307 MEMB     122      DOPC     H8Y      HAL2     0.900000E-01   1.00800           0
     17308 MEMB     122      DOPC     C39      CEL1    -0.150000       12.0110           0
     17309 MEMB     122      DOPC     H9X      HEL1     0.150000       1.00800           0
     17310 MEMB     122      DOPC     C310     CEL1    -0.150000       12.0110           0
     17311 MEMB     122      DOPC     H10X     HEL1     0.150000       1.00800           0
     17312 MEMB     122      DOPC     C311     CTL2    -0.180000       12.0110           0
     17313 MEMB     122      DOPC     H11X     HAL2     0.900000E-01   1.00800           0
     17314 MEMB     122      DOPC     H11Y     HAL2     0.900000E-01   1.00800           0
     17315 MEMB     122      DOPC     C312     CTL2    -0.180000       12.0110           0
     17316 MEMB     122      DOPC     H12X     HAL2     0.900000E-01   1.00800           0
     17317 MEMB     122      DOPC     H12Y     HAL2     0.900000E-01   1.00800           0
     17318 MEMB     122      DOPC     C313     CTL2    -0.180000       12.0110           0
     17319 MEMB     122      DOPC     H13X     HAL2     0.900000E-01   1.00800           0
     17320 MEMB     122      DOPC     H13Y     HAL2     0.900000E-01   1.00800           0
     17321 MEMB     122      DOPC     C314     CTL2    -0.180000       12.0110           0
     17322 MEMB     122      DOPC     H14X     HAL2     0.900000E-01   1.00800           0
     17323 MEMB     122      DOPC     H14Y     HAL2     0.900000E-01   1.00800           0
     17324 MEMB     122      DOPC     C315     CTL2    -0.180000       12.0110           0
     17325 MEMB     122      DOPC     H15X     HAL2     0.900000E-01   1.00800           0
     17326 MEMB     122      DOPC     H15Y     HAL2     0.900000E-01   1.00800           0
     17327 MEMB     122      DOPC     C316     CTL2    -0.180000       12.0110           0
     17328 MEMB     122      DOPC     H16X     HAL2     0.900000E-01   1.00800           0
     17329 MEMB     122      DOPC     H16Y     HAL2     0.900000E-01   1.00800           0
     17330 MEMB     122      DOPC     C317     CTL2    -0.180000       12.0110           0
     17331 MEMB     122      DOPC     H17X     HAL2     0.900000E-01   1.00800           0
     17332 MEMB     122      DOPC     H17Y     HAL2     0.900000E-01   1.00800           0
     17333 MEMB     122      DOPC     C318     CTL3    -0.270000       12.0110           0
     17334 MEMB     122      DOPC     H18X     HAL3     0.900000E-01   1.00800           0
     17335 MEMB     122      DOPC     H18Y     HAL3     0.900000E-01   1.00800           0
     17336 MEMB     122      DOPC     H18Z     HAL3     0.900000E-01   1.00800           0
     17337 MEMB     123      DOPC     N        NTL     -0.600000       14.0070           0
     17338 MEMB     123      DOPC     C12      CTL2    -0.100000       12.0110           0
     17339 MEMB     123      DOPC     H12A     HL       0.250000       1.00800           0
     17340 MEMB     123      DOPC     H12B     HL       0.250000       1.00800           0
     17341 MEMB     123      DOPC     C13      CTL5    -0.350000       12.0110           0
     17342 MEMB     123      DOPC     H13A     HL       0.250000       1.00800           0
     17343 MEMB     123      DOPC     H13B     HL       0.250000       1.00800           0
     17344 MEMB     123      DOPC     H13C     HL       0.250000       1.00800           0
     17345 MEMB     123      DOPC     C14      CTL5    -0.350000       12.0110           0
     17346 MEMB     123      DOPC     H14A     HL       0.250000       1.00800           0
     17347 MEMB     123      DOPC     H14B     HL       0.250000       1.00800           0
     17348 MEMB     123      DOPC     H14C     HL       0.250000       1.00800           0
     17349 MEMB     123      DOPC     C15      CTL5    -0.350000       12.0110           0
     17350 MEMB     123      DOPC     H15A     HL       0.250000       1.00800           0
     17351 MEMB     123      DOPC     H15B     HL       0.250000       1.00800           0
     17352 MEMB     123      DOPC     H15C     HL       0.250000       1.00800           0
     17353 MEMB     123      DOPC     C11      CTL2    -0.800000E-01   12.0110           0
     17354 MEMB     123      DOPC     H11A     HAL2     0.900000E-01   1.00800           0
     17355 MEMB     123      DOPC     H11B     HAL2     0.900000E-01   1.00800           0
     17356 MEMB     123      DOPC     P        PL        1.50000       30.9740           0
     17357 MEMB     123      DOPC     O13      O2L     -0.780000       15.9994           0
     17358 MEMB     123      DOPC     O14      O2L     -0.780000       15.9994           0
     17359 MEMB     123      DOPC     O12      OSLP    -0.570000       15.9994           0
     17360 MEMB     123      DOPC     O11      OSLP    -0.570000       15.9994           0
     17361 MEMB     123      DOPC     C1       CTL2    -0.800000E-01   12.0110           0
     17362 MEMB     123      DOPC     HA       HAL2     0.900000E-01   1.00800           0
     17363 MEMB     123      DOPC     HB       HAL2     0.900000E-01   1.00800           0
     17364 MEMB     123      DOPC     C2       CTL1     0.170000       12.0110           0
     17365 MEMB     123      DOPC     HS       HAL1     0.900000E-01   1.00800           0
     17366 MEMB     123      DOPC     O21      OSL     -0.490000       15.9994           0
     17367 MEMB     123      DOPC     C21      CL       0.900000       12.0110           0
     17368 MEMB     123      DOPC     O22      OBL     -0.630000       15.9994           0
     17369 MEMB     123      DOPC     C22      CTL2    -0.220000       12.0110           0
     17370 MEMB     123      DOPC     H2R      HAL2     0.900000E-01   1.00800           0
     17371 MEMB     123      DOPC     H2S      HAL2     0.900000E-01   1.00800           0
     17372 MEMB     123      DOPC     C3       CTL2     0.800000E-01   12.0110           0
     17373 MEMB     123      DOPC     HX       HAL2     0.900000E-01   1.00800           0
     17374 MEMB     123      DOPC     HY       HAL2     0.900000E-01   1.00800           0
     17375 MEMB     123      DOPC     O31      OSL     -0.490000       15.9994           0
     17376 MEMB     123      DOPC     C31      CL       0.900000       12.0110           0
     17377 MEMB     123      DOPC     O32      OBL     -0.630000       15.9994           0
     17378 MEMB     123      DOPC     C32      CTL2    -0.220000       12.0110           0
     17379 MEMB     123      DOPC     H2X      HAL2     0.900000E-01   1.00800           0
     17380 MEMB     123      DOPC     H2Y      HAL2     0.900000E-01   1.00800           0
     17381 MEMB     123      DOPC     C23      CTL2    -0.180000       12.0110           0
     17382 MEMB     123      DOPC     H3R      HAL2     0.900000E-01   1.00800           0
     17383 MEMB     123      DOPC     H3S      HAL2     0.900000E-01   1.00800           0
     17384 MEMB     123      DOPC     C24      CTL2    -0.180000       12.0110           0
     17385 MEMB     123      DOPC     H4R      HAL2     0.900000E-01   1.00800           0
     17386 MEMB     123      DOPC     H4S      HAL2     0.900000E-01   1.00800           0
     17387 MEMB     123      DOPC     C25      CTL2    -0.180000       12.0110           0
     17388 MEMB     123      DOPC     H5R      HAL2     0.900000E-01   1.00800           0
     17389 MEMB     123      DOPC     H5S      HAL2     0.900000E-01   1.00800           0
     17390 MEMB     123      DOPC     C26      CTL2    -0.180000       12.0110           0
     17391 MEMB     123      DOPC     H6R      HAL2     0.900000E-01   1.00800           0
     17392 MEMB     123      DOPC     H6S      HAL2     0.900000E-01   1.00800           0
     17393 MEMB     123      DOPC     C27      CTL2    -0.180000       12.0110           0
     17394 MEMB     123      DOPC     H7R      HAL2     0.900000E-01   1.00800           0
     17395 MEMB     123      DOPC     H7S      HAL2     0.900000E-01   1.00800           0
     17396 MEMB     123      DOPC     C28      CTL2    -0.180000       12.0110           0
     17397 MEMB     123      DOPC     H8R      HAL2     0.900000E-01   1.00800           0
     17398 MEMB     123      DOPC     H8S      HAL2     0.900000E-01   1.00800           0
     17399 MEMB     123      DOPC     C29      CEL1    -0.150000       12.0110           0
     17400 MEMB     123      DOPC     H9R      HEL1     0.150000       1.00800           0
     17401 MEMB     123      DOPC     C210     CEL1    -0.150000       12.0110           0
     17402 MEMB     123      DOPC     H10R     HEL1     0.150000       1.00800           0
     17403 MEMB     123      DOPC     C211     CTL2    -0.180000       12.0110           0
     17404 MEMB     123      DOPC     H11R     HAL2     0.900000E-01   1.00800           0
     17405 MEMB     123      DOPC     H11S     HAL2     0.900000E-01   1.00800           0
     17406 MEMB     123      DOPC     C212     CTL2    -0.180000       12.0110           0
     17407 MEMB     123      DOPC     H12R     HAL2     0.900000E-01   1.00800           0
     17408 MEMB     123      DOPC     H12S     HAL2     0.900000E-01   1.00800           0
     17409 MEMB     123      DOPC     C213     CTL2    -0.180000       12.0110           0
     17410 MEMB     123      DOPC     H13R     HAL2     0.900000E-01   1.00800           0
     17411 MEMB     123      DOPC     H13S     HAL2     0.900000E-01   1.00800           0
     17412 MEMB     123      DOPC     C214     CTL2    -0.180000       12.0110           0
     17413 MEMB     123      DOPC     H14R     HAL2     0.900000E-01   1.00800           0
     17414 MEMB     123      DOPC     H14S     HAL2     0.900000E-01   1.00800           0
     17415 MEMB     123      DOPC     C215     CTL2    -0.180000       12.0110           0
     17416 MEMB     123      DOPC     H15R     HAL2     0.900000E-01   1.00800           0
     17417 MEMB     123      DOPC     H15S     HAL2     0.900000E-01   1.00800           0
     17418 MEMB     123      DOPC     C216     CTL2    -0.180000       12.0110           0
     17419 MEMB     123      DOPC     H16R     HAL2     0.900000E-01   1.00800           0
     17420 MEMB     123      DOPC     H16S     HAL2     0.900000E-01   1.00800           0
     17421 MEMB     123      DOPC     C217     CTL2    -0.180000       12.0110           0
     17422 MEMB     123      DOPC     H17R     HAL2     0.900000E-01   1.00800           0
     17423 MEMB     123      DOPC     H17S     HAL2     0.900000E-01   1.00800           0
     17424 MEMB     123      DOPC     C218     CTL3    -0.270000       12.0110           0
     17425 MEMB     123      DOPC     H18R     HAL3     0.900000E-01   1.00800           0
     17426 MEMB     123      DOPC     H18S     HAL3     0.900000E-01   1.00800           0
     17427 MEMB     123      DOPC     H18T     HAL3     0.900000E-01   1.00800           0
     17428 MEMB     123      DOPC     C33      CTL2    -0.180000       12.0110           0
     17429 MEMB     123      DOPC     H3X      HAL2     0.900000E-01   1.00800           0
     17430 MEMB     123      DOPC     H3Y      HAL2     0.900000E-01   1.00800           0
     17431 MEMB     123      DOPC     C34      CTL2    -0.180000       12.0110           0
     17432 MEMB     123      DOPC     H4X      HAL2     0.900000E-01   1.00800           0
     17433 MEMB     123      DOPC     H4Y      HAL2     0.900000E-01   1.00800           0
     17434 MEMB     123      DOPC     C35      CTL2    -0.180000       12.0110           0
     17435 MEMB     123      DOPC     H5X      HAL2     0.900000E-01   1.00800           0
     17436 MEMB     123      DOPC     H5Y      HAL2     0.900000E-01   1.00800           0
     17437 MEMB     123      DOPC     C36      CTL2    -0.180000       12.0110           0
     17438 MEMB     123      DOPC     H6X      HAL2     0.900000E-01   1.00800           0
     17439 MEMB     123      DOPC     H6Y      HAL2     0.900000E-01   1.00800           0
     17440 MEMB     123      DOPC     C37      CTL2    -0.180000       12.0110           0
     17441 MEMB     123      DOPC     H7X      HAL2     0.900000E-01   1.00800           0
     17442 MEMB     123      DOPC     H7Y      HAL2     0.900000E-01   1.00800           0
     17443 MEMB     123      DOPC     C38      CTL2    -0.180000       12.0110           0
     17444 MEMB     123      DOPC     H8X      HAL2     0.900000E-01   1.00800           0
     17445 MEMB     123      DOPC     H8Y      HAL2     0.900000E-01   1.00800           0
     17446 MEMB     123      DOPC     C39      CEL1    -0.150000       12.0110           0
     17447 MEMB     123      DOPC     H9X      HEL1     0.150000       1.00800           0
     17448 MEMB     123      DOPC     C310     CEL1    -0.150000       12.0110           0
     17449 MEMB     123      DOPC     H10X     HEL1     0.150000       1.00800           0
     17450 MEMB     123      DOPC     C311     CTL2    -0.180000       12.0110           0
     17451 MEMB     123      DOPC     H11X     HAL2     0.900000E-01   1.00800           0
     17452 MEMB     123      DOPC     H11Y     HAL2     0.900000E-01   1.00800           0
     17453 MEMB     123      DOPC     C312     CTL2    -0.180000       12.0110           0
     17454 MEMB     123      DOPC     H12X     HAL2     0.900000E-01   1.00800           0
     17455 MEMB     123      DOPC     H12Y     HAL2     0.900000E-01   1.00800           0
     17456 MEMB     123      DOPC     C313     CTL2    -0.180000       12.0110           0
     17457 MEMB     123      DOPC     H13X     HAL2     0.900000E-01   1.00800           0
     17458 MEMB     123      DOPC     H13Y     HAL2     0.900000E-01   1.00800           0
     17459 MEMB     123      DOPC     C314     CTL2    -0.180000       12.0110           0
     17460 MEMB     123      DOPC     H14X     HAL2     0.900000E-01   1.00800           0
     17461 MEMB     123      DOPC     H14Y     HAL2     0.900000E-01   1.00800           0
     17462 MEMB     123      DOPC     C315     CTL2    -0.180000       12.0110           0
     17463 MEMB     123      DOPC     H15X     HAL2     0.900000E-01   1.00800           0
     17464 MEMB     123      DOPC     H15Y     HAL2     0.900000E-01   1.00800           0
     17465 MEMB     123      DOPC     C316     CTL2    -0.180000       12.0110           0
     17466 MEMB     123      DOPC     H16X     HAL2     0.900000E-01   1.00800           0
     17467 MEMB     123      DOPC     H16Y     HAL2     0.900000E-01   1.00800           0
     17468 MEMB     123      DOPC     C317     CTL2    -0.180000       12.0110           0
     17469 MEMB     123      DOPC     H17X     HAL2     0.900000E-01   1.00800           0
     17470 MEMB     123      DOPC     H17Y     HAL2     0.900000E-01   1.00800           0
     17471 MEMB     123      DOPC     C318     CTL3    -0.270000       12.0110           0
     17472 MEMB     123      DOPC     H18X     HAL3     0.900000E-01   1.00800           0
     17473 MEMB     123      DOPC     H18Y     HAL3     0.900000E-01   1.00800           0
     17474 MEMB     123      DOPC     H18Z     HAL3     0.900000E-01   1.00800           0
     17475 MEMB     124      DOPC     N        NTL     -0.600000       14.0070           0
     17476 MEMB     124      DOPC     C12      CTL2    -0.100000       12.0110           0
     17477 MEMB     124      DOPC     H12A     HL       0.250000       1.00800           0
     17478 MEMB     124      DOPC     H12B     HL       0.250000       1.00800           0
     17479 MEMB     124      DOPC     C13      CTL5    -0.350000       12.0110           0
     17480 MEMB     124      DOPC     H13A     HL       0.250000       1.00800           0
     17481 MEMB     124      DOPC     H13B     HL       0.250000       1.00800           0
     17482 MEMB     124      DOPC     H13C     HL       0.250000       1.00800           0
     17483 MEMB     124      DOPC     C14      CTL5    -0.350000       12.0110           0
     17484 MEMB     124      DOPC     H14A     HL       0.250000       1.00800           0
     17485 MEMB     124      DOPC     H14B     HL       0.250000       1.00800           0
     17486 MEMB     124      DOPC     H14C     HL       0.250000       1.00800           0
     17487 MEMB     124      DOPC     C15      CTL5    -0.350000       12.0110           0
     17488 MEMB     124      DOPC     H15A     HL       0.250000       1.00800           0
     17489 MEMB     124      DOPC     H15B     HL       0.250000       1.00800           0
     17490 MEMB     124      DOPC     H15C     HL       0.250000       1.00800           0
     17491 MEMB     124      DOPC     C11      CTL2    -0.800000E-01   12.0110           0
     17492 MEMB     124      DOPC     H11A     HAL2     0.900000E-01   1.00800           0
     17493 MEMB     124      DOPC     H11B     HAL2     0.900000E-01   1.00800           0
     17494 MEMB     124      DOPC     P        PL        1.50000       30.9740           0
     17495 MEMB     124      DOPC     O13      O2L     -0.780000       15.9994           0
     17496 MEMB     124      DOPC     O14      O2L     -0.780000       15.9994           0
     17497 MEMB     124      DOPC     O12      OSLP    -0.570000       15.9994           0
     17498 MEMB     124      DOPC     O11      OSLP    -0.570000       15.9994           0
     17499 MEMB     124      DOPC     C1       CTL2    -0.800000E-01   12.0110           0
     17500 MEMB     124      DOPC     HA       HAL2     0.900000E-01   1.00800           0
     17501 MEMB     124      DOPC     HB       HAL2     0.900000E-01   1.00800           0
     17502 MEMB     124      DOPC     C2       CTL1     0.170000       12.0110           0
     17503 MEMB     124      DOPC     HS       HAL1     0.900000E-01   1.00800           0
     17504 MEMB     124      DOPC     O21      OSL     -0.490000       15.9994           0
     17505 MEMB     124      DOPC     C21      CL       0.900000       12.0110           0
     17506 MEMB     124      DOPC     O22      OBL     -0.630000       15.9994           0
     17507 MEMB     124      DOPC     C22      CTL2    -0.220000       12.0110           0
     17508 MEMB     124      DOPC     H2R      HAL2     0.900000E-01   1.00800           0
     17509 MEMB     124      DOPC     H2S      HAL2     0.900000E-01   1.00800           0
     17510 MEMB     124      DOPC     C3       CTL2     0.800000E-01   12.0110           0
     17511 MEMB     124      DOPC     HX       HAL2     0.900000E-01   1.00800           0
     17512 MEMB     124      DOPC     HY       HAL2     0.900000E-01   1.00800           0
     17513 MEMB     124      DOPC     O31      OSL     -0.490000       15.9994           0
     17514 MEMB     124      DOPC     C31      CL       0.900000       12.0110           0
     17515 MEMB     124      DOPC     O32      OBL     -0.630000       15.9994           0
     17516 MEMB     124      DOPC     C32      CTL2    -0.220000       12.0110           0
     17517 MEMB     124      DOPC     H2X      HAL2     0.900000E-01   1.00800           0
     17518 MEMB     124      DOPC     H2Y      HAL2     0.900000E-01   1.00800           0
     17519 MEMB     124      DOPC     C23      CTL2    -0.180000       12.0110           0
     17520 MEMB     124      DOPC     H3R      HAL2     0.900000E-01   1.00800           0
     17521 MEMB     124      DOPC     H3S      HAL2     0.900000E-01   1.00800           0
     17522 MEMB     124      DOPC     C24      CTL2    -0.180000       12.0110           0
     17523 MEMB     124      DOPC     H4R      HAL2     0.900000E-01   1.00800           0
     17524 MEMB     124      DOPC     H4S      HAL2     0.900000E-01   1.00800           0
     17525 MEMB     124      DOPC     C25      CTL2    -0.180000       12.0110           0
     17526 MEMB     124      DOPC     H5R      HAL2     0.900000E-01   1.00800           0
     17527 MEMB     124      DOPC     H5S      HAL2     0.900000E-01   1.00800           0
     17528 MEMB     124      DOPC     C26      CTL2    -0.180000       12.0110           0
     17529 MEMB     124      DOPC     H6R      HAL2     0.900000E-01   1.00800           0
     17530 MEMB     124      DOPC     H6S      HAL2     0.900000E-01   1.00800           0
     17531 MEMB     124      DOPC     C27      CTL2    -0.180000       12.0110           0
     17532 MEMB     124      DOPC     H7R      HAL2     0.900000E-01   1.00800           0
     17533 MEMB     124      DOPC     H7S      HAL2     0.900000E-01   1.00800           0
     17534 MEMB     124      DOPC     C28      CTL2    -0.180000       12.0110           0
     17535 MEMB     124      DOPC     H8R      HAL2     0.900000E-01   1.00800           0
     17536 MEMB     124      DOPC     H8S      HAL2     0.900000E-01   1.00800           0
     17537 MEMB     124      DOPC     C29      CEL1    -0.150000       12.0110           0
     17538 MEMB     124      DOPC     H9R      HEL1     0.150000       1.00800           0
     17539 MEMB     124      DOPC     C210     CEL1    -0.150000       12.0110           0
     17540 MEMB     124      DOPC     H10R     HEL1     0.150000       1.00800           0
     17541 MEMB     124      DOPC     C211     CTL2    -0.180000       12.0110           0
     17542 MEMB     124      DOPC     H11R     HAL2     0.900000E-01   1.00800           0
     17543 MEMB     124      DOPC     H11S     HAL2     0.900000E-01   1.00800           0
     17544 MEMB     124      DOPC     C212     CTL2    -0.180000       12.0110           0
     17545 MEMB     124      DOPC     H12R     HAL2     0.900000E-01   1.00800           0
     17546 MEMB     124      DOPC     H12S     HAL2     0.900000E-01   1.00800           0
     17547 MEMB     124      DOPC     C213     CTL2    -0.180000       12.0110           0
     17548 MEMB     124      DOPC     H13R     HAL2     0.900000E-01   1.00800           0
     17549 MEMB     124      DOPC     H13S     HAL2     0.900000E-01   1.00800           0
     17550 MEMB     124      DOPC     C214     CTL2    -0.180000       12.0110           0
     17551 MEMB     124      DOPC     H14R     HAL2     0.900000E-01   1.00800           0
     17552 MEMB     124      DOPC     H14S     HAL2     0.900000E-01   1.00800           0
     17553 MEMB     124      DOPC     C215     CTL2    -0.180000       12.0110           0
     17554 MEMB     124      DOPC     H15R     HAL2     0.900000E-01   1.00800           0
     17555 MEMB     124      DOPC     H15S     HAL2     0.900000E-01   1.00800           0
     17556 MEMB     124      DOPC     C216     CTL2    -0.180000       12.0110           0
     17557 MEMB     124      DOPC     H16R     HAL2     0.900000E-01   1.00800           0
     17558 MEMB     124      DOPC     H16S     HAL2     0.900000E-01   1.00800           0
     17559 MEMB     124      DOPC     C217     CTL2    -0.180000       12.0110           0
     17560 MEMB     124      DOPC     H17R     HAL2     0.900000E-01   1.00800           0
     17561 MEMB     124      DOPC     H17S     HAL2     0.900000E-01   1.00800           0
     17562 MEMB     124      DOPC     C218     CTL3    -0.270000       12.0110           0
     17563 MEMB     124      DOPC     H18R     HAL3     0.900000E-01   1.00800           0
     17564 MEMB     124      DOPC     H18S     HAL3     0.900000E-01   1.00800           0
     17565 MEMB     124      DOPC     H18T     HAL3     0.900000E-01   1.00800           0
     17566 MEMB     124      DOPC     C33      CTL2    -0.180000       12.0110           0
     17567 MEMB     124      DOPC     H3X      HAL2     0.900000E-01   1.00800           0
     17568 MEMB     124      DOPC     H3Y      HAL2     0.900000E-01   1.00800           0
     17569 MEMB     124      DOPC     C34      CTL2    -0.180000       12.0110           0
     17570 MEMB     124      DOPC     H4X      HAL2     0.900000E-01   1.00800           0
     17571 MEMB     124      DOPC     H4Y      HAL2     0.900000E-01   1.00800           0
     17572 MEMB     124      DOPC     C35      CTL2    -0.180000       12.0110           0
     17573 MEMB     124      DOPC     H5X      HAL2     0.900000E-01   1.00800           0
     17574 MEMB     124      DOPC     H5Y      HAL2     0.900000E-01   1.00800           0
     17575 MEMB     124      DOPC     C36      CTL2    -0.180000       12.0110           0
     17576 MEMB     124      DOPC     H6X      HAL2     0.900000E-01   1.00800           0
     17577 MEMB     124      DOPC     H6Y      HAL2     0.900000E-01   1.00800           0
     17578 MEMB     124      DOPC     C37      CTL2    -0.180000       12.0110           0
     17579 MEMB     124      DOPC     H7X      HAL2     0.900000E-01   1.00800           0
     17580 MEMB     124      DOPC     H7Y      HAL2     0.900000E-01   1.00800           0
     17581 MEMB     124      DOPC     C38      CTL2    -0.180000       12.0110           0
     17582 MEMB     124      DOPC     H8X      HAL2     0.900000E-01   1.00800           0
     17583 MEMB     124      DOPC     H8Y      HAL2     0.900000E-01   1.00800           0
     17584 MEMB     124      DOPC     C39      CEL1    -0.150000       12.0110           0
     17585 MEMB     124      DOPC     H9X      HEL1     0.150000       1.00800           0
     17586 MEMB     124      DOPC     C310     CEL1    -0.150000       12.0110           0
     17587 MEMB     124      DOPC     H10X     HEL1     0.150000       1.00800           0
     17588 MEMB     124      DOPC     C311     CTL2    -0.180000       12.0110           0
     17589 MEMB     124      DOPC     H11X     HAL2     0.900000E-01   1.00800           0
     17590 MEMB     124      DOPC     H11Y     HAL2     0.900000E-01   1.00800           0
     17591 MEMB     124      DOPC     C312     CTL2    -0.180000       12.0110           0
     17592 MEMB     124      DOPC     H12X     HAL2     0.900000E-01   1.00800           0
     17593 MEMB     124      DOPC     H12Y     HAL2     0.900000E-01   1.00800           0
     17594 MEMB     124      DOPC     C313     CTL2    -0.180000       12.0110           0
     17595 MEMB     124      DOPC     H13X     HAL2     0.900000E-01   1.00800           0
     17596 MEMB     124      DOPC     H13Y     HAL2     0.900000E-01   1.00800           0
     17597 MEMB     124      DOPC     C314     CTL2    -0.180000       12.0110           0
     17598 MEMB     124      DOPC     H14X     HAL2     0.900000E-01   1.00800           0
     17599 MEMB     124      DOPC     H14Y     HAL2     0.900000E-01   1.00800           0
     17600 MEMB     124      DOPC     C315     CTL2    -0.180000       12.0110           0
     17601 MEMB     124      DOPC     H15X     HAL2     0.900000E-01   1.00800           0
     17602 MEMB     124      DOPC     H15Y     HAL2     0.900000E-01   1.00800           0
     17603 MEMB     124      DOPC     C316     CTL2    -0.180000       12.0110           0
     17604 MEMB     124      DOPC     H16X     HAL2     0.900000E-01   1.00800           0
     17605 MEMB     124      DOPC     H16Y     HAL2     0.900000E-01   1.00800           0
     17606 MEMB     124      DOPC     C317     CTL2    -0.180000       12.0110           0
     17607 MEMB     124      DOPC     H17X     HAL2     0.900000E-01   1.00800           0
     17608 MEMB     124      DOPC     H17Y     HAL2     0.900000E-01   1.00800           0
     17609 MEMB     124      DOPC     C318     CTL3    -0.270000       12.0110           0
     17610 MEMB     124      DOPC     H18X     HAL3     0.900000E-01   1.00800           0
     17611 MEMB     124      DOPC     H18Y     HAL3     0.900000E-01   1.00800           0
     17612 MEMB     124      DOPC     H18Z     HAL3     0.900000E-01   1.00800           0
     17613 MEMB     125      DOPC     N        NTL     -0.600000       14.0070           0
     17614 MEMB     125      DOPC     C12      CTL2    -0.100000       12.0110           0
     17615 MEMB     125      DOPC     H12A     HL       0.250000       1.00800           0
     17616 MEMB     125      DOPC     H12B     HL       0.250000       1.00800           0
     17617 MEMB     125      DOPC     C13      CTL5    -0.350000       12.0110           0
     17618 MEMB     125      DOPC     H13A     HL       0.250000       1.00800           0
     17619 MEMB     125      DOPC     H13B     HL       0.250000       1.00800           0
     17620 MEMB     125      DOPC     H13C     HL       0.250000       1.00800           0
     17621 MEMB     125      DOPC     C14      CTL5    -0.350000       12.0110           0
     17622 MEMB     125      DOPC     H14A     HL       0.250000       1.00800           0
     17623 MEMB     125      DOPC     H14B     HL       0.250000       1.00800           0
     17624 MEMB     125      DOPC     H14C     HL       0.250000       1.00800           0
     17625 MEMB     125      DOPC     C15      CTL5    -0.350000       12.0110           0
     17626 MEMB     125      DOPC     H15A     HL       0.250000       1.00800           0
     17627 MEMB     125      DOPC     H15B     HL       0.250000       1.00800           0
     17628 MEMB     125      DOPC     H15C     HL       0.250000       1.00800           0
     17629 MEMB     125      DOPC     C11      CTL2    -0.800000E-01   12.0110           0
     17630 MEMB     125      DOPC     H11A     HAL2     0.900000E-01   1.00800           0
     17631 MEMB     125      DOPC     H11B     HAL2     0.900000E-01   1.00800           0
     17632 MEMB     125      DOPC     P        PL        1.50000       30.9740           0
     17633 MEMB     125      DOPC     O13      O2L     -0.780000       15.9994           0
     17634 MEMB     125      DOPC     O14      O2L     -0.780000       15.9994           0
     17635 MEMB     125      DOPC     O12      OSLP    -0.570000       15.9994           0
     17636 MEMB     125      DOPC     O11      OSLP    -0.570000       15.9994           0
     17637 MEMB     125      DOPC     C1       CTL2    -0.800000E-01   12.0110           0
     17638 MEMB     125      DOPC     HA       HAL2     0.900000E-01   1.00800           0
     17639 MEMB     125      DOPC     HB       HAL2     0.900000E-01   1.00800           0
     17640 MEMB     125      DOPC     C2       CTL1     0.170000       12.0110           0
     17641 MEMB     125      DOPC     HS       HAL1     0.900000E-01   1.00800           0
     17642 MEMB     125      DOPC     O21      OSL     -0.490000       15.9994           0
     17643 MEMB     125      DOPC     C21      CL       0.900000       12.0110           0
     17644 MEMB     125      DOPC     O22      OBL     -0.630000       15.9994           0
     17645 MEMB     125      DOPC     C22      CTL2    -0.220000       12.0110           0
     17646 MEMB     125      DOPC     H2R      HAL2     0.900000E-01   1.00800           0
     17647 MEMB     125      DOPC     H2S      HAL2     0.900000E-01   1.00800           0
     17648 MEMB     125      DOPC     C3       CTL2     0.800000E-01   12.0110           0
     17649 MEMB     125      DOPC     HX       HAL2     0.900000E-01   1.00800           0
     17650 MEMB     125      DOPC     HY       HAL2     0.900000E-01   1.00800           0
     17651 MEMB     125      DOPC     O31      OSL     -0.490000       15.9994           0
     17652 MEMB     125      DOPC     C31      CL       0.900000       12.0110           0
     17653 MEMB     125      DOPC     O32      OBL     -0.630000       15.9994           0
     17654 MEMB     125      DOPC     C32      CTL2    -0.220000       12.0110           0
     17655 MEMB     125      DOPC     H2X      HAL2     0.900000E-01   1.00800           0
     17656 MEMB     125      DOPC     H2Y      HAL2     0.900000E-01   1.00800           0
     17657 MEMB     125      DOPC     C23      CTL2    -0.180000       12.0110           0
     17658 MEMB     125      DOPC     H3R      HAL2     0.900000E-01   1.00800           0
     17659 MEMB     125      DOPC     H3S      HAL2     0.900000E-01   1.00800           0
     17660 MEMB     125      DOPC     C24      CTL2    -0.180000       12.0110           0
     17661 MEMB     125      DOPC     H4R      HAL2     0.900000E-01   1.00800           0
     17662 MEMB     125      DOPC     H4S      HAL2     0.900000E-01   1.00800           0
     17663 MEMB     125      DOPC     C25      CTL2    -0.180000       12.0110           0
     17664 MEMB     125      DOPC     H5R      HAL2     0.900000E-01   1.00800           0
     17665 MEMB     125      DOPC     H5S      HAL2     0.900000E-01   1.00800           0
     17666 MEMB     125      DOPC     C26      CTL2    -0.180000       12.0110           0
     17667 MEMB     125      DOPC     H6R      HAL2     0.900000E-01   1.00800           0
     17668 MEMB     125      DOPC     H6S      HAL2     0.900000E-01   1.00800           0
     17669 MEMB     125      DOPC     C27      CTL2    -0.180000       12.0110           0
     17670 MEMB     125      DOPC     H7R      HAL2     0.900000E-01   1.00800           0
     17671 MEMB     125      DOPC     H7S      HAL2     0.900000E-01   1.00800           0
     17672 MEMB     125      DOPC     C28      CTL2    -0.180000       12.0110           0
     17673 MEMB     125      DOPC     H8R      HAL2     0.900000E-01   1.00800           0
     17674 MEMB     125      DOPC     H8S      HAL2     0.900000E-01   1.00800           0
     17675 MEMB     125      DOPC     C29      CEL1    -0.150000       12.0110           0
     17676 MEMB     125      DOPC     H9R      HEL1     0.150000       1.00800           0
     17677 MEMB     125      DOPC     C210     CEL1    -0.150000       12.0110           0
     17678 MEMB     125      DOPC     H10R     HEL1     0.150000       1.00800           0
     17679 MEMB     125      DOPC     C211     CTL2    -0.180000       12.0110           0
     17680 MEMB     125      DOPC     H11R     HAL2     0.900000E-01   1.00800           0
     17681 MEMB     125      DOPC     H11S     HAL2     0.900000E-01   1.00800           0
     17682 MEMB     125      DOPC     C212     CTL2    -0.180000       12.0110           0
     17683 MEMB     125      DOPC     H12R     HAL2     0.900000E-01   1.00800           0
     17684 MEMB     125      DOPC     H12S     HAL2     0.900000E-01   1.00800           0
     17685 MEMB     125      DOPC     C213     CTL2    -0.180000       12.0110           0
     17686 MEMB     125      DOPC     H13R     HAL2     0.900000E-01   1.00800           0
     17687 MEMB     125      DOPC     H13S     HAL2     0.900000E-01   1.00800           0
     17688 MEMB     125      DOPC     C214     CTL2    -0.180000       12.0110           0
     17689 MEMB     125      DOPC     H14R     HAL2     0.900000E-01   1.00800           0
     17690 MEMB     125      DOPC     H14S     HAL2     0.900000E-01   1.00800           0
     17691 MEMB     125      DOPC     C215     CTL2    -0.180000       12.0110           0
     17692 MEMB     125      DOPC     H15R     HAL2     0.900000E-01   1.00800           0
     17693 MEMB     125      DOPC     H15S     HAL2     0.900000E-01   1.00800           0
     17694 MEMB     125      DOPC     C216     CTL2    -0.180000       12.0110           0
     17695 MEMB     125      DOPC     H16R     HAL2     0.900000E-01   1.00800           0
     17696 MEMB     125      DOPC     H16S     HAL2     0.900000E-01   1.00800           0
     17697 MEMB     125      DOPC     C217     CTL2    -0.180000       12.0110           0
     17698 MEMB     125      DOPC     H17R     HAL2     0.900000E-01   1.00800           0
     17699 MEMB     125      DOPC     H17S     HAL2     0.900000E-01   1.00800           0
     17700 MEMB     125      DOPC     C218     CTL3    -0.270000       12.0110           0
     17701 MEMB     125      DOPC     H18R     HAL3     0.900000E-01   1.00800           0
     17702 MEMB     125      DOPC     H18S     HAL3     0.900000E-01   1.00800           0
     17703 MEMB     125      DOPC     H18T     HAL3     0.900000E-01   1.00800           0
     17704 MEMB     125      DOPC     C33      CTL2    -0.180000       12.0110           0
     17705 MEMB     125      DOPC     H3X      HAL2     0.900000E-01   1.00800           0
     17706 MEMB     125      DOPC     H3Y      HAL2     0.900000E-01   1.00800           0
     17707 MEMB     125      DOPC     C34      CTL2    -0.180000       12.0110           0
     17708 MEMB     125      DOPC     H4X      HAL2     0.900000E-01   1.00800           0
     17709 MEMB     125      DOPC     H4Y      HAL2     0.900000E-01   1.00800           0
     17710 MEMB     125      DOPC     C35      CTL2    -0.180000       12.0110           0
     17711 MEMB     125      DOPC     H5X      HAL2     0.900000E-01   1.00800           0
     17712 MEMB     125      DOPC     H5Y      HAL2     0.900000E-01   1.00800           0
     17713 MEMB     125      DOPC     C36      CTL2    -0.180000       12.0110           0
     17714 MEMB     125      DOPC     H6X      HAL2     0.900000E-01   1.00800           0
     17715 MEMB     125      DOPC     H6Y      HAL2     0.900000E-01   1.00800           0
     17716 MEMB     125      DOPC     C37      CTL2    -0.180000       12.0110           0
     17717 MEMB     125      DOPC     H7X      HAL2     0.900000E-01   1.00800           0
     17718 MEMB     125      DOPC     H7Y      HAL2     0.900000E-01   1.00800           0
     17719 MEMB     125      DOPC     C38      CTL2    -0.180000       12.0110           0
     17720 MEMB     125      DOPC     H8X      HAL2     0.900000E-01   1.00800           0
     17721 MEMB     125      DOPC     H8Y      HAL2     0.900000E-01   1.00800           0
     17722 MEMB     125      DOPC     C39      CEL1    -0.150000       12.0110           0
     17723 MEMB     125      DOPC     H9X      HEL1     0.150000       1.00800           0
     17724 MEMB     125      DOPC     C310     CEL1    -0.150000       12.0110           0
     17725 MEMB     125      DOPC     H10X     HEL1     0.150000       1.00800           0
     17726 MEMB     125      DOPC     C311     CTL2    -0.180000       12.0110           0
     17727 MEMB     125      DOPC     H11X     HAL2     0.900000E-01   1.00800           0
     17728 MEMB     125      DOPC     H11Y     HAL2     0.900000E-01   1.00800           0
     17729 MEMB     125      DOPC     C312     CTL2    -0.180000       12.0110           0
     17730 MEMB     125      DOPC     H12X     HAL2     0.900000E-01   1.00800           0
     17731 MEMB     125      DOPC     H12Y     HAL2     0.900000E-01   1.00800           0
     17732 MEMB     125      DOPC     C313     CTL2    -0.180000       12.0110           0
     17733 MEMB     125      DOPC     H13X     HAL2     0.900000E-01   1.00800           0
     17734 MEMB     125      DOPC     H13Y     HAL2     0.900000E-01   1.00800           0
     17735 MEMB     125      DOPC     C314     CTL2    -0.180000       12.0110           0
     17736 MEMB     125      DOPC     H14X     HAL2     0.900000E-01   1.00800           0
     17737 MEMB     125      DOPC     H14Y     HAL2     0.900000E-01   1.00800           0
     17738 MEMB     125      DOPC     C315     CTL2    -0.180000       12.0110           0
     17739 MEMB     125      DOPC     H15X     HAL2     0.900000E-01   1.00800           0
     17740 MEMB     125      DOPC     H15Y     HAL2     0.900000E-01   1.00800           0
     17741 MEMB     125      DOPC     C316     CTL2    -0.180000       12.0110           0
     17742 MEMB     125      DOPC     H16X     HAL2     0.900000E-01   1.00800           0
     17743 MEMB     125      DOPC     H16Y     HAL2     0.900000E-01   1.00800           0
     17744 MEMB     125      DOPC     C317     CTL2    -0.180000       12.0110           0
     17745 MEMB     125      DOPC     H17X     HAL2     0.900000E-01   1.00800           0
     17746 MEMB     125      DOPC     H17Y     HAL2     0.900000E-01   1.00800           0
     17747 MEMB     125      DOPC     C318     CTL3    -0.270000       12.0110           0
     17748 MEMB     125      DOPC     H18X     HAL3     0.900000E-01   1.00800           0
     17749 MEMB     125      DOPC     H18Y     HAL3     0.900000E-01   1.00800           0
     17750 MEMB     125      DOPC     H18Z     HAL3     0.900000E-01   1.00800           0
     17751 MEMB     126      DOPC     N        NTL     -0.600000       14.0070           0
     17752 MEMB     126      DOPC     C12      CTL2    -0.100000       12.0110           0
     17753 MEMB     126      DOPC     H12A     HL       0.250000       1.00800           0
     17754 MEMB     126      DOPC     H12B     HL       0.250000       1.00800           0
     17755 MEMB     126      DOPC     C13      CTL5    -0.350000       12.0110           0
     17756 MEMB     126      DOPC     H13A     HL       0.250000       1.00800           0
     17757 MEMB     126      DOPC     H13B     HL       0.250000       1.00800           0
     17758 MEMB     126      DOPC     H13C     HL       0.250000       1.00800           0
     17759 MEMB     126      DOPC     C14      CTL5    -0.350000       12.0110           0
     17760 MEMB     126      DOPC     H14A     HL       0.250000       1.00800           0
     17761 MEMB     126      DOPC     H14B     HL       0.250000       1.00800           0
     17762 MEMB     126      DOPC     H14C     HL       0.250000       1.00800           0
     17763 MEMB     126      DOPC     C15      CTL5    -0.350000       12.0110           0
     17764 MEMB     126      DOPC     H15A     HL       0.250000       1.00800           0
     17765 MEMB     126      DOPC     H15B     HL       0.250000       1.00800           0
     17766 MEMB     126      DOPC     H15C     HL       0.250000       1.00800           0
     17767 MEMB     126      DOPC     C11      CTL2    -0.800000E-01   12.0110           0
     17768 MEMB     126      DOPC     H11A     HAL2     0.900000E-01   1.00800           0
     17769 MEMB     126      DOPC     H11B     HAL2     0.900000E-01   1.00800           0
     17770 MEMB     126      DOPC     P        PL        1.50000       30.9740           0
     17771 MEMB     126      DOPC     O13      O2L     -0.780000       15.9994           0
     17772 MEMB     126      DOPC     O14      O2L     -0.780000       15.9994           0
     17773 MEMB     126      DOPC     O12      OSLP    -0.570000       15.9994           0
     17774 MEMB     126      DOPC     O11      OSLP    -0.570000       15.9994           0
     17775 MEMB     126      DOPC     C1       CTL2    -0.800000E-01   12.0110           0
     17776 MEMB     126      DOPC     HA       HAL2     0.900000E-01   1.00800           0
     17777 MEMB     126      DOPC     HB       HAL2     0.900000E-01   1.00800           0
     17778 MEMB     126      DOPC     C2       CTL1     0.170000       12.0110           0
     17779 MEMB     126      DOPC     HS       HAL1     0.900000E-01   1.00800           0
     17780 MEMB     126      DOPC     O21      OSL     -0.490000       15.9994           0
     17781 MEMB     126      DOPC     C21      CL       0.900000       12.0110           0
     17782 MEMB     126      DOPC     O22      OBL     -0.630000       15.9994           0
     17783 MEMB     126      DOPC     C22      CTL2    -0.220000       12.0110           0
     17784 MEMB     126      DOPC     H2R      HAL2     0.900000E-01   1.00800           0
     17785 MEMB     126      DOPC     H2S      HAL2     0.900000E-01   1.00800           0
     17786 MEMB     126      DOPC     C3       CTL2     0.800000E-01   12.0110           0
     17787 MEMB     126      DOPC     HX       HAL2     0.900000E-01   1.00800           0
     17788 MEMB     126      DOPC     HY       HAL2     0.900000E-01   1.00800           0
     17789 MEMB     126      DOPC     O31      OSL     -0.490000       15.9994           0
     17790 MEMB     126      DOPC     C31      CL       0.900000       12.0110           0
     17791 MEMB     126      DOPC     O32      OBL     -0.630000       15.9994           0
     17792 MEMB     126      DOPC     C32      CTL2    -0.220000       12.0110           0
     17793 MEMB     126      DOPC     H2X      HAL2     0.900000E-01   1.00800           0
     17794 MEMB     126      DOPC     H2Y      HAL2     0.900000E-01   1.00800           0
     17795 MEMB     126      DOPC     C23      CTL2    -0.180000       12.0110           0
     17796 MEMB     126      DOPC     H3R      HAL2     0.900000E-01   1.00800           0
     17797 MEMB     126      DOPC     H3S      HAL2     0.900000E-01   1.00800           0
     17798 MEMB     126      DOPC     C24      CTL2    -0.180000       12.0110           0
     17799 MEMB     126      DOPC     H4R      HAL2     0.900000E-01   1.00800           0
     17800 MEMB     126      DOPC     H4S      HAL2     0.900000E-01   1.00800           0
     17801 MEMB     126      DOPC     C25      CTL2    -0.180000       12.0110           0
     17802 MEMB     126      DOPC     H5R      HAL2     0.900000E-01   1.00800           0
     17803 MEMB     126      DOPC     H5S      HAL2     0.900000E-01   1.00800           0
     17804 MEMB     126      DOPC     C26      CTL2    -0.180000       12.0110           0
     17805 MEMB     126      DOPC     H6R      HAL2     0.900000E-01   1.00800           0
     17806 MEMB     126      DOPC     H6S      HAL2     0.900000E-01   1.00800           0
     17807 MEMB     126      DOPC     C27      CTL2    -0.180000       12.0110           0
     17808 MEMB     126      DOPC     H7R      HAL2     0.900000E-01   1.00800           0
     17809 MEMB     126      DOPC     H7S      HAL2     0.900000E-01   1.00800           0
     17810 MEMB     126      DOPC     C28      CTL2    -0.180000       12.0110           0
     17811 MEMB     126      DOPC     H8R      HAL2     0.900000E-01   1.00800           0
     17812 MEMB     126      DOPC     H8S      HAL2     0.900000E-01   1.00800           0
     17813 MEMB     126      DOPC     C29      CEL1    -0.150000       12.0110           0
     17814 MEMB     126      DOPC     H9R      HEL1     0.150000       1.00800           0
     17815 MEMB     126      DOPC     C210     CEL1    -0.150000       12.0110           0
     17816 MEMB     126      DOPC     H10R     HEL1     0.150000       1.00800           0
     17817 MEMB     126      DOPC     C211     CTL2    -0.180000       12.0110           0
     17818 MEMB     126      DOPC     H11R     HAL2     0.900000E-01   1.00800           0
     17819 MEMB     126      DOPC     H11S     HAL2     0.900000E-01   1.00800           0
     17820 MEMB     126      DOPC     C212     CTL2    -0.180000       12.0110           0
     17821 MEMB     126      DOPC     H12R     HAL2     0.900000E-01   1.00800           0
     17822 MEMB     126      DOPC     H12S     HAL2     0.900000E-01   1.00800           0
     17823 MEMB     126      DOPC     C213     CTL2    -0.180000       12.0110           0
     17824 MEMB     126      DOPC     H13R     HAL2     0.900000E-01   1.00800           0
     17825 MEMB     126      DOPC     H13S     HAL2     0.900000E-01   1.00800           0
     17826 MEMB     126      DOPC     C214     CTL2    -0.180000       12.0110           0
     17827 MEMB     126      DOPC     H14R     HAL2     0.900000E-01   1.00800           0
     17828 MEMB     126      DOPC     H14S     HAL2     0.900000E-01   1.00800           0
     17829 MEMB     126      DOPC     C215     CTL2    -0.180000       12.0110           0
     17830 MEMB     126      DOPC     H15R     HAL2     0.900000E-01   1.00800           0
     17831 MEMB     126      DOPC     H15S     HAL2     0.900000E-01   1.00800           0
     17832 MEMB     126      DOPC     C216     CTL2    -0.180000       12.0110           0
     17833 MEMB     126      DOPC     H16R     HAL2     0.900000E-01   1.00800           0
     17834 MEMB     126      DOPC     H16S     HAL2     0.900000E-01   1.00800           0
     17835 MEMB     126      DOPC     C217     CTL2    -0.180000       12.0110           0
     17836 MEMB     126      DOPC     H17R     HAL2     0.900000E-01   1.00800           0
     17837 MEMB     126      DOPC     H17S     HAL2     0.900000E-01   1.00800           0
     17838 MEMB     126      DOPC     C218     CTL3    -0.270000       12.0110           0
     17839 MEMB     126      DOPC     H18R     HAL3     0.900000E-01   1.00800           0
     17840 MEMB     126      DOPC     H18S     HAL3     0.900000E-01   1.00800           0
     17841 MEMB     126      DOPC     H18T     HAL3     0.900000E-01   1.00800           0
     17842 MEMB     126      DOPC     C33      CTL2    -0.180000       12.0110           0
     17843 MEMB     126      DOPC     H3X      HAL2     0.900000E-01   1.00800           0
     17844 MEMB     126      DOPC     H3Y      HAL2     0.900000E-01   1.00800           0
     17845 MEMB     126      DOPC     C34      CTL2    -0.180000       12.0110           0
     17846 MEMB     126      DOPC     H4X      HAL2     0.900000E-01   1.00800           0
     17847 MEMB     126      DOPC     H4Y      HAL2     0.900000E-01   1.00800           0
     17848 MEMB     126      DOPC     C35      CTL2    -0.180000       12.0110           0
     17849 MEMB     126      DOPC     H5X      HAL2     0.900000E-01   1.00800           0
     17850 MEMB     126      DOPC     H5Y      HAL2     0.900000E-01   1.00800           0
     17851 MEMB     126      DOPC     C36      CTL2    -0.180000       12.0110           0
     17852 MEMB     126      DOPC     H6X      HAL2     0.900000E-01   1.00800           0
     17853 MEMB     126      DOPC     H6Y      HAL2     0.900000E-01   1.00800           0
     17854 MEMB     126      DOPC     C37      CTL2    -0.180000       12.0110           0
     17855 MEMB     126      DOPC     H7X      HAL2     0.900000E-01   1.00800           0
     17856 MEMB     126      DOPC     H7Y      HAL2     0.900000E-01   1.00800           0
     17857 MEMB     126      DOPC     C38      CTL2    -0.180000       12.0110           0
     17858 MEMB     126      DOPC     H8X      HAL2     0.900000E-01   1.00800           0
     17859 MEMB     126      DOPC     H8Y      HAL2     0.900000E-01   1.00800           0
     17860 MEMB     126      DOPC     C39      CEL1    -0.150000       12.0110           0
     17861 MEMB     126      DOPC     H9X      HEL1     0.150000       1.00800           0
     17862 MEMB     126      DOPC     C310     CEL1    -0.150000       12.0110           0
     17863 MEMB     126      DOPC     H10X     HEL1     0.150000       1.00800           0
     17864 MEMB     126      DOPC     C311     CTL2    -0.180000       12.0110           0
     17865 MEMB     126      DOPC     H11X     HAL2     0.900000E-01   1.00800           0
     17866 MEMB     126      DOPC     H11Y     HAL2     0.900000E-01   1.00800           0
     17867 MEMB     126      DOPC     C312     CTL2    -0.180000       12.0110           0
     17868 MEMB     126      DOPC     H12X     HAL2     0.900000E-01   1.00800           0
     17869 MEMB     126      DOPC     H12Y     HAL2     0.900000E-01   1.00800           0
     17870 MEMB     126      DOPC     C313     CTL2    -0.180000       12.0110           0
     17871 MEMB     126      DOPC     H13X     HAL2     0.900000E-01   1.00800           0
     17872 MEMB     126      DOPC     H13Y     HAL2     0.900000E-01   1.00800           0
     17873 MEMB     126      DOPC     C314     CTL2    -0.180000       12.0110           0
     17874 MEMB     126      DOPC     H14X     HAL2     0.900000E-01   1.00800           0
     17875 MEMB     126      DOPC     H14Y     HAL2     0.900000E-01   1.00800           0
     17876 MEMB     126      DOPC     C315     CTL2    -0.180000       12.0110           0
     17877 MEMB     126      DOPC     H15X     HAL2     0.900000E-01   1.00800           0
     17878 MEMB     126      DOPC     H15Y     HAL2     0.900000E-01   1.00800           0
     17879 MEMB     126      DOPC     C316     CTL2    -0.180000       12.0110           0
     17880 MEMB     126      DOPC     H16X     HAL2     0.900000E-01   1.00800           0
     17881 MEMB     126      DOPC     H16Y     HAL2     0.900000E-01   1.00800           0
     17882 MEMB     126      DOPC     C317     CTL2    -0.180000       12.0110           0
     17883 MEMB     126      DOPC     H17X     HAL2     0.900000E-01   1.00800           0
     17884 MEMB     126      DOPC     H17Y     HAL2     0.900000E-01   1.00800           0
     17885 MEMB     126      DOPC     C318     CTL3    -0.270000       12.0110           0
     17886 MEMB     126      DOPC     H18X     HAL3     0.900000E-01   1.00800           0
     17887 MEMB     126      DOPC     H18Y     HAL3     0.900000E-01   1.00800           0
     17888 MEMB     126      DOPC     H18Z     HAL3     0.900000E-01   1.00800           0
     17889 MEMB     127      DOPC     N        NTL     -0.600000       14.0070           0
     17890 MEMB     127      DOPC     C12      CTL2    -0.100000       12.0110           0
     17891 MEMB     127      DOPC     H12A     HL       0.250000       1.00800           0
     17892 MEMB     127      DOPC     H12B     HL       0.250000       1.00800           0
     17893 MEMB     127      DOPC     C13      CTL5    -0.350000       12.0110           0
     17894 MEMB     127      DOPC     H13A     HL       0.250000       1.00800           0
     17895 MEMB     127      DOPC     H13B     HL       0.250000       1.00800           0
     17896 MEMB     127      DOPC     H13C     HL       0.250000       1.00800           0
     17897 MEMB     127      DOPC     C14      CTL5    -0.350000       12.0110           0
     17898 MEMB     127      DOPC     H14A     HL       0.250000       1.00800           0
     17899 MEMB     127      DOPC     H14B     HL       0.250000       1.00800           0
     17900 MEMB     127      DOPC     H14C     HL       0.250000       1.00800           0
     17901 MEMB     127      DOPC     C15      CTL5    -0.350000       12.0110           0
     17902 MEMB     127      DOPC     H15A     HL       0.250000       1.00800           0
     17903 MEMB     127      DOPC     H15B     HL       0.250000       1.00800           0
     17904 MEMB     127      DOPC     H15C     HL       0.250000       1.00800           0
     17905 MEMB     127      DOPC     C11      CTL2    -0.800000E-01   12.0110           0
     17906 MEMB     127      DOPC     H11A     HAL2     0.900000E-01   1.00800           0
     17907 MEMB     127      DOPC     H11B     HAL2     0.900000E-01   1.00800           0
     17908 MEMB     127      DOPC     P        PL        1.50000       30.9740           0
     17909 MEMB     127      DOPC     O13      O2L     -0.780000       15.9994           0
     17910 MEMB     127      DOPC     O14      O2L     -0.780000       15.9994           0
     17911 MEMB     127      DOPC     O12      OSLP    -0.570000       15.9994           0
     17912 MEMB     127      DOPC     O11      OSLP    -0.570000       15.9994           0
     17913 MEMB     127      DOPC     C1       CTL2    -0.800000E-01   12.0110           0
     17914 MEMB     127      DOPC     HA       HAL2     0.900000E-01   1.00800           0
     17915 MEMB     127      DOPC     HB       HAL2     0.900000E-01   1.00800           0
     17916 MEMB     127      DOPC     C2       CTL1     0.170000       12.0110           0
     17917 MEMB     127      DOPC     HS       HAL1     0.900000E-01   1.00800           0
     17918 MEMB     127      DOPC     O21      OSL     -0.490000       15.9994           0
     17919 MEMB     127      DOPC     C21      CL       0.900000       12.0110           0
     17920 MEMB     127      DOPC     O22      OBL     -0.630000       15.9994           0
     17921 MEMB     127      DOPC     C22      CTL2    -0.220000       12.0110           0
     17922 MEMB     127      DOPC     H2R      HAL2     0.900000E-01   1.00800           0
     17923 MEMB     127      DOPC     H2S      HAL2     0.900000E-01   1.00800           0
     17924 MEMB     127      DOPC     C3       CTL2     0.800000E-01   12.0110           0
     17925 MEMB     127      DOPC     HX       HAL2     0.900000E-01   1.00800           0
     17926 MEMB     127      DOPC     HY       HAL2     0.900000E-01   1.00800           0
     17927 MEMB     127      DOPC     O31      OSL     -0.490000       15.9994           0
     17928 MEMB     127      DOPC     C31      CL       0.900000       12.0110           0
     17929 MEMB     127      DOPC     O32      OBL     -0.630000       15.9994           0
     17930 MEMB     127      DOPC     C32      CTL2    -0.220000       12.0110           0
     17931 MEMB     127      DOPC     H2X      HAL2     0.900000E-01   1.00800           0
     17932 MEMB     127      DOPC     H2Y      HAL2     0.900000E-01   1.00800           0
     17933 MEMB     127      DOPC     C23      CTL2    -0.180000       12.0110           0
     17934 MEMB     127      DOPC     H3R      HAL2     0.900000E-01   1.00800           0
     17935 MEMB     127      DOPC     H3S      HAL2     0.900000E-01   1.00800           0
     17936 MEMB     127      DOPC     C24      CTL2    -0.180000       12.0110           0
     17937 MEMB     127      DOPC     H4R      HAL2     0.900000E-01   1.00800           0
     17938 MEMB     127      DOPC     H4S      HAL2     0.900000E-01   1.00800           0
     17939 MEMB     127      DOPC     C25      CTL2    -0.180000       12.0110           0
     17940 MEMB     127      DOPC     H5R      HAL2     0.900000E-01   1.00800           0
     17941 MEMB     127      DOPC     H5S      HAL2     0.900000E-01   1.00800           0
     17942 MEMB     127      DOPC     C26      CTL2    -0.180000       12.0110           0
     17943 MEMB     127      DOPC     H6R      HAL2     0.900000E-01   1.00800           0
     17944 MEMB     127      DOPC     H6S      HAL2     0.900000E-01   1.00800           0
     17945 MEMB     127      DOPC     C27      CTL2    -0.180000       12.0110           0
     17946 MEMB     127      DOPC     H7R      HAL2     0.900000E-01   1.00800           0
     17947 MEMB     127      DOPC     H7S      HAL2     0.900000E-01   1.00800           0
     17948 MEMB     127      DOPC     C28      CTL2    -0.180000       12.0110           0
     17949 MEMB     127      DOPC     H8R      HAL2     0.900000E-01   1.00800           0
     17950 MEMB     127      DOPC     H8S      HAL2     0.900000E-01   1.00800           0
     17951 MEMB     127      DOPC     C29      CEL1    -0.150000       12.0110           0
     17952 MEMB     127      DOPC     H9R      HEL1     0.150000       1.00800           0
     17953 MEMB     127      DOPC     C210     CEL1    -0.150000       12.0110           0
     17954 MEMB     127      DOPC     H10R     HEL1     0.150000       1.00800           0
     17955 MEMB     127      DOPC     C211     CTL2    -0.180000       12.0110           0
     17956 MEMB     127      DOPC     H11R     HAL2     0.900000E-01   1.00800           0
     17957 MEMB     127      DOPC     H11S     HAL2     0.900000E-01   1.00800           0
     17958 MEMB     127      DOPC     C212     CTL2    -0.180000       12.0110           0
     17959 MEMB     127      DOPC     H12R     HAL2     0.900000E-01   1.00800           0
     17960 MEMB     127      DOPC     H12S     HAL2     0.900000E-01   1.00800           0
     17961 MEMB     127      DOPC     C213     CTL2    -0.180000       12.0110           0
     17962 MEMB     127      DOPC     H13R     HAL2     0.900000E-01   1.00800           0
     17963 MEMB     127      DOPC     H13S     HAL2     0.900000E-01   1.00800           0
     17964 MEMB     127      DOPC     C214     CTL2    -0.180000       12.0110           0
     17965 MEMB     127      DOPC     H14R     HAL2     0.900000E-01   1.00800           0
     17966 MEMB     127      DOPC     H14S     HAL2     0.900000E-01   1.00800           0
     17967 MEMB     127      DOPC     C215     CTL2    -0.180000       12.0110           0
     17968 MEMB     127      DOPC     H15R     HAL2     0.900000E-01   1.00800           0
     17969 MEMB     127      DOPC     H15S     HAL2     0.900000E-01   1.00800           0
     17970 MEMB     127      DOPC     C216     CTL2    -0.180000       12.0110           0
     17971 MEMB     127      DOPC     H16R     HAL2     0.900000E-01   1.00800           0
     17972 MEMB     127      DOPC     H16S     HAL2     0.900000E-01   1.00800           0
     17973 MEMB     127      DOPC     C217     CTL2    -0.180000       12.0110           0
     17974 MEMB     127      DOPC     H17R     HAL2     0.900000E-01   1.00800           0
     17975 MEMB     127      DOPC     H17S     HAL2     0.900000E-01   1.00800           0
     17976 MEMB     127      DOPC     C218     CTL3    -0.270000       12.0110           0
     17977 MEMB     127      DOPC     H18R     HAL3     0.900000E-01   1.00800           0
     17978 MEMB     127      DOPC     H18S     HAL3     0.900000E-01   1.00800           0
     17979 MEMB     127      DOPC     H18T     HAL3     0.900000E-01   1.00800           0
     17980 MEMB     127      DOPC     C33      CTL2    -0.180000       12.0110           0
     17981 MEMB     127      DOPC     H3X      HAL2     0.900000E-01   1.00800           0
     17982 MEMB     127      DOPC     H3Y      HAL2     0.900000E-01   1.00800           0
     17983 MEMB     127      DOPC     C34      CTL2    -0.180000       12.0110           0
     17984 MEMB     127      DOPC     H4X      HAL2     0.900000E-01   1.00800           0
     17985 MEMB     127      DOPC     H4Y      HAL2     0.900000E-01   1.00800           0
     17986 MEMB     127      DOPC     C35      CTL2    -0.180000       12.0110           0
     17987 MEMB     127      DOPC     H5X      HAL2     0.900000E-01   1.00800           0
     17988 MEMB     127      DOPC     H5Y      HAL2     0.900000E-01   1.00800           0
     17989 MEMB     127      DOPC     C36      CTL2    -0.180000       12.0110           0
     17990 MEMB     127      DOPC     H6X      HAL2     0.900000E-01   1.00800           0
     17991 MEMB     127      DOPC     H6Y      HAL2     0.900000E-01   1.00800           0
     17992 MEMB     127      DOPC     C37      CTL2    -0.180000       12.0110           0
     17993 MEMB     127      DOPC     H7X      HAL2     0.900000E-01   1.00800           0
     17994 MEMB     127      DOPC     H7Y      HAL2     0.900000E-01   1.00800           0
     17995 MEMB     127      DOPC     C38      CTL2    -0.180000       12.0110           0
     17996 MEMB     127      DOPC     H8X      HAL2     0.900000E-01   1.00800           0
     17997 MEMB     127      DOPC     H8Y      HAL2     0.900000E-01   1.00800           0
     17998 MEMB     127      DOPC     C39      CEL1    -0.150000       12.0110           0
     17999 MEMB     127      DOPC     H9X      HEL1     0.150000       1.00800           0
     18000 MEMB     127      DOPC     C310     CEL1    -0.150000       12.0110           0
     18001 MEMB     127      DOPC     H10X     HEL1     0.150000       1.00800           0
     18002 MEMB     127      DOPC     C311     CTL2    -0.180000       12.0110           0
     18003 MEMB     127      DOPC     H11X     HAL2     0.900000E-01   1.00800           0
     18004 MEMB     127      DOPC     H11Y     HAL2     0.900000E-01   1.00800           0
     18005 MEMB     127      DOPC     C312     CTL2    -0.180000       12.0110           0
     18006 MEMB     127      DOPC     H12X     HAL2     0.900000E-01   1.00800           0
     18007 MEMB     127      DOPC     H12Y     HAL2     0.900000E-01   1.00800           0
     18008 MEMB     127      DOPC     C313     CTL2    -0.180000       12.0110           0
     18009 MEMB     127      DOPC     H13X     HAL2     0.900000E-01   1.00800           0
     18010 MEMB     127      DOPC     H13Y     HAL2     0.900000E-01   1.00800           0
     18011 MEMB     127      DOPC     C314     CTL2    -0.180000       12.0110           0
     18012 MEMB     127      DOPC     H14X     HAL2     0.900000E-01   1.00800           0
     18013 MEMB     127      DOPC     H14Y     HAL2     0.900000E-01   1.00800           0
     18014 MEMB     127      DOPC     C315     CTL2    -0.180000       12.0110           0
     18015 MEMB     127      DOPC     H15X     HAL2     0.900000E-01   1.00800           0
     18016 MEMB     127      DOPC     H15Y     HAL2     0.900000E-01   1.00800           0
     18017 MEMB     127      DOPC     C316     CTL2    -0.180000       12.0110           0
     18018 MEMB     127      DOPC     H16X     HAL2     0.900000E-01   1.00800           0
     18019 MEMB     127      DOPC     H16Y     HAL2     0.900000E-01   1.00800           0
     18020 MEMB     127      DOPC     C317     CTL2    -0.180000       12.0110           0
     18021 MEMB     127      DOPC     H17X     HAL2     0.900000E-01   1.00800           0
     18022 MEMB     127      DOPC     H17Y     HAL2     0.900000E-01   1.00800           0
     18023 MEMB     127      DOPC     C318     CTL3    -0.270000       12.0110           0
     18024 MEMB     127      DOPC     H18X     HAL3     0.900000E-01   1.00800           0
     18025 MEMB     127      DOPC     H18Y     HAL3     0.900000E-01   1.00800           0
     18026 MEMB     127      DOPC     H18Z     HAL3     0.900000E-01   1.00800           0
     18027 MEMB     128      DOPC     N        NTL     -0.600000       14.0070           0
     18028 MEMB     128      DOPC     C12      CTL2    -0.100000       12.0110           0
     18029 MEMB     128      DOPC     H12A     HL       0.250000       1.00800           0
     18030 MEMB     128      DOPC     H12B     HL       0.250000       1.00800           0
     18031 MEMB     128      DOPC     C13      CTL5    -0.350000       12.0110           0
     18032 MEMB     128      DOPC     H13A     HL       0.250000       1.00800           0
     18033 MEMB     128      DOPC     H13B     HL       0.250000       1.00800           0
     18034 MEMB     128      DOPC     H13C     HL       0.250000       1.00800           0
     18035 MEMB     128      DOPC     C14      CTL5    -0.350000       12.0110           0
     18036 MEMB     128      DOPC     H14A     HL       0.250000       1.00800           0
     18037 MEMB     128      DOPC     H14B     HL       0.250000       1.00800           0
     18038 MEMB     128      DOPC     H14C     HL       0.250000       1.00800           0
     18039 MEMB     128      DOPC     C15      CTL5    -0.350000       12.0110           0
     18040 MEMB     128      DOPC     H15A     HL       0.250000       1.00800           0
     18041 MEMB     128      DOPC     H15B     HL       0.250000       1.00800           0
     18042 MEMB     128      DOPC     H15C     HL       0.250000       1.00800           0
     18043 MEMB     128      DOPC     C11      CTL2    -0.800000E-01   12.0110           0
     18044 MEMB     128      DOPC     H11A     HAL2     0.900000E-01   1.00800           0
     18045 MEMB     128      DOPC     H11B     HAL2     0.900000E-01   1.00800           0
     18046 MEMB     128      DOPC     P        PL        1.50000       30.9740           0
     18047 MEMB     128      DOPC     O13      O2L     -0.780000       15.9994           0
     18048 MEMB     128      DOPC     O14      O2L     -0.780000       15.9994           0
     18049 MEMB     128      DOPC     O12      OSLP    -0.570000       15.9994           0
     18050 MEMB     128      DOPC     O11      OSLP    -0.570000       15.9994           0
     18051 MEMB     128      DOPC     C1       CTL2    -0.800000E-01   12.0110           0
     18052 MEMB     128      DOPC     HA       HAL2     0.900000E-01   1.00800           0
     18053 MEMB     128      DOPC     HB       HAL2     0.900000E-01   1.00800           0
     18054 MEMB     128      DOPC     C2       CTL1     0.170000       12.0110           0
     18055 MEMB     128      DOPC     HS       HAL1     0.900000E-01   1.00800           0
     18056 MEMB     128      DOPC     O21      OSL     -0.490000       15.9994           0
     18057 MEMB     128      DOPC     C21      CL       0.900000       12.0110           0
     18058 MEMB     128      DOPC     O22      OBL     -0.630000       15.9994           0
     18059 MEMB     128      DOPC     C22      CTL2    -0.220000       12.0110           0
     18060 MEMB     128      DOPC     H2R      HAL2     0.900000E-01   1.00800           0
     18061 MEMB     128      DOPC     H2S      HAL2     0.900000E-01   1.00800           0
     18062 MEMB     128      DOPC     C3       CTL2     0.800000E-01   12.0110           0
     18063 MEMB     128      DOPC     HX       HAL2     0.900000E-01   1.00800           0
     18064 MEMB     128      DOPC     HY       HAL2     0.900000E-01   1.00800           0
     18065 MEMB     128      DOPC     O31      OSL     -0.490000       15.9994           0
     18066 MEMB     128      DOPC     C31      CL       0.900000       12.0110           0
     18067 MEMB     128      DOPC     O32      OBL     -0.630000       15.9994           0
     18068 MEMB     128      DOPC     C32      CTL2    -0.220000       12.0110           0
     18069 MEMB     128      DOPC     H2X      HAL2     0.900000E-01   1.00800           0
     18070 MEMB     128      DOPC     H2Y      HAL2     0.900000E-01   1.00800           0
     18071 MEMB     128      DOPC     C23      CTL2    -0.180000       12.0110           0
     18072 MEMB     128      DOPC     H3R      HAL2     0.900000E-01   1.00800           0
     18073 MEMB     128      DOPC     H3S      HAL2     0.900000E-01   1.00800           0
     18074 MEMB     128      DOPC     C24      CTL2    -0.180000       12.0110           0
     18075 MEMB     128      DOPC     H4R      HAL2     0.900000E-01   1.00800           0
     18076 MEMB     128      DOPC     H4S      HAL2     0.900000E-01   1.00800           0
     18077 MEMB     128      DOPC     C25      CTL2    -0.180000       12.0110           0
     18078 MEMB     128      DOPC     H5R      HAL2     0.900000E-01   1.00800           0
     18079 MEMB     128      DOPC     H5S      HAL2     0.900000E-01   1.00800           0
     18080 MEMB     128      DOPC     C26      CTL2    -0.180000       12.0110           0
     18081 MEMB     128      DOPC     H6R      HAL2     0.900000E-01   1.00800           0
     18082 MEMB     128      DOPC     H6S      HAL2     0.900000E-01   1.00800           0
     18083 MEMB     128      DOPC     C27      CTL2    -0.180000       12.0110           0
     18084 MEMB     128      DOPC     H7R      HAL2     0.900000E-01   1.00800           0
     18085 MEMB     128      DOPC     H7S      HAL2     0.900000E-01   1.00800           0
     18086 MEMB     128      DOPC     C28      CTL2    -0.180000       12.0110           0
     18087 MEMB     128      DOPC     H8R      HAL2     0.900000E-01   1.00800           0
     18088 MEMB     128      DOPC     H8S      HAL2     0.900000E-01   1.00800           0
     18089 MEMB     128      DOPC     C29      CEL1    -0.150000       12.0110           0
     18090 MEMB     128      DOPC     H9R      HEL1     0.150000       1.00800           0
     18091 MEMB     128      DOPC     C210     CEL1    -0.150000       12.0110           0
     18092 MEMB     128      DOPC     H10R     HEL1     0.150000       1.00800           0
     18093 MEMB     128      DOPC     C211     CTL2    -0.180000       12.0110           0
     18094 MEMB     128      DOPC     H11R     HAL2     0.900000E-01   1.00800           0
     18095 MEMB     128      DOPC     H11S     HAL2     0.900000E-01   1.00800           0
     18096 MEMB     128      DOPC     C212     CTL2    -0.180000       12.0110           0
     18097 MEMB     128      DOPC     H12R     HAL2     0.900000E-01   1.00800           0
     18098 MEMB     128      DOPC     H12S     HAL2     0.900000E-01   1.00800           0
     18099 MEMB     128      DOPC     C213     CTL2    -0.180000       12.0110           0
     18100 MEMB     128      DOPC     H13R     HAL2     0.900000E-01   1.00800           0
     18101 MEMB     128      DOPC     H13S     HAL2     0.900000E-01   1.00800           0
     18102 MEMB     128      DOPC     C214     CTL2    -0.180000       12.0110           0
     18103 MEMB     128      DOPC     H14R     HAL2     0.900000E-01   1.00800           0
     18104 MEMB     128      DOPC     H14S     HAL2     0.900000E-01   1.00800           0
     18105 MEMB     128      DOPC     C215     CTL2    -0.180000       12.0110           0
     18106 MEMB     128      DOPC     H15R     HAL2     0.900000E-01   1.00800           0
     18107 MEMB     128      DOPC     H15S     HAL2     0.900000E-01   1.00800           0
     18108 MEMB     128      DOPC     C216     CTL2    -0.180000       12.0110           0
     18109 MEMB     128      DOPC     H16R     HAL2     0.900000E-01   1.00800           0
     18110 MEMB     128      DOPC     H16S     HAL2     0.900000E-01   1.00800           0
     18111 MEMB     128      DOPC     C217     CTL2    -0.180000       12.0110           0
     18112 MEMB     128      DOPC     H17R     HAL2     0.900000E-01   1.00800           0
     18113 MEMB     128      DOPC     H17S     HAL2     0.900000E-01   1.00800           0
     18114 MEMB     128      DOPC     C218     CTL3    -0.270000       12.0110           0
     18115 MEMB     128      DOPC     H18R     HAL3     0.900000E-01   1.00800           0
     18116 MEMB     128      DOPC     H18S     HAL3     0.900000E-01   1.00800           0
     18117 MEMB     128      DOPC     H18T     HAL3     0.900000E-01   1.00800           0
     18118 MEMB     128      DOPC     C33      CTL2    -0.180000       12.0110           0
     18119 MEMB     128      DOPC     H3X      HAL2     0.900000E-01   1.00800           0
     18120 MEMB     128      DOPC     H3Y      HAL2     0.900000E-01   1.00800           0
     18121 MEMB     128      DOPC     C34      CTL2    -0.180000       12.0110           0
     18122 MEMB     128      DOPC     H4X      HAL2     0.900000E-01   1.00800           0
     18123 MEMB     128      DOPC     H4Y      HAL2     0.900000E-01   1.00800           0
     18124 MEMB     128      DOPC     C35      CTL2    -0.180000       12.0110           0
     18125 MEMB     128      DOPC     H5X      HAL2     0.900000E-01   1.00800           0
     18126 MEMB     128      DOPC     H5Y      HAL2     0.900000E-01   1.00800           0
     18127 MEMB     128      DOPC     C36      CTL2    -0.180000       12.0110           0
     18128 MEMB     128      DOPC     H6X      HAL2     0.900000E-01   1.00800           0
     18129 MEMB     128      DOPC     H6Y      HAL2     0.900000E-01   1.00800           0
     18130 MEMB     128      DOPC     C37      CTL2    -0.180000       12.0110           0
     18131 MEMB     128      DOPC     H7X      HAL2     0.900000E-01   1.00800           0
     18132 MEMB     128      DOPC     H7Y      HAL2     0.900000E-01   1.00800           0
     18133 MEMB     128      DOPC     C38      CTL2    -0.180000       12.0110           0
     18134 MEMB     128      DOPC     H8X      HAL2     0.900000E-01   1.00800           0
     18135 MEMB     128      DOPC     H8Y      HAL2     0.900000E-01   1.00800           0
     18136 MEMB     128      DOPC     C39      CEL1    -0.150000       12.0110           0
     18137 MEMB     128      DOPC     H9X      HEL1     0.150000       1.00800           0
     18138 MEMB     128      DOPC     C310     CEL1    -0.150000       12.0110           0
     18139 MEMB     128      DOPC     H10X     HEL1     0.150000       1.00800           0
     18140 MEMB     128      DOPC     C311     CTL2    -0.180000       12.0110           0
     18141 MEMB     128      DOPC     H11X     HAL2     0.900000E-01   1.00800           0
     18142 MEMB     128      DOPC     H11Y     HAL2     0.900000E-01   1.00800           0
     18143 MEMB     128      DOPC     C312     CTL2    -0.180000       12.0110           0
     18144 MEMB     128      DOPC     H12X     HAL2     0.900000E-01   1.00800           0
     18145 MEMB     128      DOPC     H12Y     HAL2     0.900000E-01   1.00800           0
     18146 MEMB     128      DOPC     C313     CTL2    -0.180000       12.0110           0
     18147 MEMB     128      DOPC     H13X     HAL2     0.900000E-01   1.00800           0
     18148 MEMB     128      DOPC     H13Y     HAL2     0.900000E-01   1.00800           0
     18149 MEMB     128      DOPC     C314     CTL2    -0.180000       12.0110           0
     18150 MEMB     128      DOPC     H14X     HAL2     0.900000E-01   1.00800           0
     18151 MEMB     128      DOPC     H14Y     HAL2     0.900000E-01   1.00800           0
     18152 MEMB     128      DOPC     C315     CTL2    -0.180000       12.0110           0
     18153 MEMB     128      DOPC     H15X     HAL2     0.900000E-01   1.00800           0
     18154 MEMB     128      DOPC     H15Y     HAL2     0.900000E-01   1.00800           0
     18155 MEMB     128      DOPC     C316     CTL2    -0.180000       12.0110           0
     18156 MEMB     128      DOPC     H16X     HAL2     0.900000E-01   1.00800           0
     18157 MEMB     128      DOPC     H16Y     HAL2     0.900000E-01   1.00800           0
     18158 MEMB     128      DOPC     C317     CTL2    -0.180000       12.0110           0
     18159 MEMB     128      DOPC     H17X     HAL2     0.900000E-01   1.00800           0
     18160 MEMB     128      DOPC     H17Y     HAL2     0.900000E-01   1.00800           0
     18161 MEMB     128      DOPC     C318     CTL3    -0.270000       12.0110           0
     18162 MEMB     128      DOPC     H18X     HAL3     0.900000E-01   1.00800           0
     18163 MEMB     128      DOPC     H18Y     HAL3     0.900000E-01   1.00800           0
     18164 MEMB     128      DOPC     H18Z     HAL3     0.900000E-01   1.00800           0
     18165 MEMB     129      DOPC     N        NTL     -0.600000       14.0070           0
     18166 MEMB     129      DOPC     C12      CTL2    -0.100000       12.0110           0
     18167 MEMB     129      DOPC     H12A     HL       0.250000       1.00800           0
     18168 MEMB     129      DOPC     H12B     HL       0.250000       1.00800           0
     18169 MEMB     129      DOPC     C13      CTL5    -0.350000       12.0110           0
     18170 MEMB     129      DOPC     H13A     HL       0.250000       1.00800           0
     18171 MEMB     129      DOPC     H13B     HL       0.250000       1.00800           0
     18172 MEMB     129      DOPC     H13C     HL       0.250000       1.00800           0
     18173 MEMB     129      DOPC     C14      CTL5    -0.350000       12.0110           0
     18174 MEMB     129      DOPC     H14A     HL       0.250000       1.00800           0
     18175 MEMB     129      DOPC     H14B     HL       0.250000       1.00800           0
     18176 MEMB     129      DOPC     H14C     HL       0.250000       1.00800           0
     18177 MEMB     129      DOPC     C15      CTL5    -0.350000       12.0110           0
     18178 MEMB     129      DOPC     H15A     HL       0.250000       1.00800           0
     18179 MEMB     129      DOPC     H15B     HL       0.250000       1.00800           0
     18180 MEMB     129      DOPC     H15C     HL       0.250000       1.00800           0
     18181 MEMB     129      DOPC     C11      CTL2    -0.800000E-01   12.0110           0
     18182 MEMB     129      DOPC     H11A     HAL2     0.900000E-01   1.00800           0
     18183 MEMB     129      DOPC     H11B     HAL2     0.900000E-01   1.00800           0
     18184 MEMB     129      DOPC     P        PL        1.50000       30.9740           0
     18185 MEMB     129      DOPC     O13      O2L     -0.780000       15.9994           0
     18186 MEMB     129      DOPC     O14      O2L     -0.780000       15.9994           0
     18187 MEMB     129      DOPC     O12      OSLP    -0.570000       15.9994           0
     18188 MEMB     129      DOPC     O11      OSLP    -0.570000       15.9994           0
     18189 MEMB     129      DOPC     C1       CTL2    -0.800000E-01   12.0110           0
     18190 MEMB     129      DOPC     HA       HAL2     0.900000E-01   1.00800           0
     18191 MEMB     129      DOPC     HB       HAL2     0.900000E-01   1.00800           0
     18192 MEMB     129      DOPC     C2       CTL1     0.170000       12.0110           0
     18193 MEMB     129      DOPC     HS       HAL1     0.900000E-01   1.00800           0
     18194 MEMB     129      DOPC     O21      OSL     -0.490000       15.9994           0
     18195 MEMB     129      DOPC     C21      CL       0.900000       12.0110           0
     18196 MEMB     129      DOPC     O22      OBL     -0.630000       15.9994           0
     18197 MEMB     129      DOPC     C22      CTL2    -0.220000       12.0110           0
     18198 MEMB     129      DOPC     H2R      HAL2     0.900000E-01   1.00800           0
     18199 MEMB     129      DOPC     H2S      HAL2     0.900000E-01   1.00800           0
     18200 MEMB     129      DOPC     C3       CTL2     0.800000E-01   12.0110           0
     18201 MEMB     129      DOPC     HX       HAL2     0.900000E-01   1.00800           0
     18202 MEMB     129      DOPC     HY       HAL2     0.900000E-01   1.00800           0
     18203 MEMB     129      DOPC     O31      OSL     -0.490000       15.9994           0
     18204 MEMB     129      DOPC     C31      CL       0.900000       12.0110           0
     18205 MEMB     129      DOPC     O32      OBL     -0.630000       15.9994           0
     18206 MEMB     129      DOPC     C32      CTL2    -0.220000       12.0110           0
     18207 MEMB     129      DOPC     H2X      HAL2     0.900000E-01   1.00800           0
     18208 MEMB     129      DOPC     H2Y      HAL2     0.900000E-01   1.00800           0
     18209 MEMB     129      DOPC     C23      CTL2    -0.180000       12.0110           0
     18210 MEMB     129      DOPC     H3R      HAL2     0.900000E-01   1.00800           0
     18211 MEMB     129      DOPC     H3S      HAL2     0.900000E-01   1.00800           0
     18212 MEMB     129      DOPC     C24      CTL2    -0.180000       12.0110           0
     18213 MEMB     129      DOPC     H4R      HAL2     0.900000E-01   1.00800           0
     18214 MEMB     129      DOPC     H4S      HAL2     0.900000E-01   1.00800           0
     18215 MEMB     129      DOPC     C25      CTL2    -0.180000       12.0110           0
     18216 MEMB     129      DOPC     H5R      HAL2     0.900000E-01   1.00800           0
     18217 MEMB     129      DOPC     H5S      HAL2     0.900000E-01   1.00800           0
     18218 MEMB     129      DOPC     C26      CTL2    -0.180000       12.0110           0
     18219 MEMB     129      DOPC     H6R      HAL2     0.900000E-01   1.00800           0
     18220 MEMB     129      DOPC     H6S      HAL2     0.900000E-01   1.00800           0
     18221 MEMB     129      DOPC     C27      CTL2    -0.180000       12.0110           0
     18222 MEMB     129      DOPC     H7R      HAL2     0.900000E-01   1.00800           0
     18223 MEMB     129      DOPC     H7S      HAL2     0.900000E-01   1.00800           0
     18224 MEMB     129      DOPC     C28      CTL2    -0.180000       12.0110           0
     18225 MEMB     129      DOPC     H8R      HAL2     0.900000E-01   1.00800           0
     18226 MEMB     129      DOPC     H8S      HAL2     0.900000E-01   1.00800           0
     18227 MEMB     129      DOPC     C29      CEL1    -0.150000       12.0110           0
     18228 MEMB     129      DOPC     H9R      HEL1     0.150000       1.00800           0
     18229 MEMB     129      DOPC     C210     CEL1    -0.150000       12.0110           0
     18230 MEMB     129      DOPC     H10R     HEL1     0.150000       1.00800           0
     18231 MEMB     129      DOPC     C211     CTL2    -0.180000       12.0110           0
     18232 MEMB     129      DOPC     H11R     HAL2     0.900000E-01   1.00800           0
     18233 MEMB     129      DOPC     H11S     HAL2     0.900000E-01   1.00800           0
     18234 MEMB     129      DOPC     C212     CTL2    -0.180000       12.0110           0
     18235 MEMB     129      DOPC     H12R     HAL2     0.900000E-01   1.00800           0
     18236 MEMB     129      DOPC     H12S     HAL2     0.900000E-01   1.00800           0
     18237 MEMB     129      DOPC     C213     CTL2    -0.180000       12.0110           0
     18238 MEMB     129      DOPC     H13R     HAL2     0.900000E-01   1.00800           0
     18239 MEMB     129      DOPC     H13S     HAL2     0.900000E-01   1.00800           0
     18240 MEMB     129      DOPC     C214     CTL2    -0.180000       12.0110           0
     18241 MEMB     129      DOPC     H14R     HAL2     0.900000E-01   1.00800           0
     18242 MEMB     129      DOPC     H14S     HAL2     0.900000E-01   1.00800           0
     18243 MEMB     129      DOPC     C215     CTL2    -0.180000       12.0110           0
     18244 MEMB     129      DOPC     H15R     HAL2     0.900000E-01   1.00800           0
     18245 MEMB     129      DOPC     H15S     HAL2     0.900000E-01   1.00800           0
     18246 MEMB     129      DOPC     C216     CTL2    -0.180000       12.0110           0
     18247 MEMB     129      DOPC     H16R     HAL2     0.900000E-01   1.00800           0
     18248 MEMB     129      DOPC     H16S     HAL2     0.900000E-01   1.00800           0
     18249 MEMB     129      DOPC     C217     CTL2    -0.180000       12.0110           0
     18250 MEMB     129      DOPC     H17R     HAL2     0.900000E-01   1.00800           0
     18251 MEMB     129      DOPC     H17S     HAL2     0.900000E-01   1.00800           0
     18252 MEMB     129      DOPC     C218     CTL3    -0.270000       12.0110           0
     18253 MEMB     129      DOPC     H18R     HAL3     0.900000E-01   1.00800           0
     18254 MEMB     129      DOPC     H18S     HAL3     0.900000E-01   1.00800           0
     18255 MEMB     129      DOPC     H18T     HAL3     0.900000E-01   1.00800           0
     18256 MEMB     129      DOPC     C33      CTL2    -0.180000       12.0110           0
     18257 MEMB     129      DOPC     H3X      HAL2     0.900000E-01   1.00800           0
     18258 MEMB     129      DOPC     H3Y      HAL2     0.900000E-01   1.00800           0
     18259 MEMB     129      DOPC     C34      CTL2    -0.180000       12.0110           0
     18260 MEMB     129      DOPC     H4X      HAL2     0.900000E-01   1.00800           0
     18261 MEMB     129      DOPC     H4Y      HAL2     0.900000E-01   1.00800           0
     18262 MEMB     129      DOPC     C35      CTL2    -0.180000       12.0110           0
     18263 MEMB     129      DOPC     H5X      HAL2     0.900000E-01   1.00800           0
     18264 MEMB     129      DOPC     H5Y      HAL2     0.900000E-01   1.00800           0
     18265 MEMB     129      DOPC     C36      CTL2    -0.180000       12.0110           0
     18266 MEMB     129      DOPC     H6X      HAL2     0.900000E-01   1.00800           0
     18267 MEMB     129      DOPC     H6Y      HAL2     0.900000E-01   1.00800           0
     18268 MEMB     129      DOPC     C37      CTL2    -0.180000       12.0110           0
     18269 MEMB     129      DOPC     H7X      HAL2     0.900000E-01   1.00800           0
     18270 MEMB     129      DOPC     H7Y      HAL2     0.900000E-01   1.00800           0
     18271 MEMB     129      DOPC     C38      CTL2    -0.180000       12.0110           0
     18272 MEMB     129      DOPC     H8X      HAL2     0.900000E-01   1.00800           0
     18273 MEMB     129      DOPC     H8Y      HAL2     0.900000E-01   1.00800           0
     18274 MEMB     129      DOPC     C39      CEL1    -0.150000       12.0110           0
     18275 MEMB     129      DOPC     H9X      HEL1     0.150000       1.00800           0
     18276 MEMB     129      DOPC     C310     CEL1    -0.150000       12.0110           0
     18277 MEMB     129      DOPC     H10X     HEL1     0.150000       1.00800           0
     18278 MEMB     129      DOPC     C311     CTL2    -0.180000       12.0110           0
     18279 MEMB     129      DOPC     H11X     HAL2     0.900000E-01   1.00800           0
     18280 MEMB     129      DOPC     H11Y     HAL2     0.900000E-01   1.00800           0
     18281 MEMB     129      DOPC     C312     CTL2    -0.180000       12.0110           0
     18282 MEMB     129      DOPC     H12X     HAL2     0.900000E-01   1.00800           0
     18283 MEMB     129      DOPC     H12Y     HAL2     0.900000E-01   1.00800           0
     18284 MEMB     129      DOPC     C313     CTL2    -0.180000       12.0110           0
     18285 MEMB     129      DOPC     H13X     HAL2     0.900000E-01   1.00800           0
     18286 MEMB     129      DOPC     H13Y     HAL2     0.900000E-01   1.00800           0
     18287 MEMB     129      DOPC     C314     CTL2    -0.180000       12.0110           0
     18288 MEMB     129      DOPC     H14X     HAL2     0.900000E-01   1.00800           0
     18289 MEMB     129      DOPC     H14Y     HAL2     0.900000E-01   1.00800           0
     18290 MEMB     129      DOPC     C315     CTL2    -0.180000       12.0110           0
     18291 MEMB     129      DOPC     H15X     HAL2     0.900000E-01   1.00800           0
     18292 MEMB     129      DOPC     H15Y     HAL2     0.900000E-01   1.00800           0
     18293 MEMB     129      DOPC     C316     CTL2    -0.180000       12.0110           0
     18294 MEMB     129      DOPC     H16X     HAL2     0.900000E-01   1.00800           0
     18295 MEMB     129      DOPC     H16Y     HAL2     0.900000E-01   1.00800           0
     18296 MEMB     129      DOPC     C317     CTL2    -0.180000       12.0110           0
     18297 MEMB     129      DOPC     H17X     HAL2     0.900000E-01   1.00800           0
     18298 MEMB     129      DOPC     H17Y     HAL2     0.900000E-01   1.00800           0
     18299 MEMB     129      DOPC     C318     CTL3    -0.270000       12.0110           0
     18300 MEMB     129      DOPC     H18X     HAL3     0.900000E-01   1.00800           0
     18301 MEMB     129      DOPC     H18Y     HAL3     0.900000E-01   1.00800           0
     18302 MEMB     129      DOPC     H18Z     HAL3     0.900000E-01   1.00800           0
     18303 MEMB     130      DOPC     N        NTL     -0.600000       14.0070           0
     18304 MEMB     130      DOPC     C12      CTL2    -0.100000       12.0110           0
     18305 MEMB     130      DOPC     H12A     HL       0.250000       1.00800           0
     18306 MEMB     130      DOPC     H12B     HL       0.250000       1.00800           0
     18307 MEMB     130      DOPC     C13      CTL5    -0.350000       12.0110           0
     18308 MEMB     130      DOPC     H13A     HL       0.250000       1.00800           0
     18309 MEMB     130      DOPC     H13B     HL       0.250000       1.00800           0
     18310 MEMB     130      DOPC     H13C     HL       0.250000       1.00800           0
     18311 MEMB     130      DOPC     C14      CTL5    -0.350000       12.0110           0
     18312 MEMB     130      DOPC     H14A     HL       0.250000       1.00800           0
     18313 MEMB     130      DOPC     H14B     HL       0.250000       1.00800           0
     18314 MEMB     130      DOPC     H14C     HL       0.250000       1.00800           0
     18315 MEMB     130      DOPC     C15      CTL5    -0.350000       12.0110           0
     18316 MEMB     130      DOPC     H15A     HL       0.250000       1.00800           0
     18317 MEMB     130      DOPC     H15B     HL       0.250000       1.00800           0
     18318 MEMB     130      DOPC     H15C     HL       0.250000       1.00800           0
     18319 MEMB     130      DOPC     C11      CTL2    -0.800000E-01   12.0110           0
     18320 MEMB     130      DOPC     H11A     HAL2     0.900000E-01   1.00800           0
     18321 MEMB     130      DOPC     H11B     HAL2     0.900000E-01   1.00800           0
     18322 MEMB     130      DOPC     P        PL        1.50000       30.9740           0
     18323 MEMB     130      DOPC     O13      O2L     -0.780000       15.9994           0
     18324 MEMB     130      DOPC     O14      O2L     -0.780000       15.9994           0
     18325 MEMB     130      DOPC     O12      OSLP    -0.570000       15.9994           0
     18326 MEMB     130      DOPC     O11      OSLP    -0.570000       15.9994           0
     18327 MEMB     130      DOPC     C1       CTL2    -0.800000E-01   12.0110           0
     18328 MEMB     130      DOPC     HA       HAL2     0.900000E-01   1.00800           0
     18329 MEMB     130      DOPC     HB       HAL2     0.900000E-01   1.00800           0
     18330 MEMB     130      DOPC     C2       CTL1     0.170000       12.0110           0
     18331 MEMB     130      DOPC     HS       HAL1     0.900000E-01   1.00800           0
     18332 MEMB     130      DOPC     O21      OSL     -0.490000       15.9994           0
     18333 MEMB     130      DOPC     C21      CL       0.900000       12.0110           0
     18334 MEMB     130      DOPC     O22      OBL     -0.630000       15.9994           0
     18335 MEMB     130      DOPC     C22      CTL2    -0.220000       12.0110           0
     18336 MEMB     130      DOPC     H2R      HAL2     0.900000E-01   1.00800           0
     18337 MEMB     130      DOPC     H2S      HAL2     0.900000E-01   1.00800           0
     18338 MEMB     130      DOPC     C3       CTL2     0.800000E-01   12.0110           0
     18339 MEMB     130      DOPC     HX       HAL2     0.900000E-01   1.00800           0
     18340 MEMB     130      DOPC     HY       HAL2     0.900000E-01   1.00800           0
     18341 MEMB     130      DOPC     O31      OSL     -0.490000       15.9994           0
     18342 MEMB     130      DOPC     C31      CL       0.900000       12.0110           0
     18343 MEMB     130      DOPC     O32      OBL     -0.630000       15.9994           0
     18344 MEMB     130      DOPC     C32      CTL2    -0.220000       12.0110           0
     18345 MEMB     130      DOPC     H2X      HAL2     0.900000E-01   1.00800           0
     18346 MEMB     130      DOPC     H2Y      HAL2     0.900000E-01   1.00800           0
     18347 MEMB     130      DOPC     C23      CTL2    -0.180000       12.0110           0
     18348 MEMB     130      DOPC     H3R      HAL2     0.900000E-01   1.00800           0
     18349 MEMB     130      DOPC     H3S      HAL2     0.900000E-01   1.00800           0
     18350 MEMB     130      DOPC     C24      CTL2    -0.180000       12.0110           0
     18351 MEMB     130      DOPC     H4R      HAL2     0.900000E-01   1.00800           0
     18352 MEMB     130      DOPC     H4S      HAL2     0.900000E-01   1.00800           0
     18353 MEMB     130      DOPC     C25      CTL2    -0.180000       12.0110           0
     18354 MEMB     130      DOPC     H5R      HAL2     0.900000E-01   1.00800           0
     18355 MEMB     130      DOPC     H5S      HAL2     0.900000E-01   1.00800           0
     18356 MEMB     130      DOPC     C26      CTL2    -0.180000       12.0110           0
     18357 MEMB     130      DOPC     H6R      HAL2     0.900000E-01   1.00800           0
     18358 MEMB     130      DOPC     H6S      HAL2     0.900000E-01   1.00800           0
     18359 MEMB     130      DOPC     C27      CTL2    -0.180000       12.0110           0
     18360 MEMB     130      DOPC     H7R      HAL2     0.900000E-01   1.00800           0
     18361 MEMB     130      DOPC     H7S      HAL2     0.900000E-01   1.00800           0
     18362 MEMB     130      DOPC     C28      CTL2    -0.180000       12.0110           0
     18363 MEMB     130      DOPC     H8R      HAL2     0.900000E-01   1.00800           0
     18364 MEMB     130      DOPC     H8S      HAL2     0.900000E-01   1.00800           0
     18365 MEMB     130      DOPC     C29      CEL1    -0.150000       12.0110           0
     18366 MEMB     130      DOPC     H9R      HEL1     0.150000       1.00800           0
     18367 MEMB     130      DOPC     C210     CEL1    -0.150000       12.0110           0
     18368 MEMB     130      DOPC     H10R     HEL1     0.150000       1.00800           0
     18369 MEMB     130      DOPC     C211     CTL2    -0.180000       12.0110           0
     18370 MEMB     130      DOPC     H11R     HAL2     0.900000E-01   1.00800           0
     18371 MEMB     130      DOPC     H11S     HAL2     0.900000E-01   1.00800           0
     18372 MEMB     130      DOPC     C212     CTL2    -0.180000       12.0110           0
     18373 MEMB     130      DOPC     H12R     HAL2     0.900000E-01   1.00800           0
     18374 MEMB     130      DOPC     H12S     HAL2     0.900000E-01   1.00800           0
     18375 MEMB     130      DOPC     C213     CTL2    -0.180000       12.0110           0
     18376 MEMB     130      DOPC     H13R     HAL2     0.900000E-01   1.00800           0
     18377 MEMB     130      DOPC     H13S     HAL2     0.900000E-01   1.00800           0
     18378 MEMB     130      DOPC     C214     CTL2    -0.180000       12.0110           0
     18379 MEMB     130      DOPC     H14R     HAL2     0.900000E-01   1.00800           0
     18380 MEMB     130      DOPC     H14S     HAL2     0.900000E-01   1.00800           0
     18381 MEMB     130      DOPC     C215     CTL2    -0.180000       12.0110           0
     18382 MEMB     130      DOPC     H15R     HAL2     0.900000E-01   1.00800           0
     18383 MEMB     130      DOPC     H15S     HAL2     0.900000E-01   1.00800           0
     18384 MEMB     130      DOPC     C216     CTL2    -0.180000       12.0110           0
     18385 MEMB     130      DOPC     H16R     HAL2     0.900000E-01   1.00800           0
     18386 MEMB     130      DOPC     H16S     HAL2     0.900000E-01   1.00800           0
     18387 MEMB     130      DOPC     C217     CTL2    -0.180000       12.0110           0
     18388 MEMB     130      DOPC     H17R     HAL2     0.900000E-01   1.00800           0
     18389 MEMB     130      DOPC     H17S     HAL2     0.900000E-01   1.00800           0
     18390 MEMB     130      DOPC     C218     CTL3    -0.270000       12.0110           0
     18391 MEMB     130      DOPC     H18R     HAL3     0.900000E-01   1.00800           0
     18392 MEMB     130      DOPC     H18S     HAL3     0.900000E-01   1.00800           0
     18393 MEMB     130      DOPC     H18T     HAL3     0.900000E-01   1.00800           0
     18394 MEMB     130      DOPC     C33      CTL2    -0.180000       12.0110           0
     18395 MEMB     130      DOPC     H3X      HAL2     0.900000E-01   1.00800           0
     18396 MEMB     130      DOPC     H3Y      HAL2     0.900000E-01   1.00800           0
     18397 MEMB     130      DOPC     C34      CTL2    -0.180000       12.0110           0
     18398 MEMB     130      DOPC     H4X      HAL2     0.900000E-01   1.00800           0
     18399 MEMB     130      DOPC     H4Y      HAL2     0.900000E-01   1.00800           0
     18400 MEMB     130      DOPC     C35      CTL2    -0.180000       12.0110           0
     18401 MEMB     130      DOPC     H5X      HAL2     0.900000E-01   1.00800           0
     18402 MEMB     130      DOPC     H5Y      HAL2     0.900000E-01   1.00800           0
     18403 MEMB     130      DOPC     C36      CTL2    -0.180000       12.0110           0
     18404 MEMB     130      DOPC     H6X      HAL2     0.900000E-01   1.00800           0
     18405 MEMB     130      DOPC     H6Y      HAL2     0.900000E-01   1.00800           0
     18406 MEMB     130      DOPC     C37      CTL2    -0.180000       12.0110           0
     18407 MEMB     130      DOPC     H7X      HAL2     0.900000E-01   1.00800           0
     18408 MEMB     130      DOPC     H7Y      HAL2     0.900000E-01   1.00800           0
     18409 MEMB     130      DOPC     C38      CTL2    -0.180000       12.0110           0
     18410 MEMB     130      DOPC     H8X      HAL2     0.900000E-01   1.00800           0
     18411 MEMB     130      DOPC     H8Y      HAL2     0.900000E-01   1.00800           0
     18412 MEMB     130      DOPC     C39      CEL1    -0.150000       12.0110           0
     18413 MEMB     130      DOPC     H9X      HEL1     0.150000       1.00800           0
     18414 MEMB     130      DOPC     C310     CEL1    -0.150000       12.0110           0
     18415 MEMB     130      DOPC     H10X     HEL1     0.150000       1.00800           0
     18416 MEMB     130      DOPC     C311     CTL2    -0.180000       12.0110           0
     18417 MEMB     130      DOPC     H11X     HAL2     0.900000E-01   1.00800           0
     18418 MEMB     130      DOPC     H11Y     HAL2     0.900000E-01   1.00800           0
     18419 MEMB     130      DOPC     C312     CTL2    -0.180000       12.0110           0
     18420 MEMB     130      DOPC     H12X     HAL2     0.900000E-01   1.00800           0
     18421 MEMB     130      DOPC     H12Y     HAL2     0.900000E-01   1.00800           0
     18422 MEMB     130      DOPC     C313     CTL2    -0.180000       12.0110           0
     18423 MEMB     130      DOPC     H13X     HAL2     0.900000E-01   1.00800           0
     18424 MEMB     130      DOPC     H13Y     HAL2     0.900000E-01   1.00800           0
     18425 MEMB     130      DOPC     C314     CTL2    -0.180000       12.0110           0
     18426 MEMB     130      DOPC     H14X     HAL2     0.900000E-01   1.00800           0
     18427 MEMB     130      DOPC     H14Y     HAL2     0.900000E-01   1.00800           0
     18428 MEMB     130      DOPC     C315     CTL2    -0.180000       12.0110           0
     18429 MEMB     130      DOPC     H15X     HAL2     0.900000E-01   1.00800           0
     18430 MEMB     130      DOPC     H15Y     HAL2     0.900000E-01   1.00800           0
     18431 MEMB     130      DOPC     C316     CTL2    -0.180000       12.0110           0
     18432 MEMB     130      DOPC     H16X     HAL2     0.900000E-01   1.00800           0
     18433 MEMB     130      DOPC     H16Y     HAL2     0.900000E-01   1.00800           0
     18434 MEMB     130      DOPC     C317     CTL2    -0.180000       12.0110           0
     18435 MEMB     130      DOPC     H17X     HAL2     0.900000E-01   1.00800           0
     18436 MEMB     130      DOPC     H17Y     HAL2     0.900000E-01   1.00800           0
     18437 MEMB     130      DOPC     C318     CTL3    -0.270000       12.0110           0
     18438 MEMB     130      DOPC     H18X     HAL3     0.900000E-01   1.00800           0
     18439 MEMB     130      DOPC     H18Y     HAL3     0.900000E-01   1.00800           0
     18440 MEMB     130      DOPC     H18Z     HAL3     0.900000E-01   1.00800           0
     18441 MEMB     131      DOPC     N        NTL     -0.600000       14.0070           0
     18442 MEMB     131      DOPC     C12      CTL2    -0.100000       12.0110           0
     18443 MEMB     131      DOPC     H12A     HL       0.250000       1.00800           0
     18444 MEMB     131      DOPC     H12B     HL       0.250000       1.00800           0
     18445 MEMB     131      DOPC     C13      CTL5    -0.350000       12.0110           0
     18446 MEMB     131      DOPC     H13A     HL       0.250000       1.00800           0
     18447 MEMB     131      DOPC     H13B     HL       0.250000       1.00800           0
     18448 MEMB     131      DOPC     H13C     HL       0.250000       1.00800           0
     18449 MEMB     131      DOPC     C14      CTL5    -0.350000       12.0110           0
     18450 MEMB     131      DOPC     H14A     HL       0.250000       1.00800           0
     18451 MEMB     131      DOPC     H14B     HL       0.250000       1.00800           0
     18452 MEMB     131      DOPC     H14C     HL       0.250000       1.00800           0
     18453 MEMB     131      DOPC     C15      CTL5    -0.350000       12.0110           0
     18454 MEMB     131      DOPC     H15A     HL       0.250000       1.00800           0
     18455 MEMB     131      DOPC     H15B     HL       0.250000       1.00800           0
     18456 MEMB     131      DOPC     H15C     HL       0.250000       1.00800           0
     18457 MEMB     131      DOPC     C11      CTL2    -0.800000E-01   12.0110           0
     18458 MEMB     131      DOPC     H11A     HAL2     0.900000E-01   1.00800           0
     18459 MEMB     131      DOPC     H11B     HAL2     0.900000E-01   1.00800           0
     18460 MEMB     131      DOPC     P        PL        1.50000       30.9740           0
     18461 MEMB     131      DOPC     O13      O2L     -0.780000       15.9994           0
     18462 MEMB     131      DOPC     O14      O2L     -0.780000       15.9994           0
     18463 MEMB     131      DOPC     O12      OSLP    -0.570000       15.9994           0
     18464 MEMB     131      DOPC     O11      OSLP    -0.570000       15.9994           0
     18465 MEMB     131      DOPC     C1       CTL2    -0.800000E-01   12.0110           0
     18466 MEMB     131      DOPC     HA       HAL2     0.900000E-01   1.00800           0
     18467 MEMB     131      DOPC     HB       HAL2     0.900000E-01   1.00800           0
     18468 MEMB     131      DOPC     C2       CTL1     0.170000       12.0110           0
     18469 MEMB     131      DOPC     HS       HAL1     0.900000E-01   1.00800           0
     18470 MEMB     131      DOPC     O21      OSL     -0.490000       15.9994           0
     18471 MEMB     131      DOPC     C21      CL       0.900000       12.0110           0
     18472 MEMB     131      DOPC     O22      OBL     -0.630000       15.9994           0
     18473 MEMB     131      DOPC     C22      CTL2    -0.220000       12.0110           0
     18474 MEMB     131      DOPC     H2R      HAL2     0.900000E-01   1.00800           0
     18475 MEMB     131      DOPC     H2S      HAL2     0.900000E-01   1.00800           0
     18476 MEMB     131      DOPC     C3       CTL2     0.800000E-01   12.0110           0
     18477 MEMB     131      DOPC     HX       HAL2     0.900000E-01   1.00800           0
     18478 MEMB     131      DOPC     HY       HAL2     0.900000E-01   1.00800           0
     18479 MEMB     131      DOPC     O31      OSL     -0.490000       15.9994           0
     18480 MEMB     131      DOPC     C31      CL       0.900000       12.0110           0
     18481 MEMB     131      DOPC     O32      OBL     -0.630000       15.9994           0
     18482 MEMB     131      DOPC     C32      CTL2    -0.220000       12.0110           0
     18483 MEMB     131      DOPC     H2X      HAL2     0.900000E-01   1.00800           0
     18484 MEMB     131      DOPC     H2Y      HAL2     0.900000E-01   1.00800           0
     18485 MEMB     131      DOPC     C23      CTL2    -0.180000       12.0110           0
     18486 MEMB     131      DOPC     H3R      HAL2     0.900000E-01   1.00800           0
     18487 MEMB     131      DOPC     H3S      HAL2     0.900000E-01   1.00800           0
     18488 MEMB     131      DOPC     C24      CTL2    -0.180000       12.0110           0
     18489 MEMB     131      DOPC     H4R      HAL2     0.900000E-01   1.00800           0
     18490 MEMB     131      DOPC     H4S      HAL2     0.900000E-01   1.00800           0
     18491 MEMB     131      DOPC     C25      CTL2    -0.180000       12.0110           0
     18492 MEMB     131      DOPC     H5R      HAL2     0.900000E-01   1.00800           0
     18493 MEMB     131      DOPC     H5S      HAL2     0.900000E-01   1.00800           0
     18494 MEMB     131      DOPC     C26      CTL2    -0.180000       12.0110           0
     18495 MEMB     131      DOPC     H6R      HAL2     0.900000E-01   1.00800           0
     18496 MEMB     131      DOPC     H6S      HAL2     0.900000E-01   1.00800           0
     18497 MEMB     131      DOPC     C27      CTL2    -0.180000       12.0110           0
     18498 MEMB     131      DOPC     H7R      HAL2     0.900000E-01   1.00800           0
     18499 MEMB     131      DOPC     H7S      HAL2     0.900000E-01   1.00800           0
     18500 MEMB     131      DOPC     C28      CTL2    -0.180000       12.0110           0
     18501 MEMB     131      DOPC     H8R      HAL2     0.900000E-01   1.00800           0
     18502 MEMB     131      DOPC     H8S      HAL2     0.900000E-01   1.00800           0
     18503 MEMB     131      DOPC     C29      CEL1    -0.150000       12.0110           0
     18504 MEMB     131      DOPC     H9R      HEL1     0.150000       1.00800           0
     18505 MEMB     131      DOPC     C210     CEL1    -0.150000       12.0110           0
     18506 MEMB     131      DOPC     H10R     HEL1     0.150000       1.00800           0
     18507 MEMB     131      DOPC     C211     CTL2    -0.180000       12.0110           0
     18508 MEMB     131      DOPC     H11R     HAL2     0.900000E-01   1.00800           0
     18509 MEMB     131      DOPC     H11S     HAL2     0.900000E-01   1.00800           0
     18510 MEMB     131      DOPC     C212     CTL2    -0.180000       12.0110           0
     18511 MEMB     131      DOPC     H12R     HAL2     0.900000E-01   1.00800           0
     18512 MEMB     131      DOPC     H12S     HAL2     0.900000E-01   1.00800           0
     18513 MEMB     131      DOPC     C213     CTL2    -0.180000       12.0110           0
     18514 MEMB     131      DOPC     H13R     HAL2     0.900000E-01   1.00800           0
     18515 MEMB     131      DOPC     H13S     HAL2     0.900000E-01   1.00800           0
     18516 MEMB     131      DOPC     C214     CTL2    -0.180000       12.0110           0
     18517 MEMB     131      DOPC     H14R     HAL2     0.900000E-01   1.00800           0
     18518 MEMB     131      DOPC     H14S     HAL2     0.900000E-01   1.00800           0
     18519 MEMB     131      DOPC     C215     CTL2    -0.180000       12.0110           0
     18520 MEMB     131      DOPC     H15R     HAL2     0.900000E-01   1.00800           0
     18521 MEMB     131      DOPC     H15S     HAL2     0.900000E-01   1.00800           0
     18522 MEMB     131      DOPC     C216     CTL2    -0.180000       12.0110           0
     18523 MEMB     131      DOPC     H16R     HAL2     0.900000E-01   1.00800           0
     18524 MEMB     131      DOPC     H16S     HAL2     0.900000E-01   1.00800           0
     18525 MEMB     131      DOPC     C217     CTL2    -0.180000       12.0110           0
     18526 MEMB     131      DOPC     H17R     HAL2     0.900000E-01   1.00800           0
     18527 MEMB     131      DOPC     H17S     HAL2     0.900000E-01   1.00800           0
     18528 MEMB     131      DOPC     C218     CTL3    -0.270000       12.0110           0
     18529 MEMB     131      DOPC     H18R     HAL3     0.900000E-01   1.00800           0
     18530 MEMB     131      DOPC     H18S     HAL3     0.900000E-01   1.00800           0
     18531 MEMB     131      DOPC     H18T     HAL3     0.900000E-01   1.00800           0
     18532 MEMB     131      DOPC     C33      CTL2    -0.180000       12.0110           0
     18533 MEMB     131      DOPC     H3X      HAL2     0.900000E-01   1.00800           0
     18534 MEMB     131      DOPC     H3Y      HAL2     0.900000E-01   1.00800           0
     18535 MEMB     131      DOPC     C34      CTL2    -0.180000       12.0110           0
     18536 MEMB     131      DOPC     H4X      HAL2     0.900000E-01   1.00800           0
     18537 MEMB     131      DOPC     H4Y      HAL2     0.900000E-01   1.00800           0
     18538 MEMB     131      DOPC     C35      CTL2    -0.180000       12.0110           0
     18539 MEMB     131      DOPC     H5X      HAL2     0.900000E-01   1.00800           0
     18540 MEMB     131      DOPC     H5Y      HAL2     0.900000E-01   1.00800           0
     18541 MEMB     131      DOPC     C36      CTL2    -0.180000       12.0110           0
     18542 MEMB     131      DOPC     H6X      HAL2     0.900000E-01   1.00800           0
     18543 MEMB     131      DOPC     H6Y      HAL2     0.900000E-01   1.00800           0
     18544 MEMB     131      DOPC     C37      CTL2    -0.180000       12.0110           0
     18545 MEMB     131      DOPC     H7X      HAL2     0.900000E-01   1.00800           0
     18546 MEMB     131      DOPC     H7Y      HAL2     0.900000E-01   1.00800           0
     18547 MEMB     131      DOPC     C38      CTL2    -0.180000       12.0110           0
     18548 MEMB     131      DOPC     H8X      HAL2     0.900000E-01   1.00800           0
     18549 MEMB     131      DOPC     H8Y      HAL2     0.900000E-01   1.00800           0
     18550 MEMB     131      DOPC     C39      CEL1    -0.150000       12.0110           0
     18551 MEMB     131      DOPC     H9X      HEL1     0.150000       1.00800           0
     18552 MEMB     131      DOPC     C310     CEL1    -0.150000       12.0110           0
     18553 MEMB     131      DOPC     H10X     HEL1     0.150000       1.00800           0
     18554 MEMB     131      DOPC     C311     CTL2    -0.180000       12.0110           0
     18555 MEMB     131      DOPC     H11X     HAL2     0.900000E-01   1.00800           0
     18556 MEMB     131      DOPC     H11Y     HAL2     0.900000E-01   1.00800           0
     18557 MEMB     131      DOPC     C312     CTL2    -0.180000       12.0110           0
     18558 MEMB     131      DOPC     H12X     HAL2     0.900000E-01   1.00800           0
     18559 MEMB     131      DOPC     H12Y     HAL2     0.900000E-01   1.00800           0
     18560 MEMB     131      DOPC     C313     CTL2    -0.180000       12.0110           0
     18561 MEMB     131      DOPC     H13X     HAL2     0.900000E-01   1.00800           0
     18562 MEMB     131      DOPC     H13Y     HAL2     0.900000E-01   1.00800           0
     18563 MEMB     131      DOPC     C314     CTL2    -0.180000       12.0110           0
     18564 MEMB     131      DOPC     H14X     HAL2     0.900000E-01   1.00800           0
     18565 MEMB     131      DOPC     H14Y     HAL2     0.900000E-01   1.00800           0
     18566 MEMB     131      DOPC     C315     CTL2    -0.180000       12.0110           0
     18567 MEMB     131      DOPC     H15X     HAL2     0.900000E-01   1.00800           0
     18568 MEMB     131      DOPC     H15Y     HAL2     0.900000E-01   1.00800           0
     18569 MEMB     131      DOPC     C316     CTL2    -0.180000       12.0110           0
     18570 MEMB     131      DOPC     H16X     HAL2     0.900000E-01   1.00800           0
     18571 MEMB     131      DOPC     H16Y     HAL2     0.900000E-01   1.00800           0
     18572 MEMB     131      DOPC     C317     CTL2    -0.180000       12.0110           0
     18573 MEMB     131      DOPC     H17X     HAL2     0.900000E-01   1.00800           0
     18574 MEMB     131      DOPC     H17Y     HAL2     0.900000E-01   1.00800           0
     18575 MEMB     131      DOPC     C318     CTL3    -0.270000       12.0110           0
     18576 MEMB     131      DOPC     H18X     HAL3     0.900000E-01   1.00800           0
     18577 MEMB     131      DOPC     H18Y     HAL3     0.900000E-01   1.00800           0
     18578 MEMB     131      DOPC     H18Z     HAL3     0.900000E-01   1.00800           0
     18579 MEMB     132      DOPC     N        NTL     -0.600000       14.0070           0
     18580 MEMB     132      DOPC     C12      CTL2    -0.100000       12.0110           0
     18581 MEMB     132      DOPC     H12A     HL       0.250000       1.00800           0
     18582 MEMB     132      DOPC     H12B     HL       0.250000       1.00800           0
     18583 MEMB     132      DOPC     C13      CTL5    -0.350000       12.0110           0
     18584 MEMB     132      DOPC     H13A     HL       0.250000       1.00800           0
     18585 MEMB     132      DOPC     H13B     HL       0.250000       1.00800           0
     18586 MEMB     132      DOPC     H13C     HL       0.250000       1.00800           0
     18587 MEMB     132      DOPC     C14      CTL5    -0.350000       12.0110           0
     18588 MEMB     132      DOPC     H14A     HL       0.250000       1.00800           0
     18589 MEMB     132      DOPC     H14B     HL       0.250000       1.00800           0
     18590 MEMB     132      DOPC     H14C     HL       0.250000       1.00800           0
     18591 MEMB     132      DOPC     C15      CTL5    -0.350000       12.0110           0
     18592 MEMB     132      DOPC     H15A     HL       0.250000       1.00800           0
     18593 MEMB     132      DOPC     H15B     HL       0.250000       1.00800           0
     18594 MEMB     132      DOPC     H15C     HL       0.250000       1.00800           0
     18595 MEMB     132      DOPC     C11      CTL2    -0.800000E-01   12.0110           0
     18596 MEMB     132      DOPC     H11A     HAL2     0.900000E-01   1.00800           0
     18597 MEMB     132      DOPC     H11B     HAL2     0.900000E-01   1.00800           0
     18598 MEMB     132      DOPC     P        PL        1.50000       30.9740           0
     18599 MEMB     132      DOPC     O13      O2L     -0.780000       15.9994           0
     18600 MEMB     132      DOPC     O14      O2L     -0.780000       15.9994           0
     18601 MEMB     132      DOPC     O12      OSLP    -0.570000       15.9994           0
     18602 MEMB     132      DOPC     O11      OSLP    -0.570000       15.9994           0
     18603 MEMB     132      DOPC     C1       CTL2    -0.800000E-01   12.0110           0
     18604 MEMB     132      DOPC     HA       HAL2     0.900000E-01   1.00800           0
     18605 MEMB     132      DOPC     HB       HAL2     0.900000E-01   1.00800           0
     18606 MEMB     132      DOPC     C2       CTL1     0.170000       12.0110           0
     18607 MEMB     132      DOPC     HS       HAL1     0.900000E-01   1.00800           0
     18608 MEMB     132      DOPC     O21      OSL     -0.490000       15.9994           0
     18609 MEMB     132      DOPC     C21      CL       0.900000       12.0110           0
     18610 MEMB     132      DOPC     O22      OBL     -0.630000       15.9994           0
     18611 MEMB     132      DOPC     C22      CTL2    -0.220000       12.0110           0
     18612 MEMB     132      DOPC     H2R      HAL2     0.900000E-01   1.00800           0
     18613 MEMB     132      DOPC     H2S      HAL2     0.900000E-01   1.00800           0
     18614 MEMB     132      DOPC     C3       CTL2     0.800000E-01   12.0110           0
     18615 MEMB     132      DOPC     HX       HAL2     0.900000E-01   1.00800           0
     18616 MEMB     132      DOPC     HY       HAL2     0.900000E-01   1.00800           0
     18617 MEMB     132      DOPC     O31      OSL     -0.490000       15.9994           0
     18618 MEMB     132      DOPC     C31      CL       0.900000       12.0110           0
     18619 MEMB     132      DOPC     O32      OBL     -0.630000       15.9994           0
     18620 MEMB     132      DOPC     C32      CTL2    -0.220000       12.0110           0
     18621 MEMB     132      DOPC     H2X      HAL2     0.900000E-01   1.00800           0
     18622 MEMB     132      DOPC     H2Y      HAL2     0.900000E-01   1.00800           0
     18623 MEMB     132      DOPC     C23      CTL2    -0.180000       12.0110           0
     18624 MEMB     132      DOPC     H3R      HAL2     0.900000E-01   1.00800           0
     18625 MEMB     132      DOPC     H3S      HAL2     0.900000E-01   1.00800           0
     18626 MEMB     132      DOPC     C24      CTL2    -0.180000       12.0110           0
     18627 MEMB     132      DOPC     H4R      HAL2     0.900000E-01   1.00800           0
     18628 MEMB     132      DOPC     H4S      HAL2     0.900000E-01   1.00800           0
     18629 MEMB     132      DOPC     C25      CTL2    -0.180000       12.0110           0
     18630 MEMB     132      DOPC     H5R      HAL2     0.900000E-01   1.00800           0
     18631 MEMB     132      DOPC     H5S      HAL2     0.900000E-01   1.00800           0
     18632 MEMB     132      DOPC     C26      CTL2    -0.180000       12.0110           0
     18633 MEMB     132      DOPC     H6R      HAL2     0.900000E-01   1.00800           0
     18634 MEMB     132      DOPC     H6S      HAL2     0.900000E-01   1.00800           0
     18635 MEMB     132      DOPC     C27      CTL2    -0.180000       12.0110           0
     18636 MEMB     132      DOPC     H7R      HAL2     0.900000E-01   1.00800           0
     18637 MEMB     132      DOPC     H7S      HAL2     0.900000E-01   1.00800           0
     18638 MEMB     132      DOPC     C28      CTL2    -0.180000       12.0110           0
     18639 MEMB     132      DOPC     H8R      HAL2     0.900000E-01   1.00800           0
     18640 MEMB     132      DOPC     H8S      HAL2     0.900000E-01   1.00800           0
     18641 MEMB     132      DOPC     C29      CEL1    -0.150000       12.0110           0
     18642 MEMB     132      DOPC     H9R      HEL1     0.150000       1.00800           0
     18643 MEMB     132      DOPC     C210     CEL1    -0.150000       12.0110           0
     18644 MEMB     132      DOPC     H10R     HEL1     0.150000       1.00800           0
     18645 MEMB     132      DOPC     C211     CTL2    -0.180000       12.0110           0
     18646 MEMB     132      DOPC     H11R     HAL2     0.900000E-01   1.00800           0
     18647 MEMB     132      DOPC     H11S     HAL2     0.900000E-01   1.00800           0
     18648 MEMB     132      DOPC     C212     CTL2    -0.180000       12.0110           0
     18649 MEMB     132      DOPC     H12R     HAL2     0.900000E-01   1.00800           0
     18650 MEMB     132      DOPC     H12S     HAL2     0.900000E-01   1.00800           0
     18651 MEMB     132      DOPC     C213     CTL2    -0.180000       12.0110           0
     18652 MEMB     132      DOPC     H13R     HAL2     0.900000E-01   1.00800           0
     18653 MEMB     132      DOPC     H13S     HAL2     0.900000E-01   1.00800           0
     18654 MEMB     132      DOPC     C214     CTL2    -0.180000       12.0110           0
     18655 MEMB     132      DOPC     H14R     HAL2     0.900000E-01   1.00800           0
     18656 MEMB     132      DOPC     H14S     HAL2     0.900000E-01   1.00800           0
     18657 MEMB     132      DOPC     C215     CTL2    -0.180000       12.0110           0
     18658 MEMB     132      DOPC     H15R     HAL2     0.900000E-01   1.00800           0
     18659 MEMB     132      DOPC     H15S     HAL2     0.900000E-01   1.00800           0
     18660 MEMB     132      DOPC     C216     CTL2    -0.180000       12.0110           0
     18661 MEMB     132      DOPC     H16R     HAL2     0.900000E-01   1.00800           0
     18662 MEMB     132      DOPC     H16S     HAL2     0.900000E-01   1.00800           0
     18663 MEMB     132      DOPC     C217     CTL2    -0.180000       12.0110           0
     18664 MEMB     132      DOPC     H17R     HAL2     0.900000E-01   1.00800           0
     18665 MEMB     132      DOPC     H17S     HAL2     0.900000E-01   1.00800           0
     18666 MEMB     132      DOPC     C218     CTL3    -0.270000       12.0110           0
     18667 MEMB     132      DOPC     H18R     HAL3     0.900000E-01   1.00800           0
     18668 MEMB     132      DOPC     H18S     HAL3     0.900000E-01   1.00800           0
     18669 MEMB     132      DOPC     H18T     HAL3     0.900000E-01   1.00800           0
     18670 MEMB     132      DOPC     C33      CTL2    -0.180000       12.0110           0
     18671 MEMB     132      DOPC     H3X      HAL2     0.900000E-01   1.00800           0
     18672 MEMB     132      DOPC     H3Y      HAL2     0.900000E-01   1.00800           0
     18673 MEMB     132      DOPC     C34      CTL2    -0.180000       12.0110           0
     18674 MEMB     132      DOPC     H4X      HAL2     0.900000E-01   1.00800           0
     18675 MEMB     132      DOPC     H4Y      HAL2     0.900000E-01   1.00800           0
     18676 MEMB     132      DOPC     C35      CTL2    -0.180000       12.0110           0
     18677 MEMB     132      DOPC     H5X      HAL2     0.900000E-01   1.00800           0
     18678 MEMB     132      DOPC     H5Y      HAL2     0.900000E-01   1.00800           0
     18679 MEMB     132      DOPC     C36      CTL2    -0.180000       12.0110           0
     18680 MEMB     132      DOPC     H6X      HAL2     0.900000E-01   1.00800           0
     18681 MEMB     132      DOPC     H6Y      HAL2     0.900000E-01   1.00800           0
     18682 MEMB     132      DOPC     C37      CTL2    -0.180000       12.0110           0
     18683 MEMB     132      DOPC     H7X      HAL2     0.900000E-01   1.00800           0
     18684 MEMB     132      DOPC     H7Y      HAL2     0.900000E-01   1.00800           0
     18685 MEMB     132      DOPC     C38      CTL2    -0.180000       12.0110           0
     18686 MEMB     132      DOPC     H8X      HAL2     0.900000E-01   1.00800           0
     18687 MEMB     132      DOPC     H8Y      HAL2     0.900000E-01   1.00800           0
     18688 MEMB     132      DOPC     C39      CEL1    -0.150000       12.0110           0
     18689 MEMB     132      DOPC     H9X      HEL1     0.150000       1.00800           0
     18690 MEMB     132      DOPC     C310     CEL1    -0.150000       12.0110           0
     18691 MEMB     132      DOPC     H10X     HEL1     0.150000       1.00800           0
     18692 MEMB     132      DOPC     C311     CTL2    -0.180000       12.0110           0
     18693 MEMB     132      DOPC     H11X     HAL2     0.900000E-01   1.00800           0
     18694 MEMB     132      DOPC     H11Y     HAL2     0.900000E-01   1.00800           0
     18695 MEMB     132      DOPC     C312     CTL2    -0.180000       12.0110           0
     18696 MEMB     132      DOPC     H12X     HAL2     0.900000E-01   1.00800           0
     18697 MEMB     132      DOPC     H12Y     HAL2     0.900000E-01   1.00800           0
     18698 MEMB     132      DOPC     C313     CTL2    -0.180000       12.0110           0
     18699 MEMB     132      DOPC     H13X     HAL2     0.900000E-01   1.00800           0
     18700 MEMB     132      DOPC     H13Y     HAL2     0.900000E-01   1.00800           0
     18701 MEMB     132      DOPC     C314     CTL2    -0.180000       12.0110           0
     18702 MEMB     132      DOPC     H14X     HAL2     0.900000E-01   1.00800           0
     18703 MEMB     132      DOPC     H14Y     HAL2     0.900000E-01   1.00800           0
     18704 MEMB     132      DOPC     C315     CTL2    -0.180000       12.0110           0
     18705 MEMB     132      DOPC     H15X     HAL2     0.900000E-01   1.00800           0
     18706 MEMB     132      DOPC     H15Y     HAL2     0.900000E-01   1.00800           0
     18707 MEMB     132      DOPC     C316     CTL2    -0.180000       12.0110           0
     18708 MEMB     132      DOPC     H16X     HAL2     0.900000E-01   1.00800           0
     18709 MEMB     132      DOPC     H16Y     HAL2     0.900000E-01   1.00800           0
     18710 MEMB     132      DOPC     C317     CTL2    -0.180000       12.0110           0
     18711 MEMB     132      DOPC     H17X     HAL2     0.900000E-01   1.00800           0
     18712 MEMB     132      DOPC     H17Y     HAL2     0.900000E-01   1.00800           0
     18713 MEMB     132      DOPC     C318     CTL3    -0.270000       12.0110           0
     18714 MEMB     132      DOPC     H18X     HAL3     0.900000E-01   1.00800           0
     18715 MEMB     132      DOPC     H18Y     HAL3     0.900000E-01   1.00800           0
     18716 MEMB     132      DOPC     H18Z     HAL3     0.900000E-01   1.00800           0
     18717 TIP3     1        TIP3     OH2      OT      -0.834000       15.9994           0
     18718 TIP3     1        TIP3     H1       HT       0.417000       1.00800           0
     18719 TIP3     1        TIP3     H2       HT       0.417000       1.00800           0
     18720 TIP3     2        TIP3     OH2      OT      -0.834000       15.9994           0
     18721 TIP3     2        TIP3     H1       HT       0.417000       1.00800           0
     18722 TIP3     2        TIP3     H2       HT       0.417000       1.00800           0
     18723 TIP3     3        TIP3     OH2      OT      -0.834000       15.9994           0
     18724 TIP3     3        TIP3     H1       HT       0.417000       1.00800           0
     18725 TIP3     3        TIP3     H2       HT       0.417000       1.00800           0
     18726 TIP3     4        TIP3     OH2      OT      -0.834000       15.9994           0
     18727 TIP3     4        TIP3     H1       HT       0.417000       1.00800           0
     18728 TIP3     4        TIP3     H2       HT       0.417000       1.00800           0
     18729 TIP3     5        TIP3     OH2      OT      -0.834000       15.9994           0
     18730 TIP3     5        TIP3     H1       HT       0.417000       1.00800           0
     18731 TIP3     5        TIP3     H2       HT       0.417000       1.00800           0
     18732 TIP3     6        TIP3     OH2      OT      -0.834000       15.9994           0
     18733 TIP3     6        TIP3     H1       HT       0.417000       1.00800           0
     18734 TIP3     6        TIP3     H2       HT       0.417000       1.00800           0
     18735 TIP3     7        TIP3     OH2      OT      -0.834000       15.9994           0
     18736 TIP3     7        TIP3     H1       HT       0.417000       1.00800           0
     18737 TIP3     7        TIP3     H2       HT       0.417000       1.00800           0
     18738 TIP3     8        TIP3     OH2      OT      -0.834000       15.9994           0
     18739 TIP3     8        TIP3     H1       HT       0.417000       1.00800           0
     18740 TIP3     8        TIP3     H2       HT       0.417000       1.00800           0
     18741 TIP3     9        TIP3     OH2      OT      -0.834000       15.9994           0
     18742 TIP3     9        TIP3     H1       HT       0.417000       1.00800           0
     18743 TIP3     9        TIP3     H2       HT       0.417000       1.00800           0
     18744 TIP3     10       TIP3     OH2      OT      -0.834000       15.9994           0
     18745 TIP3     10       TIP3     H1       HT       0.417000       1.00800           0
     18746 TIP3     10       TIP3     H2       HT       0.417000       1.00800           0
     18747 TIP3     11       TIP3     OH2      OT      -0.834000       15.9994           0
     18748 TIP3     11       TIP3     H1       HT       0.417000       1.00800           0
     18749 TIP3     11       TIP3     H2       HT       0.417000       1.00800           0
     18750 TIP3     12       TIP3     OH2      OT      -0.834000       15.9994           0
     18751 TIP3     12       TIP3     H1       HT       0.417000       1.00800           0
     18752 TIP3     12       TIP3     H2       HT       0.417000       1.00800           0
     18753 TIP3     13       TIP3     OH2      OT      -0.834000       15.9994           0
     18754 TIP3     13       TIP3     H1       HT       0.417000       1.00800           0
     18755 TIP3     13       TIP3     H2       HT       0.417000       1.00800           0
     18756 TIP3     14       TIP3     OH2      OT      -0.834000       15.9994           0
     18757 TIP3     14       TIP3     H1       HT       0.417000       1.00800           0
     18758 TIP3     14       TIP3     H2       HT       0.417000       1.00800           0
     18759 TIP3     15       TIP3     OH2      OT      -0.834000       15.9994           0
     18760 TIP3     15       TIP3     H1       HT       0.417000       1.00800           0
     18761 TIP3     15       TIP3     H2       HT       0.417000       1.00800           0
     18762 TIP3     16       TIP3     OH2      OT      -0.834000       15.9994           0
     18763 TIP3     16       TIP3     H1       HT       0.417000       1.00800           0
     18764 TIP3     16       TIP3     H2       HT       0.417000       1.00800           0
     18765 TIP3     17       TIP3     OH2      OT      -0.834000       15.9994           0
     18766 TIP3     17       TIP3     H1       HT       0.417000       1.00800           0
     18767 TIP3     17       TIP3     H2       HT       0.417000       1.00800           0
     18768 TIP3     18       TIP3     OH2      OT      -0.834000       15.9994           0
     18769 TIP3     18       TIP3     H1       HT       0.417000       1.00800           0
     18770 TIP3     18       TIP3     H2       HT       0.417000       1.00800           0
     18771 TIP3     19       TIP3     OH2      OT      -0.834000       15.9994           0
     18772 TIP3     19       TIP3     H1       HT       0.417000       1.00800           0
     18773 TIP3     19       TIP3     H2       HT       0.417000       1.00800           0
     18774 TIP3     20       TIP3     OH2      OT      -0.834000       15.9994           0
     18775 TIP3     20       TIP3     H1       HT       0.417000       1.00800           0
     18776 TIP3     20       TIP3     H2       HT       0.417000       1.00800           0
     18777 TIP3     21       TIP3     OH2      OT      -0.834000       15.9994           0
     18778 TIP3     21       TIP3     H1       HT       0.417000       1.00800           0
     18779 TIP3     21       TIP3     H2       HT       0.417000       1.00800           0
     18780 TIP3     22       TIP3     OH2      OT      -0.834000       15.9994           0
     18781 TIP3     22       TIP3     H1       HT       0.417000       1.00800           0
     18782 TIP3     22       TIP3     H2       HT       0.417000       1.00800           0
     18783 TIP3     23       TIP3     OH2      OT      -0.834000       15.9994           0
     18784 TIP3     23       TIP3     H1       HT       0.417000       1.00800           0
     18785 TIP3     23       TIP3     H2       HT       0.417000       1.00800           0
     18786 TIP3     24       TIP3     OH2      OT      -0.834000       15.9994           0
     18787 TIP3     24       TIP3     H1       HT       0.417000       1.00800           0
     18788 TIP3     24       TIP3     H2       HT       0.417000       1.00800           0
     18789 TIP3     25       TIP3     OH2      OT      -0.834000       15.9994           0
     18790 TIP3     25       TIP3     H1       HT       0.417000       1.00800           0
     18791 TIP3     25       TIP3     H2       HT       0.417000       1.00800           0
     18792 TIP3     26       TIP3     OH2      OT      -0.834000       15.9994           0
     18793 TIP3     26       TIP3     H1       HT       0.417000       1.00800           0
     18794 TIP3     26       TIP3     H2       HT       0.417000       1.00800           0
     18795 TIP3     27       TIP3     OH2      OT      -0.834000       15.9994           0
     18796 TIP3     27       TIP3     H1       HT       0.417000       1.00800           0
     18797 TIP3     27       TIP3     H2       HT       0.417000       1.00800           0
     18798 TIP3     28       TIP3     OH2      OT      -0.834000       15.9994           0
     18799 TIP3     28       TIP3     H1       HT       0.417000       1.00800           0
     18800 TIP3     28       TIP3     H2       HT       0.417000       1.00800           0
     18801 TIP3     29       TIP3     OH2      OT      -0.834000       15.9994           0
     18802 TIP3     29       TIP3     H1       HT       0.417000       1.00800           0
     18803 TIP3     29       TIP3     H2       HT       0.417000       1.00800           0
     18804 TIP3     30       TIP3     OH2      OT      -0.834000       15.9994           0
     18805 TIP3     30       TIP3     H1       HT       0.417000       1.00800           0
     18806 TIP3     30       TIP3     H2       HT       0.417000       1.00800           0
     18807 TIP3     31       TIP3     OH2      OT      -0.834000       15.9994           0
     18808 TIP3     31       TIP3     H1       HT       0.417000       1.00800           0
     18809 TIP3     31       TIP3     H2       HT       0.417000       1.00800           0
     18810 TIP3     32       TIP3     OH2      OT      -0.834000       15.9994           0
     18811 TIP3     32       TIP3     H1       HT       0.417000       1.00800           0
     18812 TIP3     32       TIP3     H2       HT       0.417000       1.00800           0
     18813 TIP3     33       TIP3     OH2      OT      -0.834000       15.9994           0
     18814 TIP3     33       TIP3     H1       HT       0.417000       1.00800           0
     18815 TIP3     33       TIP3     H2       HT       0.417000       1.00800           0
     18816 TIP3     34       TIP3     OH2      OT      -0.834000       15.9994           0
     18817 TIP3     34       TIP3     H1       HT       0.417000       1.00800           0
     18818 TIP3     34       TIP3     H2       HT       0.417000       1.00800           0
     18819 TIP3     35       TIP3     OH2      OT      -0.834000       15.9994           0
     18820 TIP3     35       TIP3     H1       HT       0.417000       1.00800           0
     18821 TIP3     35       TIP3     H2       HT       0.417000       1.00800           0
     18822 TIP3     36       TIP3     OH2      OT      -0.834000       15.9994           0
     18823 TIP3     36       TIP3     H1       HT       0.417000       1.00800           0
     18824 TIP3     36       TIP3     H2       HT       0.417000       1.00800           0
     18825 TIP3     37       TIP3     OH2      OT      -0.834000       15.9994           0
     18826 TIP3     37       TIP3     H1       HT       0.417000       1.00800           0
     18827 TIP3     37       TIP3     H2       HT       0.417000       1.00800           0
     18828 TIP3     38       TIP3     OH2      OT      -0.834000       15.9994           0
     18829 TIP3     38       TIP3     H1       HT       0.417000       1.00800           0
     18830 TIP3     38       TIP3     H2       HT       0.417000       1.00800           0
     18831 TIP3     39       TIP3     OH2      OT      -0.834000       15.9994           0
     18832 TIP3     39       TIP3     H1       HT       0.417000       1.00800           0
     18833 TIP3     39       TIP3     H2       HT       0.417000       1.00800           0
     18834 TIP3     40       TIP3     OH2      OT      -0.834000       15.9994           0
     18835 TIP3     40       TIP3     H1       HT       0.417000       1.00800           0
     18836 TIP3     40       TIP3     H2       HT       0.417000       1.00800           0
     18837 TIP3     41       TIP3     OH2      OT      -0.834000       15.9994           0
     18838 TIP3     41       TIP3     H1       HT       0.417000       1.00800           0
     18839 TIP3     41       TIP3     H2       HT       0.417000       1.00800           0
     18840 TIP3     42       TIP3     OH2      OT      -0.834000       15.9994           0
     18841 TIP3     42       TIP3     H1       HT       0.417000       1.00800           0
     18842 TIP3     42       TIP3     H2       HT       0.417000       1.00800           0
     18843 TIP3     43       TIP3     OH2      OT      -0.834000       15.9994           0
     18844 TIP3     43       TIP3     H1       HT       0.417000       1.00800           0
     18845 TIP3     43       TIP3     H2       HT       0.417000       1.00800           0
     18846 TIP3     44       TIP3     OH2      OT      -0.834000       15.9994           0
     18847 TIP3     44       TIP3     H1       HT       0.417000       1.00800           0
     18848 TIP3     44       TIP3     H2       HT       0.417000       1.00800           0
     18849 TIP3     45       TIP3     OH2      OT      -0.834000       15.9994           0
     18850 TIP3     45       TIP3     H1       HT       0.417000       1.00800           0
     18851 TIP3     45       TIP3     H2       HT       0.417000       1.00800           0
     18852 TIP3     46       TIP3     OH2      OT      -0.834000       15.9994           0
     18853 TIP3     46       TIP3     H1       HT       0.417000       1.00800           0
     18854 TIP3     46       TIP3     H2       HT       0.417000       1.00800           0
     18855 TIP3     47       TIP3     OH2      OT      -0.834000       15.9994           0
     18856 TIP3     47       TIP3     H1       HT       0.417000       1.00800           0
     18857 TIP3     47       TIP3     H2       HT       0.417000       1.00800           0
     18858 TIP3     48       TIP3     OH2      OT      -0.834000       15.9994           0
     18859 TIP3     48       TIP3     H1       HT       0.417000       1.00800           0
     18860 TIP3     48       TIP3     H2       HT       0.417000       1.00800           0
     18861 TIP3     49       TIP3     OH2      OT      -0.834000       15.9994           0
     18862 TIP3     49       TIP3     H1       HT       0.417000       1.00800           0
     18863 TIP3     49       TIP3     H2       HT       0.417000       1.00800           0
     18864 TIP3     50       TIP3     OH2      OT      -0.834000       15.9994           0
     18865 TIP3     50       TIP3     H1       HT       0.417000       1.00800           0
     18866 TIP3     50       TIP3     H2       HT       0.417000       1.00800           0
     18867 TIP3     51       TIP3     OH2      OT      -0.834000       15.9994           0
     18868 TIP3     51       TIP3     H1       HT       0.417000       1.00800           0
     18869 TIP3     51       TIP3     H2       HT       0.417000       1.00800           0
     18870 TIP3     52       TIP3     OH2      OT      -0.834000       15.9994           0
     18871 TIP3     52       TIP3     H1       HT       0.417000       1.00800           0
     18872 TIP3     52       TIP3     H2       HT       0.417000       1.00800           0
     18873 TIP3     53       TIP3     OH2      OT      -0.834000       15.9994           0
     18874 TIP3     53       TIP3     H1       HT       0.417000       1.00800           0
     18875 TIP3     53       TIP3     H2       HT       0.417000       1.00800           0
     18876 TIP3     54       TIP3     OH2      OT      -0.834000       15.9994           0
     18877 TIP3     54       TIP3     H1       HT       0.417000       1.00800           0
     18878 TIP3     54       TIP3     H2       HT       0.417000       1.00800           0
     18879 TIP3     55       TIP3     OH2      OT      -0.834000       15.9994           0
     18880 TIP3     55       TIP3     H1       HT       0.417000       1.00800           0
     18881 TIP3     55       TIP3     H2       HT       0.417000       1.00800           0
     18882 TIP3     56       TIP3     OH2      OT      -0.834000       15.9994           0
     18883 TIP3     56       TIP3     H1       HT       0.417000       1.00800           0
     18884 TIP3     56       TIP3     H2       HT       0.417000       1.00800           0
     18885 TIP3     57       TIP3     OH2      OT      -0.834000       15.9994           0
     18886 TIP3     57       TIP3     H1       HT       0.417000       1.00800           0
     18887 TIP3     57       TIP3     H2       HT       0.417000       1.00800           0
     18888 TIP3     58       TIP3     OH2      OT      -0.834000       15.9994           0
     18889 TIP3     58       TIP3     H1       HT       0.417000       1.00800           0
     18890 TIP3     58       TIP3     H2       HT       0.417000       1.00800           0
     18891 TIP3     59       TIP3     OH2      OT      -0.834000       15.9994           0
     18892 TIP3     59       TIP3     H1       HT       0.417000       1.00800           0
     18893 TIP3     59       TIP3     H2       HT       0.417000       1.00800           0
     18894 TIP3     60       TIP3     OH2      OT      -0.834000       15.9994           0
     18895 TIP3     60       TIP3     H1       HT       0.417000       1.00800           0
     18896 TIP3     60       TIP3     H2       HT       0.417000       1.00800           0
     18897 TIP3     61       TIP3     OH2      OT      -0.834000       15.9994           0
     18898 TIP3     61       TIP3     H1       HT       0.417000       1.00800           0
     18899 TIP3     61       TIP3     H2       HT       0.417000       1.00800           0
     18900 TIP3     62       TIP3     OH2      OT      -0.834000       15.9994           0
     18901 TIP3     62       TIP3     H1       HT       0.417000       1.00800           0
     18902 TIP3     62       TIP3     H2       HT       0.417000       1.00800           0
     18903 TIP3     63       TIP3     OH2      OT      -0.834000       15.9994           0
     18904 TIP3     63       TIP3     H1       HT       0.417000       1.00800           0
     18905 TIP3     63       TIP3     H2       HT       0.417000       1.00800           0
     18906 TIP3     64       TIP3     OH2      OT      -0.834000       15.9994           0
     18907 TIP3     64       TIP3     H1       HT       0.417000       1.00800           0
     18908 TIP3     64       TIP3     H2       HT       0.417000       1.00800           0
     18909 TIP3     65       TIP3     OH2      OT      -0.834000       15.9994           0
     18910 TIP3     65       TIP3     H1       HT       0.417000       1.00800           0
     18911 TIP3     65       TIP3     H2       HT       0.417000       1.00800           0
     18912 TIP3     66       TIP3     OH2      OT      -0.834000       15.9994           0
     18913 TIP3     66       TIP3     H1       HT       0.417000       1.00800           0
     18914 TIP3     66       TIP3     H2       HT       0.417000       1.00800           0
     18915 TIP3     67       TIP3     OH2      OT      -0.834000       15.9994           0
     18916 TIP3     67       TIP3     H1       HT       0.417000       1.00800           0
     18917 TIP3     67       TIP3     H2       HT       0.417000       1.00800           0
     18918 TIP3     68       TIP3     OH2      OT      -0.834000       15.9994           0
     18919 TIP3     68       TIP3     H1       HT       0.417000       1.00800           0
     18920 TIP3     68       TIP3     H2       HT       0.417000       1.00800           0
     18921 TIP3     69       TIP3     OH2      OT      -0.834000       15.9994           0
     18922 TIP3     69       TIP3     H1       HT       0.417000       1.00800           0
     18923 TIP3     69       TIP3     H2       HT       0.417000       1.00800           0
     18924 TIP3     70       TIP3     OH2      OT      -0.834000       15.9994           0
     18925 TIP3     70       TIP3     H1       HT       0.417000       1.00800           0
     18926 TIP3     70       TIP3     H2       HT       0.417000       1.00800           0
     18927 TIP3     71       TIP3     OH2      OT      -0.834000       15.9994           0
     18928 TIP3     71       TIP3     H1       HT       0.417000       1.00800           0
     18929 TIP3     71       TIP3     H2       HT       0.417000       1.00800           0
     18930 TIP3     72       TIP3     OH2      OT      -0.834000       15.9994           0
     18931 TIP3     72       TIP3     H1       HT       0.417000       1.00800           0
     18932 TIP3     72       TIP3     H2       HT       0.417000       1.00800           0
     18933 TIP3     73       TIP3     OH2      OT      -0.834000       15.9994           0
     18934 TIP3     73       TIP3     H1       HT       0.417000       1.00800           0
     18935 TIP3     73       TIP3     H2       HT       0.417000       1.00800           0
     18936 TIP3     74       TIP3     OH2      OT      -0.834000       15.9994           0
     18937 TIP3     74       TIP3     H1       HT       0.417000       1.00800           0
     18938 TIP3     74       TIP3     H2       HT       0.417000       1.00800           0
     18939 TIP3     75       TIP3     OH2      OT      -0.834000       15.9994           0
     18940 TIP3     75       TIP3     H1       HT       0.417000       1.00800           0
     18941 TIP3     75       TIP3     H2       HT       0.417000       1.00800           0
     18942 TIP3     76       TIP3     OH2      OT      -0.834000       15.9994           0
     18943 TIP3     76       TIP3     H1       HT       0.417000       1.00800           0
     18944 TIP3     76       TIP3     H2       HT       0.417000       1.00800           0
     18945 TIP3     77       TIP3     OH2      OT      -0.834000       15.9994           0
     18946 TIP3     77       TIP3     H1       HT       0.417000       1.00800           0
     18947 TIP3     77       TIP3     H2       HT       0.417000       1.00800           0
     18948 TIP3     78       TIP3     OH2      OT      -0.834000       15.9994           0
     18949 TIP3     78       TIP3     H1       HT       0.417000       1.00800           0
     18950 TIP3     78       TIP3     H2       HT       0.417000       1.00800           0
     18951 TIP3     79       TIP3     OH2      OT      -0.834000       15.9994           0
     18952 TIP3     79       TIP3     H1       HT       0.417000       1.00800           0
     18953 TIP3     79       TIP3     H2       HT       0.417000       1.00800           0
     18954 TIP3     80       TIP3     OH2      OT      -0.834000       15.9994           0
     18955 TIP3     80       TIP3     H1       HT       0.417000       1.00800           0
     18956 TIP3     80       TIP3     H2       HT       0.417000       1.00800           0
     18957 TIP3     81       TIP3     OH2      OT      -0.834000       15.9994           0
     18958 TIP3     81       TIP3     H1       HT       0.417000       1.00800           0
     18959 TIP3     81       TIP3     H2       HT       0.417000       1.00800           0
     18960 TIP3     82       TIP3     OH2      OT      -0.834000       15.9994           0
     18961 TIP3     82       TIP3     H1       HT       0.417000       1.00800           0
     18962 TIP3     82       TIP3     H2       HT       0.417000       1.00800           0
     18963 TIP3     83       TIP3     OH2      OT      -0.834000       15.9994           0
     18964 TIP3     83       TIP3     H1       HT       0.417000       1.00800           0
     18965 TIP3     83       TIP3     H2       HT       0.417000       1.00800           0
     18966 TIP3     84       TIP3     OH2      OT      -0.834000       15.9994           0
     18967 TIP3     84       TIP3     H1       HT       0.417000       1.00800           0
     18968 TIP3     84       TIP3     H2       HT       0.417000       1.00800           0
     18969 TIP3     85       TIP3     OH2      OT      -0.834000       15.9994           0
     18970 TIP3     85       TIP3     H1       HT       0.417000       1.00800           0
     18971 TIP3     85       TIP3     H2       HT       0.417000       1.00800           0
     18972 TIP3     86       TIP3     OH2      OT      -0.834000       15.9994           0
     18973 TIP3     86       TIP3     H1       HT       0.417000       1.00800           0
     18974 TIP3     86       TIP3     H2       HT       0.417000       1.00800           0
     18975 TIP3     87       TIP3     OH2      OT      -0.834000       15.9994           0
     18976 TIP3     87       TIP3     H1       HT       0.417000       1.00800           0
     18977 TIP3     87       TIP3     H2       HT       0.417000       1.00800           0
     18978 TIP3     88       TIP3     OH2      OT      -0.834000       15.9994           0
     18979 TIP3     88       TIP3     H1       HT       0.417000       1.00800           0
     18980 TIP3     88       TIP3     H2       HT       0.417000       1.00800           0
     18981 TIP3     89       TIP3     OH2      OT      -0.834000       15.9994           0
     18982 TIP3     89       TIP3     H1       HT       0.417000       1.00800           0
     18983 TIP3     89       TIP3     H2       HT       0.417000       1.00800           0
     18984 TIP3     90       TIP3     OH2      OT      -0.834000       15.9994           0
     18985 TIP3     90       TIP3     H1       HT       0.417000       1.00800           0
     18986 TIP3     90       TIP3     H2       HT       0.417000       1.00800           0
     18987 TIP3     91       TIP3     OH2      OT      -0.834000       15.9994           0
     18988 TIP3     91       TIP3     H1       HT       0.417000       1.00800           0
     18989 TIP3     91       TIP3     H2       HT       0.417000       1.00800           0
     18990 TIP3     92       TIP3     OH2      OT      -0.834000       15.9994           0
     18991 TIP3     92       TIP3     H1       HT       0.417000       1.00800           0
     18992 TIP3     92       TIP3     H2       HT       0.417000       1.00800           0
     18993 TIP3     93       TIP3     OH2      OT      -0.834000       15.9994           0
     18994 TIP3     93       TIP3     H1       HT       0.417000       1.00800           0
     18995 TIP3     93       TIP3     H2       HT       0.417000       1.00800           0
     18996 TIP3     94       TIP3     OH2      OT      -0.834000       15.9994           0
     18997 TIP3     94       TIP3     H1       HT       0.417000       1.00800           0
     18998 TIP3     94       TIP3     H2       HT       0.417000       1.00800           0
     18999 TIP3     95       TIP3     OH2      OT      -0.834000       15.9994           0
     19000 TIP3     95       TIP3     H1       HT       0.417000       1.00800           0
     19001 TIP3     95       TIP3     H2       HT       0.417000       1.00800           0
     19002 TIP3     96       TIP3     OH2      OT      -0.834000       15.9994           0
     19003 TIP3     96       TIP3     H1       HT       0.417000       1.00800           0
     19004 TIP3     96       TIP3     H2       HT       0.417000       1.00800           0
     19005 TIP3     97       TIP3     OH2      OT      -0.834000       15.9994           0
     19006 TIP3     97       TIP3     H1       HT       0.417000       1.00800           0
     19007 TIP3     97       TIP3     H2       HT       0.417000       1.00800           0
     19008 TIP3     98       TIP3     OH2      OT      -0.834000       15.9994           0
     19009 TIP3     98       TIP3     H1       HT       0.417000       1.00800           0
     19010 TIP3     98       TIP3     H2       HT       0.417000       1.00800           0
     19011 TIP3     99       TIP3     OH2      OT      -0.834000       15.9994           0
     19012 TIP3     99       TIP3     H1       HT       0.417000       1.00800           0
     19013 TIP3     99       TIP3     H2       HT       0.417000       1.00800           0
     19014 TIP3     100      TIP3     OH2      OT      -0.834000       15.9994           0
     19015 TIP3     100      TIP3     H1       HT       0.417000       1.00800           0
     19016 TIP3     100      TIP3     H2       HT       0.417000       1.00800           0
     19017 TIP3     101      TIP3     OH2      OT      -0.834000       15.9994           0
     19018 TIP3     101      TIP3     H1       HT       0.417000       1.00800           0
     19019 TIP3     101      TIP3     H2       HT       0.417000       1.00800           0
     19020 TIP3     102      TIP3     OH2      OT      -0.834000       15.9994           0
     19021 TIP3     102      TIP3     H1       HT       0.417000       1.00800           0
     19022 TIP3     102      TIP3     H2       HT       0.417000       1.00800           0
     19023 TIP3     103      TIP3     OH2      OT      -0.834000       15.9994           0
     19024 TIP3     103      TIP3     H1       HT       0.417000       1.00800           0
     19025 TIP3     103      TIP3     H2       HT       0.417000       1.00800           0
     19026 TIP3     104      TIP3     OH2      OT      -0.834000       15.9994           0
     19027 TIP3     104      TIP3     H1       HT       0.417000       1.00800           0
     19028 TIP3     104      TIP3     H2       HT       0.417000       1.00800           0
     19029 TIP3     105      TIP3     OH2      OT      -0.834000       15.9994           0
     19030 TIP3     105      TIP3     H1       HT       0.417000       1.00800           0
     19031 TIP3     105      TIP3     H2       HT       0.417000       1.00800           0
     19032 TIP3     106      TIP3     OH2      OT      -0.834000       15.9994           0
     19033 TIP3     106      TIP3     H1       HT       0.417000       1.00800           0
     19034 TIP3     106      TIP3     H2       HT       0.417000       1.00800           0
     19035 TIP3     107      TIP3     OH2      OT      -0.834000       15.9994           0
     19036 TIP3     107      TIP3     H1       HT       0.417000       1.00800           0
     19037 TIP3     107      TIP3     H2       HT       0.417000       1.00800           0
     19038 TIP3     108      TIP3     OH2      OT      -0.834000       15.9994           0
     19039 TIP3     108      TIP3     H1       HT       0.417000       1.00800           0
     19040 TIP3     108      TIP3     H2       HT       0.417000       1.00800           0
     19041 TIP3     109      TIP3     OH2      OT      -0.834000       15.9994           0
     19042 TIP3     109      TIP3     H1       HT       0.417000       1.00800           0
     19043 TIP3     109      TIP3     H2       HT       0.417000       1.00800           0
     19044 TIP3     110      TIP3     OH2      OT      -0.834000       15.9994           0
     19045 TIP3     110      TIP3     H1       HT       0.417000       1.00800           0
     19046 TIP3     110      TIP3     H2       HT       0.417000       1.00800           0
     19047 TIP3     111      TIP3     OH2      OT      -0.834000       15.9994           0
     19048 TIP3     111      TIP3     H1       HT       0.417000       1.00800           0
     19049 TIP3     111      TIP3     H2       HT       0.417000       1.00800           0
     19050 TIP3     112      TIP3     OH2      OT      -0.834000       15.9994           0
     19051 TIP3     112      TIP3     H1       HT       0.417000       1.00800           0
     19052 TIP3     112      TIP3     H2       HT       0.417000       1.00800           0
     19053 TIP3     113      TIP3     OH2      OT      -0.834000       15.9994           0
     19054 TIP3     113      TIP3     H1       HT       0.417000       1.00800           0
     19055 TIP3     113      TIP3     H2       HT       0.417000       1.00800           0
     19056 TIP3     114      TIP3     OH2      OT      -0.834000       15.9994           0
     19057 TIP3     114      TIP3     H1       HT       0.417000       1.00800           0
     19058 TIP3     114      TIP3     H2       HT       0.417000       1.00800           0
     19059 TIP3     115      TIP3     OH2      OT      -0.834000       15.9994           0
     19060 TIP3     115      TIP3     H1       HT       0.417000       1.00800           0
     19061 TIP3     115      TIP3     H2       HT       0.417000       1.00800           0
     19062 TIP3     116      TIP3     OH2      OT      -0.834000       15.9994           0
     19063 TIP3     116      TIP3     H1       HT       0.417000       1.00800           0
     19064 TIP3     116      TIP3     H2       HT       0.417000       1.00800           0
     19065 TIP3     117      TIP3     OH2      OT      -0.834000       15.9994           0
     19066 TIP3     117      TIP3     H1       HT       0.417000       1.00800           0
     19067 TIP3     117      TIP3     H2       HT       0.417000       1.00800           0
     19068 TIP3     118      TIP3     OH2      OT      -0.834000       15.9994           0
     19069 TIP3     118      TIP3     H1       HT       0.417000       1.00800           0
     19070 TIP3     118      TIP3     H2       HT       0.417000       1.00800           0
     19071 TIP3     119      TIP3     OH2      OT      -0.834000       15.9994           0
     19072 TIP3     119      TIP3     H1       HT       0.417000       1.00800           0
     19073 TIP3     119      TIP3     H2       HT       0.417000       1.00800           0
     19074 TIP3     120      TIP3     OH2      OT      -0.834000       15.9994           0
     19075 TIP3     120      TIP3     H1       HT       0.417000       1.00800           0
     19076 TIP3     120      TIP3     H2       HT       0.417000       1.00800           0
     19077 TIP3     121      TIP3     OH2      OT      -0.834000       15.9994           0
     19078 TIP3     121      TIP3     H1       HT       0.417000       1.00800           0
     19079 TIP3     121      TIP3     H2       HT       0.417000       1.00800           0
     19080 TIP3     122      TIP3     OH2      OT      -0.834000       15.9994           0
     19081 TIP3     122      TIP3     H1       HT       0.417000       1.00800           0
     19082 TIP3     122      TIP3     H2       HT       0.417000       1.00800           0
     19083 TIP3     123      TIP3     OH2      OT      -0.834000       15.9994           0
     19084 TIP3     123      TIP3     H1       HT       0.417000       1.00800           0
     19085 TIP3     123      TIP3     H2       HT       0.417000       1.00800           0
     19086 TIP3     124      TIP3     OH2      OT      -0.834000       15.9994           0
     19087 TIP3     124      TIP3     H1       HT       0.417000       1.00800           0
     19088 TIP3     124      TIP3     H2       HT       0.417000       1.00800           0
     19089 TIP3     125      TIP3     OH2      OT      -0.834000       15.9994           0
     19090 TIP3     125      TIP3     H1       HT       0.417000       1.00800           0
     19091 TIP3     125      TIP3     H2       HT       0.417000       1.00800           0
     19092 TIP3     126      TIP3     OH2      OT      -0.834000       15.9994           0
     19093 TIP3     126      TIP3     H1       HT       0.417000       1.00800           0
     19094 TIP3     126      TIP3     H2       HT       0.417000       1.00800           0
     19095 TIP3     127      TIP3     OH2      OT      -0.834000       15.9994           0
     19096 TIP3     127      TIP3     H1       HT       0.417000       1.00800           0
     19097 TIP3     127      TIP3     H2       HT       0.417000       1.00800           0
     19098 TIP3     128      TIP3     OH2      OT      -0.834000       15.9994           0
     19099 TIP3     128      TIP3     H1       HT       0.417000       1.00800           0
     19100 TIP3     128      TIP3     H2       HT       0.417000       1.00800           0
     19101 TIP3     129      TIP3     OH2      OT      -0.834000       15.9994           0
     19102 TIP3     129      TIP3     H1       HT       0.417000       1.00800           0
     19103 TIP3     129      TIP3     H2       HT       0.417000       1.00800           0
     19104 TIP3     130      TIP3     OH2      OT      -0.834000       15.9994           0
     19105 TIP3     130      TIP3     H1       HT       0.417000       1.00800           0
     19106 TIP3     130      TIP3     H2       HT       0.417000       1.00800           0
     19107 TIP3     131      TIP3     OH2      OT      -0.834000       15.9994           0
     19108 TIP3     131      TIP3     H1       HT       0.417000       1.00800           0
     19109 TIP3     131      TIP3     H2       HT       0.417000       1.00800           0
     19110 TIP3     132      TIP3     OH2      OT      -0.834000       15.9994           0
     19111 TIP3     132      TIP3     H1       HT       0.417000       1.00800           0
     19112 TIP3     132      TIP3     H2       HT       0.417000       1.00800           0
     19113 TIP3     133      TIP3     OH2      OT      -0.834000       15.9994           0
     19114 TIP3     133      TIP3     H1       HT       0.417000       1.00800           0
     19115 TIP3     133      TIP3     H2       HT       0.417000       1.00800           0
     19116 TIP3     134      TIP3     OH2      OT      -0.834000       15.9994           0
     19117 TIP3     134      TIP3     H1       HT       0.417000       1.00800           0
     19118 TIP3     134      TIP3     H2       HT       0.417000       1.00800           0
     19119 TIP3     135      TIP3     OH2      OT      -0.834000       15.9994           0
     19120 TIP3     135      TIP3     H1       HT       0.417000       1.00800           0
     19121 TIP3     135      TIP3     H2       HT       0.417000       1.00800           0
     19122 TIP3     136      TIP3     OH2      OT      -0.834000       15.9994           0
     19123 TIP3     136      TIP3     H1       HT       0.417000       1.00800           0
     19124 TIP3     136      TIP3     H2       HT       0.417000       1.00800           0
     19125 TIP3     137      TIP3     OH2      OT      -0.834000       15.9994           0
     19126 TIP3     137      TIP3     H1       HT       0.417000       1.00800           0
     19127 TIP3     137      TIP3     H2       HT       0.417000       1.00800           0
     19128 TIP3     138      TIP3     OH2      OT      -0.834000       15.9994           0
     19129 TIP3     138      TIP3     H1       HT       0.417000       1.00800           0
     19130 TIP3     138      TIP3     H2       HT       0.417000       1.00800           0
     19131 TIP3     139      TIP3     OH2      OT      -0.834000       15.9994           0
     19132 TIP3     139      TIP3     H1       HT       0.417000       1.00800           0
     19133 TIP3     139      TIP3     H2       HT       0.417000       1.00800           0
     19134 TIP3     140      TIP3     OH2      OT      -0.834000       15.9994           0
     19135 TIP3     140      TIP3     H1       HT       0.417000       1.00800           0
     19136 TIP3     140      TIP3     H2       HT       0.417000       1.00800           0
     19137 TIP3     141      TIP3     OH2      OT      -0.834000       15.9994           0
     19138 TIP3     141      TIP3     H1       HT       0.417000       1.00800           0
     19139 TIP3     141      TIP3     H2       HT       0.417000       1.00800           0
     19140 TIP3     142      TIP3     OH2      OT      -0.834000       15.9994           0
     19141 TIP3     142      TIP3     H1       HT       0.417000       1.00800           0
     19142 TIP3     142      TIP3     H2       HT       0.417000       1.00800           0
     19143 TIP3     143      TIP3     OH2      OT      -0.834000       15.9994           0
     19144 TIP3     143      TIP3     H1       HT       0.417000       1.00800           0
     19145 TIP3     143      TIP3     H2       HT       0.417000       1.00800           0
     19146 TIP3     144      TIP3     OH2      OT      -0.834000       15.9994           0
     19147 TIP3     144      TIP3     H1       HT       0.417000       1.00800           0
     19148 TIP3     144      TIP3     H2       HT       0.417000       1.00800           0
     19149 TIP3     145      TIP3     OH2      OT      -0.834000       15.9994           0
     19150 TIP3     145      TIP3     H1       HT       0.417000       1.00800           0
     19151 TIP3     145      TIP3     H2       HT       0.417000       1.00800           0
     19152 TIP3     146      TIP3     OH2      OT      -0.834000       15.9994           0
     19153 TIP3     146      TIP3     H1       HT       0.417000       1.00800           0
     19154 TIP3     146      TIP3     H2       HT       0.417000       1.00800           0
     19155 TIP3     147      TIP3     OH2      OT      -0.834000       15.9994           0
     19156 TIP3     147      TIP3     H1       HT       0.417000       1.00800           0
     19157 TIP3     147      TIP3     H2       HT       0.417000       1.00800           0
     19158 TIP3     148      TIP3     OH2      OT      -0.834000       15.9994           0
     19159 TIP3     148      TIP3     H1       HT       0.417000       1.00800           0
     19160 TIP3     148      TIP3     H2       HT       0.417000       1.00800           0
     19161 TIP3     149      TIP3     OH2      OT      -0.834000       15.9994           0
     19162 TIP3     149      TIP3     H1       HT       0.417000       1.00800           0
     19163 TIP3     149      TIP3     H2       HT       0.417000       1.00800           0
     19164 TIP3     150      TIP3     OH2      OT      -0.834000       15.9994           0
     19165 TIP3     150      TIP3     H1       HT       0.417000       1.00800           0
     19166 TIP3     150      TIP3     H2       HT       0.417000       1.00800           0
     19167 TIP3     151      TIP3     OH2      OT      -0.834000       15.9994           0
     19168 TIP3     151      TIP3     H1       HT       0.417000       1.00800           0
     19169 TIP3     151      TIP3     H2       HT       0.417000       1.00800           0
     19170 TIP3     152      TIP3     OH2      OT      -0.834000       15.9994           0
     19171 TIP3     152      TIP3     H1       HT       0.417000       1.00800           0
     19172 TIP3     152      TIP3     H2       HT       0.417000       1.00800           0
     19173 TIP3     153      TIP3     OH2      OT      -0.834000       15.9994           0
     19174 TIP3     153      TIP3     H1       HT       0.417000       1.00800           0
     19175 TIP3     153      TIP3     H2       HT       0.417000       1.00800           0
     19176 TIP3     154      TIP3     OH2      OT      -0.834000       15.9994           0
     19177 TIP3     154      TIP3     H1       HT       0.417000       1.00800           0
     19178 TIP3     154      TIP3     H2       HT       0.417000       1.00800           0
     19179 TIP3     155      TIP3     OH2      OT      -0.834000       15.9994           0
     19180 TIP3     155      TIP3     H1       HT       0.417000       1.00800           0
     19181 TIP3     155      TIP3     H2       HT       0.417000       1.00800           0
     19182 TIP3     156      TIP3     OH2      OT      -0.834000       15.9994           0
     19183 TIP3     156      TIP3     H1       HT       0.417000       1.00800           0
     19184 TIP3     156      TIP3     H2       HT       0.417000       1.00800           0
     19185 TIP3     157      TIP3     OH2      OT      -0.834000       15.9994           0
     19186 TIP3     157      TIP3     H1       HT       0.417000       1.00800           0
     19187 TIP3     157      TIP3     H2       HT       0.417000       1.00800           0
     19188 TIP3     158      TIP3     OH2      OT      -0.834000       15.9994           0
     19189 TIP3     158      TIP3     H1       HT       0.417000       1.00800           0
     19190 TIP3     158      TIP3     H2       HT       0.417000       1.00800           0
     19191 TIP3     159      TIP3     OH2      OT      -0.834000       15.9994           0
     19192 TIP3     159      TIP3     H1       HT       0.417000       1.00800           0
     19193 TIP3     159      TIP3     H2       HT       0.417000       1.00800           0
     19194 TIP3     160      TIP3     OH2      OT      -0.834000       15.9994           0
     19195 TIP3     160      TIP3     H1       HT       0.417000       1.00800           0
     19196 TIP3     160      TIP3     H2       HT       0.417000       1.00800           0
     19197 TIP3     161      TIP3     OH2      OT      -0.834000       15.9994           0
     19198 TIP3     161      TIP3     H1       HT       0.417000       1.00800           0
     19199 TIP3     161      TIP3     H2       HT       0.417000       1.00800           0
     19200 TIP3     162      TIP3     OH2      OT      -0.834000       15.9994           0
     19201 TIP3     162      TIP3     H1       HT       0.417000       1.00800           0
     19202 TIP3     162      TIP3     H2       HT       0.417000       1.00800           0
     19203 TIP3     163      TIP3     OH2      OT      -0.834000       15.9994           0
     19204 TIP3     163      TIP3     H1       HT       0.417000       1.00800           0
     19205 TIP3     163      TIP3     H2       HT       0.417000       1.00800           0
     19206 TIP3     164      TIP3     OH2      OT      -0.834000       15.9994           0
     19207 TIP3     164      TIP3     H1       HT       0.417000       1.00800           0
     19208 TIP3     164      TIP3     H2       HT       0.417000       1.00800           0
     19209 TIP3     165      TIP3     OH2      OT      -0.834000       15.9994           0
     19210 TIP3     165      TIP3     H1       HT       0.417000       1.00800           0
     19211 TIP3     165      TIP3     H2       HT       0.417000       1.00800           0
     19212 TIP3     166      TIP3     OH2      OT      -0.834000       15.9994           0
     19213 TIP3     166      TIP3     H1       HT       0.417000       1.00800           0
     19214 TIP3     166      TIP3     H2       HT       0.417000       1.00800           0
     19215 TIP3     167      TIP3     OH2      OT      -0.834000       15.9994           0
     19216 TIP3     167      TIP3     H1       HT       0.417000       1.00800           0
     19217 TIP3     167      TIP3     H2       HT       0.417000       1.00800           0
     19218 TIP3     168      TIP3     OH2      OT      -0.834000       15.9994           0
     19219 TIP3     168      TIP3     H1       HT       0.417000       1.00800           0
     19220 TIP3     168      TIP3     H2       HT       0.417000       1.00800           0
     19221 TIP3     169      TIP3     OH2      OT      -0.834000       15.9994           0
     19222 TIP3     169      TIP3     H1       HT       0.417000       1.00800           0
     19223 TIP3     169      TIP3     H2       HT       0.417000       1.00800           0
     19224 TIP3     170      TIP3     OH2      OT      -0.834000       15.9994           0
     19225 TIP3     170      TIP3     H1       HT       0.417000       1.00800           0
     19226 TIP3     170      TIP3     H2       HT       0.417000       1.00800           0
     19227 TIP3     171      TIP3     OH2      OT      -0.834000       15.9994           0
     19228 TIP3     171      TIP3     H1       HT       0.417000       1.00800           0
     19229 TIP3     171      TIP3     H2       HT       0.417000       1.00800           0
     19230 TIP3     172      TIP3     OH2      OT      -0.834000       15.9994           0
     19231 TIP3     172      TIP3     H1       HT       0.417000       1.00800           0
     19232 TIP3     172      TIP3     H2       HT       0.417000       1.00800           0
     19233 TIP3     173      TIP3     OH2      OT      -0.834000       15.9994           0
     19234 TIP3     173      TIP3     H1       HT       0.417000       1.00800           0
     19235 TIP3     173      TIP3     H2       HT       0.417000       1.00800           0
     19236 TIP3     174      TIP3     OH2      OT      -0.834000       15.9994           0
     19237 TIP3     174      TIP3     H1       HT       0.417000       1.00800           0
     19238 TIP3     174      TIP3     H2       HT       0.417000       1.00800           0
     19239 TIP3     175      TIP3     OH2      OT      -0.834000       15.9994           0
     19240 TIP3     175      TIP3     H1       HT       0.417000       1.00800           0
     19241 TIP3     175      TIP3     H2       HT       0.417000       1.00800           0
     19242 TIP3     176      TIP3     OH2      OT      -0.834000       15.9994           0
     19243 TIP3     176      TIP3     H1       HT       0.417000       1.00800           0
     19244 TIP3     176      TIP3     H2       HT       0.417000       1.00800           0
     19245 TIP3     177      TIP3     OH2      OT      -0.834000       15.9994           0
     19246 TIP3     177      TIP3     H1       HT       0.417000       1.00800           0
     19247 TIP3     177      TIP3     H2       HT       0.417000       1.00800           0
     19248 TIP3     178      TIP3     OH2      OT      -0.834000       15.9994           0
     19249 TIP3     178      TIP3     H1       HT       0.417000       1.00800           0
     19250 TIP3     178      TIP3     H2       HT       0.417000       1.00800           0
     19251 TIP3     179      TIP3     OH2      OT      -0.834000       15.9994           0
     19252 TIP3     179      TIP3     H1       HT       0.417000       1.00800           0
     19253 TIP3     179      TIP3     H2       HT       0.417000       1.00800           0
     19254 TIP3     180      TIP3     OH2      OT      -0.834000       15.9994           0
     19255 TIP3     180      TIP3     H1       HT       0.417000       1.00800           0
     19256 TIP3     180      TIP3     H2       HT       0.417000       1.00800           0
     19257 TIP3     181      TIP3     OH2      OT      -0.834000       15.9994           0
     19258 TIP3     181      TIP3     H1       HT       0.417000       1.00800           0
     19259 TIP3     181      TIP3     H2       HT       0.417000       1.00800           0
     19260 TIP3     182      TIP3     OH2      OT      -0.834000       15.9994           0
     19261 TIP3     182      TIP3     H1       HT       0.417000       1.00800           0
     19262 TIP3     182      TIP3     H2       HT       0.417000       1.00800           0
     19263 TIP3     183      TIP3     OH2      OT      -0.834000       15.9994           0
     19264 TIP3     183      TIP3     H1       HT       0.417000       1.00800           0
     19265 TIP3     183      TIP3     H2       HT       0.417000       1.00800           0
     19266 TIP3     184      TIP3     OH2      OT      -0.834000       15.9994           0
     19267 TIP3     184      TIP3     H1       HT       0.417000       1.00800           0
     19268 TIP3     184      TIP3     H2       HT       0.417000       1.00800           0
     19269 TIP3     185      TIP3     OH2      OT      -0.834000       15.9994           0
     19270 TIP3     185      TIP3     H1       HT       0.417000       1.00800           0
     19271 TIP3     185      TIP3     H2       HT       0.417000       1.00800           0
     19272 TIP3     186      TIP3     OH2      OT      -0.834000       15.9994           0
     19273 TIP3     186      TIP3     H1       HT       0.417000       1.00800           0
     19274 TIP3     186      TIP3     H2       HT       0.417000       1.00800           0
     19275 TIP3     187      TIP3     OH2      OT      -0.834000       15.9994           0
     19276 TIP3     187      TIP3     H1       HT       0.417000       1.00800           0
     19277 TIP3     187      TIP3     H2       HT       0.417000       1.00800           0
     19278 TIP3     188      TIP3     OH2      OT      -0.834000       15.9994           0
     19279 TIP3     188      TIP3     H1       HT       0.417000       1.00800           0
     19280 TIP3     188      TIP3     H2       HT       0.417000       1.00800           0
     19281 TIP3     189      TIP3     OH2      OT      -0.834000       15.9994           0
     19282 TIP3     189      TIP3     H1       HT       0.417000       1.00800           0
     19283 TIP3     189      TIP3     H2       HT       0.417000       1.00800           0
     19284 TIP3     190      TIP3     OH2      OT      -0.834000       15.9994           0
     19285 TIP3     190      TIP3     H1       HT       0.417000       1.00800           0
     19286 TIP3     190      TIP3     H2       HT       0.417000       1.00800           0
     19287 TIP3     191      TIP3     OH2      OT      -0.834000       15.9994           0
     19288 TIP3     191      TIP3     H1       HT       0.417000       1.00800           0
     19289 TIP3     191      TIP3     H2       HT       0.417000       1.00800           0
     19290 TIP3     192      TIP3     OH2      OT      -0.834000       15.9994           0
     19291 TIP3     192      TIP3     H1       HT       0.417000       1.00800           0
     19292 TIP3     192      TIP3     H2       HT       0.417000       1.00800           0
     19293 TIP3     193      TIP3     OH2      OT      -0.834000       15.9994           0
     19294 TIP3     193      TIP3     H1       HT       0.417000       1.00800           0
     19295 TIP3     193      TIP3     H2       HT       0.417000       1.00800           0
     19296 TIP3     194      TIP3     OH2      OT      -0.834000       15.9994           0
     19297 TIP3     194      TIP3     H1       HT       0.417000       1.00800           0
     19298 TIP3     194      TIP3     H2       HT       0.417000       1.00800           0
     19299 TIP3     195      TIP3     OH2      OT      -0.834000       15.9994           0
     19300 TIP3     195      TIP3     H1       HT       0.417000       1.00800           0
     19301 TIP3     195      TIP3     H2       HT       0.417000       1.00800           0
     19302 TIP3     196      TIP3     OH2      OT      -0.834000       15.9994           0
     19303 TIP3     196      TIP3     H1       HT       0.417000       1.00800           0
     19304 TIP3     196      TIP3     H2       HT       0.417000       1.00800           0
     19305 TIP3     197      TIP3     OH2      OT      -0.834000       15.9994           0
     19306 TIP3     197      TIP3     H1       HT       0.417000       1.00800           0
     19307 TIP3     197      TIP3     H2       HT       0.417000       1.00800           0
     19308 TIP3     198      TIP3     OH2      OT      -0.834000       15.9994           0
     19309 TIP3     198      TIP3     H1       HT       0.417000       1.00800           0
     19310 TIP3     198      TIP3     H2       HT       0.417000       1.00800           0
     19311 TIP3     199      TIP3     OH2      OT      -0.834000       15.9994           0
     19312 TIP3     199      TIP3     H1       HT       0.417000       1.00800           0
     19313 TIP3     199      TIP3     H2       HT       0.417000       1.00800           0
     19314 TIP3     200      TIP3     OH2      OT      -0.834000       15.9994           0
     19315 TIP3     200      TIP3     H1       HT       0.417000       1.00800           0
     19316 TIP3     200      TIP3     H2       HT       0.417000       1.00800           0
     19317 TIP3     201      TIP3     OH2      OT      -0.834000       15.9994           0
     19318 TIP3     201      TIP3     H1       HT       0.417000       1.00800           0
     19319 TIP3     201      TIP3     H2       HT       0.417000       1.00800           0
     19320 TIP3     202      TIP3     OH2      OT      -0.834000       15.9994           0
     19321 TIP3     202      TIP3     H1       HT       0.417000       1.00800           0
     19322 TIP3     202      TIP3     H2       HT       0.417000       1.00800           0
     19323 TIP3     203      TIP3     OH2      OT      -0.834000       15.9994           0
     19324 TIP3     203      TIP3     H1       HT       0.417000       1.00800           0
     19325 TIP3     203      TIP3     H2       HT       0.417000       1.00800           0
     19326 TIP3     204      TIP3     OH2      OT      -0.834000       15.9994           0
     19327 TIP3     204      TIP3     H1       HT       0.417000       1.00800           0
     19328 TIP3     204      TIP3     H2       HT       0.417000       1.00800           0
     19329 TIP3     205      TIP3     OH2      OT      -0.834000       15.9994           0
     19330 TIP3     205      TIP3     H1       HT       0.417000       1.00800           0
     19331 TIP3     205      TIP3     H2       HT       0.417000       1.00800           0
     19332 TIP3     206      TIP3     OH2      OT      -0.834000       15.9994           0
     19333 TIP3     206      TIP3     H1       HT       0.417000       1.00800           0
     19334 TIP3     206      TIP3     H2       HT       0.417000       1.00800           0
     19335 TIP3     207      TIP3     OH2      OT      -0.834000       15.9994           0
     19336 TIP3     207      TIP3     H1       HT       0.417000       1.00800           0
     19337 TIP3     207      TIP3     H2       HT       0.417000       1.00800           0
     19338 TIP3     208      TIP3     OH2      OT      -0.834000       15.9994           0
     19339 TIP3     208      TIP3     H1       HT       0.417000       1.00800           0
     19340 TIP3     208      TIP3     H2       HT       0.417000       1.00800           0
     19341 TIP3     209      TIP3     OH2      OT      -0.834000       15.9994           0
     19342 TIP3     209      TIP3     H1       HT       0.417000       1.00800           0
     19343 TIP3     209      TIP3     H2       HT       0.417000       1.00800           0
     19344 TIP3     210      TIP3     OH2      OT      -0.834000       15.9994           0
     19345 TIP3     210      TIP3     H1       HT       0.417000       1.00800           0
     19346 TIP3     210      TIP3     H2       HT       0.417000       1.00800           0
     19347 TIP3     211      TIP3     OH2      OT      -0.834000       15.9994           0
     19348 TIP3     211      TIP3     H1       HT       0.417000       1.00800           0
     19349 TIP3     211      TIP3     H2       HT       0.417000       1.00800           0
     19350 TIP3     212      TIP3     OH2      OT      -0.834000       15.9994           0
     19351 TIP3     212      TIP3     H1       HT       0.417000       1.00800           0
     19352 TIP3     212      TIP3     H2       HT       0.417000       1.00800           0
     19353 TIP3     213      TIP3     OH2      OT      -0.834000       15.9994           0
     19354 TIP3     213      TIP3     H1       HT       0.417000       1.00800           0
     19355 TIP3     213      TIP3     H2       HT       0.417000       1.00800           0
     19356 TIP3     214      TIP3     OH2      OT      -0.834000       15.9994           0
     19357 TIP3     214      TIP3     H1       HT       0.417000       1.00800           0
     19358 TIP3     214      TIP3     H2       HT       0.417000       1.00800           0
     19359 TIP3     215      TIP3     OH2      OT      -0.834000       15.9994           0
     19360 TIP3     215      TIP3     H1       HT       0.417000       1.00800           0
     19361 TIP3     215      TIP3     H2       HT       0.417000       1.00800           0
     19362 TIP3     216      TIP3     OH2      OT      -0.834000       15.9994           0
     19363 TIP3     216      TIP3     H1       HT       0.417000       1.00800           0
     19364 TIP3     216      TIP3     H2       HT       0.417000       1.00800           0
     19365 TIP3     217      TIP3     OH2      OT      -0.834000       15.9994           0
     19366 TIP3     217      TIP3     H1       HT       0.417000       1.00800           0
     19367 TIP3     217      TIP3     H2       HT       0.417000       1.00800           0
     19368 TIP3     218      TIP3     OH2      OT      -0.834000       15.9994           0
     19369 TIP3     218      TIP3     H1       HT       0.417000       1.00800           0
     19370 TIP3     218      TIP3     H2       HT       0.417000       1.00800           0
     19371 TIP3     219      TIP3     OH2      OT      -0.834000       15.9994           0
     19372 TIP3     219      TIP3     H1       HT       0.417000       1.00800           0
     19373 TIP3     219      TIP3     H2       HT       0.417000       1.00800           0
     19374 TIP3     220      TIP3     OH2      OT      -0.834000       15.9994           0
     19375 TIP3     220      TIP3     H1       HT       0.417000       1.00800           0
     19376 TIP3     220      TIP3     H2       HT       0.417000       1.00800           0
     19377 TIP3     221      TIP3     OH2      OT      -0.834000       15.9994           0
     19378 TIP3     221      TIP3     H1       HT       0.417000       1.00800           0
     19379 TIP3     221      TIP3     H2       HT       0.417000       1.00800           0
     19380 TIP3     222      TIP3     OH2      OT      -0.834000       15.9994           0
     19381 TIP3     222      TIP3     H1       HT       0.417000       1.00800           0
     19382 TIP3     222      TIP3     H2       HT       0.417000       1.00800           0
     19383 TIP3     223      TIP3     OH2      OT      -0.834000       15.9994           0
     19384 TIP3     223      TIP3     H1       HT       0.417000       1.00800           0
     19385 TIP3     223      TIP3     H2       HT       0.417000       1.00800           0
     19386 TIP3     224      TIP3     OH2      OT      -0.834000       15.9994           0
     19387 TIP3     224      TIP3     H1       HT       0.417000       1.00800           0
     19388 TIP3     224      TIP3     H2       HT       0.417000       1.00800           0
     19389 TIP3     225      TIP3     OH2      OT      -0.834000       15.9994           0
     19390 TIP3     225      TIP3     H1       HT       0.417000       1.00800           0
     19391 TIP3     225      TIP3     H2       HT       0.417000       1.00800           0
     19392 TIP3     226      TIP3     OH2      OT      -0.834000       15.9994           0
     19393 TIP3     226      TIP3     H1       HT       0.417000       1.00800           0
     19394 TIP3     226      TIP3     H2       HT       0.417000       1.00800           0
     19395 TIP3     227      TIP3     OH2      OT      -0.834000       15.9994           0
     19396 TIP3     227      TIP3     H1       HT       0.417000       1.00800           0
     19397 TIP3     227      TIP3     H2       HT       0.417000       1.00800           0
     19398 TIP3     228      TIP3     OH2      OT      -0.834000       15.9994           0
     19399 TIP3     228      TIP3     H1       HT       0.417000       1.00800           0
     19400 TIP3     228      TIP3     H2       HT       0.417000       1.00800           0
     19401 TIP3     229      TIP3     OH2      OT      -0.834000       15.9994           0
     19402 TIP3     229      TIP3     H1       HT       0.417000       1.00800           0
     19403 TIP3     229      TIP3     H2       HT       0.417000       1.00800           0
     19404 TIP3     230      TIP3     OH2      OT      -0.834000       15.9994           0
     19405 TIP3     230      TIP3     H1       HT       0.417000       1.00800           0
     19406 TIP3     230      TIP3     H2       HT       0.417000       1.00800           0
     19407 TIP3     231      TIP3     OH2      OT      -0.834000       15.9994           0
     19408 TIP3     231      TIP3     H1       HT       0.417000       1.00800           0
     19409 TIP3     231      TIP3     H2       HT       0.417000       1.00800           0
     19410 TIP3     232      TIP3     OH2      OT      -0.834000       15.9994           0
     19411 TIP3     232      TIP3     H1       HT       0.417000       1.00800           0
     19412 TIP3     232      TIP3     H2       HT       0.417000       1.00800           0
     19413 TIP3     233      TIP3     OH2      OT      -0.834000       15.9994           0
     19414 TIP3     233      TIP3     H1       HT       0.417000       1.00800           0
     19415 TIP3     233      TIP3     H2       HT       0.417000       1.00800           0
     19416 TIP3     234      TIP3     OH2      OT      -0.834000       15.9994           0
     19417 TIP3     234      TIP3     H1       HT       0.417000       1.00800           0
     19418 TIP3     234      TIP3     H2       HT       0.417000       1.00800           0
     19419 TIP3     235      TIP3     OH2      OT      -0.834000       15.9994           0
     19420 TIP3     235      TIP3     H1       HT       0.417000       1.00800           0
     19421 TIP3     235      TIP3     H2       HT       0.417000       1.00800           0
     19422 TIP3     236      TIP3     OH2      OT      -0.834000       15.9994           0
     19423 TIP3     236      TIP3     H1       HT       0.417000       1.00800           0
     19424 TIP3     236      TIP3     H2       HT       0.417000       1.00800           0
     19425 TIP3     237      TIP3     OH2      OT      -0.834000       15.9994           0
     19426 TIP3     237      TIP3     H1       HT       0.417000       1.00800           0
     19427 TIP3     237      TIP3     H2       HT       0.417000       1.00800           0
     19428 TIP3     238      TIP3     OH2      OT      -0.834000       15.9994           0
     19429 TIP3     238      TIP3     H1       HT       0.417000       1.00800           0
     19430 TIP3     238      TIP3     H2       HT       0.417000       1.00800           0
     19431 TIP3     239      TIP3     OH2      OT      -0.834000       15.9994           0
     19432 TIP3     239      TIP3     H1       HT       0.417000       1.00800           0
     19433 TIP3     239      TIP3     H2       HT       0.417000       1.00800           0
     19434 TIP3     240      TIP3     OH2      OT      -0.834000       15.9994           0
     19435 TIP3     240      TIP3     H1       HT       0.417000       1.00800           0
     19436 TIP3     240      TIP3     H2       HT       0.417000       1.00800           0
     19437 TIP3     241      TIP3     OH2      OT      -0.834000       15.9994           0
     19438 TIP3     241      TIP3     H1       HT       0.417000       1.00800           0
     19439 TIP3     241      TIP3     H2       HT       0.417000       1.00800           0
     19440 TIP3     242      TIP3     OH2      OT      -0.834000       15.9994           0
     19441 TIP3     242      TIP3     H1       HT       0.417000       1.00800           0
     19442 TIP3     242      TIP3     H2       HT       0.417000       1.00800           0
     19443 TIP3     243      TIP3     OH2      OT      -0.834000       15.9994           0
     19444 TIP3     243      TIP3     H1       HT       0.417000       1.00800           0
     19445 TIP3     243      TIP3     H2       HT       0.417000       1.00800           0
     19446 TIP3     244      TIP3     OH2      OT      -0.834000       15.9994           0
     19447 TIP3     244      TIP3     H1       HT       0.417000       1.00800           0
     19448 TIP3     244      TIP3     H2       HT       0.417000       1.00800           0
     19449 TIP3     245      TIP3     OH2      OT      -0.834000       15.9994           0
     19450 TIP3     245      TIP3     H1       HT       0.417000       1.00800           0
     19451 TIP3     245      TIP3     H2       HT       0.417000       1.00800           0
     19452 TIP3     246      TIP3     OH2      OT      -0.834000       15.9994           0
     19453 TIP3     246      TIP3     H1       HT       0.417000       1.00800           0
     19454 TIP3     246      TIP3     H2       HT       0.417000       1.00800           0
     19455 TIP3     247      TIP3     OH2      OT      -0.834000       15.9994           0
     19456 TIP3     247      TIP3     H1       HT       0.417000       1.00800           0
     19457 TIP3     247      TIP3     H2       HT       0.417000       1.00800           0
     19458 TIP3     248      TIP3     OH2      OT      -0.834000       15.9994           0
     19459 TIP3     248      TIP3     H1       HT       0.417000       1.00800           0
     19460 TIP3     248      TIP3     H2       HT       0.417000       1.00800           0
     19461 TIP3     249      TIP3     OH2      OT      -0.834000       15.9994           0
     19462 TIP3     249      TIP3     H1       HT       0.417000       1.00800           0
     19463 TIP3     249      TIP3     H2       HT       0.417000       1.00800           0
     19464 TIP3     250      TIP3     OH2      OT      -0.834000       15.9994           0
     19465 TIP3     250      TIP3     H1       HT       0.417000       1.00800           0
     19466 TIP3     250      TIP3     H2       HT       0.417000       1.00800           0
     19467 TIP3     251      TIP3     OH2      OT      -0.834000       15.9994           0
     19468 TIP3     251      TIP3     H1       HT       0.417000       1.00800           0
     19469 TIP3     251      TIP3     H2       HT       0.417000       1.00800           0
     19470 TIP3     252      TIP3     OH2      OT      -0.834000       15.9994           0
     19471 TIP3     252      TIP3     H1       HT       0.417000       1.00800           0
     19472 TIP3     252      TIP3     H2       HT       0.417000       1.00800           0
     19473 TIP3     253      TIP3     OH2      OT      -0.834000       15.9994           0
     19474 TIP3     253      TIP3     H1       HT       0.417000       1.00800           0
     19475 TIP3     253      TIP3     H2       HT       0.417000       1.00800           0
     19476 TIP3     254      TIP3     OH2      OT      -0.834000       15.9994           0
     19477 TIP3     254      TIP3     H1       HT       0.417000       1.00800           0
     19478 TIP3     254      TIP3     H2       HT       0.417000       1.00800           0
     19479 TIP3     255      TIP3     OH2      OT      -0.834000       15.9994           0
     19480 TIP3     255      TIP3     H1       HT       0.417000       1.00800           0
     19481 TIP3     255      TIP3     H2       HT       0.417000       1.00800           0
     19482 TIP3     256      TIP3     OH2      OT      -0.834000       15.9994           0
     19483 TIP3     256      TIP3     H1       HT       0.417000       1.00800           0
     19484 TIP3     256      TIP3     H2       HT       0.417000       1.00800           0
     19485 TIP3     257      TIP3     OH2      OT      -0.834000       15.9994           0
     19486 TIP3     257      TIP3     H1       HT       0.417000       1.00800           0
     19487 TIP3     257      TIP3     H2       HT       0.417000       1.00800           0
     19488 TIP3     258      TIP3     OH2      OT      -0.834000       15.9994           0
     19489 TIP3     258      TIP3     H1       HT       0.417000       1.00800           0
     19490 TIP3     258      TIP3     H2       HT       0.417000       1.00800           0
     19491 TIP3     259      TIP3     OH2      OT      -0.834000       15.9994           0
     19492 TIP3     259      TIP3     H1       HT       0.417000       1.00800           0
     19493 TIP3     259      TIP3     H2       HT       0.417000       1.00800           0
     19494 TIP3     260      TIP3     OH2      OT      -0.834000       15.9994           0
     19495 TIP3     260      TIP3     H1       HT       0.417000       1.00800           0
     19496 TIP3     260      TIP3     H2       HT       0.417000       1.00800           0
     19497 TIP3     261      TIP3     OH2      OT      -0.834000       15.9994           0
     19498 TIP3     261      TIP3     H1       HT       0.417000       1.00800           0
     19499 TIP3     261      TIP3     H2       HT       0.417000       1.00800           0
     19500 TIP3     262      TIP3     OH2      OT      -0.834000       15.9994           0
     19501 TIP3     262      TIP3     H1       HT       0.417000       1.00800           0
     19502 TIP3     262      TIP3     H2       HT       0.417000       1.00800           0
     19503 TIP3     263      TIP3     OH2      OT      -0.834000       15.9994           0
     19504 TIP3     263      TIP3     H1       HT       0.417000       1.00800           0
     19505 TIP3     263      TIP3     H2       HT       0.417000       1.00800           0
     19506 TIP3     264      TIP3     OH2      OT      -0.834000       15.9994           0
     19507 TIP3     264      TIP3     H1       HT       0.417000       1.00800           0
     19508 TIP3     264      TIP3     H2       HT       0.417000       1.00800           0
     19509 TIP3     265      TIP3     OH2      OT      -0.834000       15.9994           0
     19510 TIP3     265      TIP3     H1       HT       0.417000       1.00800           0
     19511 TIP3     265      TIP3     H2       HT       0.417000       1.00800           0
     19512 TIP3     266      TIP3     OH2      OT      -0.834000       15.9994           0
     19513 TIP3     266      TIP3     H1       HT       0.417000       1.00800           0
     19514 TIP3     266      TIP3     H2       HT       0.417000       1.00800           0
     19515 TIP3     267      TIP3     OH2      OT      -0.834000       15.9994           0
     19516 TIP3     267      TIP3     H1       HT       0.417000       1.00800           0
     19517 TIP3     267      TIP3     H2       HT       0.417000       1.00800           0
     19518 TIP3     268      TIP3     OH2      OT      -0.834000       15.9994           0
     19519 TIP3     268      TIP3     H1       HT       0.417000       1.00800           0
     19520 TIP3     268      TIP3     H2       HT       0.417000       1.00800           0
     19521 TIP3     269      TIP3     OH2      OT      -0.834000       15.9994           0
     19522 TIP3     269      TIP3     H1       HT       0.417000       1.00800           0
     19523 TIP3     269      TIP3     H2       HT       0.417000       1.00800           0
     19524 TIP3     270      TIP3     OH2      OT      -0.834000       15.9994           0
     19525 TIP3     270      TIP3     H1       HT       0.417000       1.00800           0
     19526 TIP3     270      TIP3     H2       HT       0.417000       1.00800           0
     19527 TIP3     271      TIP3     OH2      OT      -0.834000       15.9994           0
     19528 TIP3     271      TIP3     H1       HT       0.417000       1.00800           0
     19529 TIP3     271      TIP3     H2       HT       0.417000       1.00800           0
     19530 TIP3     272      TIP3     OH2      OT      -0.834000       15.9994           0
     19531 TIP3     272      TIP3     H1       HT       0.417000       1.00800           0
     19532 TIP3     272      TIP3     H2       HT       0.417000       1.00800           0
     19533 TIP3     273      TIP3     OH2      OT      -0.834000       15.9994           0
     19534 TIP3     273      TIP3     H1       HT       0.417000       1.00800           0
     19535 TIP3     273      TIP3     H2       HT       0.417000       1.00800           0
     19536 TIP3     274      TIP3     OH2      OT      -0.834000       15.9994           0
     19537 TIP3     274      TIP3     H1       HT       0.417000       1.00800           0
     19538 TIP3     274      TIP3     H2       HT       0.417000       1.00800           0
     19539 TIP3     275      TIP3     OH2      OT      -0.834000       15.9994           0
     19540 TIP3     275      TIP3     H1       HT       0.417000       1.00800           0
     19541 TIP3     275      TIP3     H2       HT       0.417000       1.00800           0
     19542 TIP3     276      TIP3     OH2      OT      -0.834000       15.9994           0
     19543 TIP3     276      TIP3     H1       HT       0.417000       1.00800           0
     19544 TIP3     276      TIP3     H2       HT       0.417000       1.00800           0
     19545 TIP3     277      TIP3     OH2      OT      -0.834000       15.9994           0
     19546 TIP3     277      TIP3     H1       HT       0.417000       1.00800           0
     19547 TIP3     277      TIP3     H2       HT       0.417000       1.00800           0
     19548 TIP3     278      TIP3     OH2      OT      -0.834000       15.9994           0
     19549 TIP3     278      TIP3     H1       HT       0.417000       1.00800           0
     19550 TIP3     278      TIP3     H2       HT       0.417000       1.00800           0
     19551 TIP3     279      TIP3     OH2      OT      -0.834000       15.9994           0
     19552 TIP3     279      TIP3     H1       HT       0.417000       1.00800           0
     19553 TIP3     279      TIP3     H2       HT       0.417000       1.00800           0
     19554 TIP3     280      TIP3     OH2      OT      -0.834000       15.9994           0
     19555 TIP3     280      TIP3     H1       HT       0.417000       1.00800           0
     19556 TIP3     280      TIP3     H2       HT       0.417000       1.00800           0
     19557 TIP3     281      TIP3     OH2      OT      -0.834000       15.9994           0
     19558 TIP3     281      TIP3     H1       HT       0.417000       1.00800           0
     19559 TIP3     281      TIP3     H2       HT       0.417000       1.00800           0
     19560 TIP3     282      TIP3     OH2      OT      -0.834000       15.9994           0
     19561 TIP3     282      TIP3     H1       HT       0.417000       1.00800           0
     19562 TIP3     282      TIP3     H2       HT       0.417000       1.00800           0
     19563 TIP3     283      TIP3     OH2      OT      -0.834000       15.9994           0
     19564 TIP3     283      TIP3     H1       HT       0.417000       1.00800           0
     19565 TIP3     283      TIP3     H2       HT       0.417000       1.00800           0
     19566 TIP3     284      TIP3     OH2      OT      -0.834000       15.9994           0
     19567 TIP3     284      TIP3     H1       HT       0.417000       1.00800           0
     19568 TIP3     284      TIP3     H2       HT       0.417000       1.00800           0
     19569 TIP3     285      TIP3     OH2      OT      -0.834000       15.9994           0
     19570 TIP3     285      TIP3     H1       HT       0.417000       1.00800           0
     19571 TIP3     285      TIP3     H2       HT       0.417000       1.00800           0
     19572 TIP3     286      TIP3     OH2      OT      -0.834000       15.9994           0
     19573 TIP3     286      TIP3     H1       HT       0.417000       1.00800           0
     19574 TIP3     286      TIP3     H2       HT       0.417000       1.00800           0
     19575 TIP3     287      TIP3     OH2      OT      -0.834000       15.9994           0
     19576 TIP3     287      TIP3     H1       HT       0.417000       1.00800           0
     19577 TIP3     287      TIP3     H2       HT       0.417000       1.00800           0
     19578 TIP3     288      TIP3     OH2      OT      -0.834000       15.9994           0
     19579 TIP3     288      TIP3     H1       HT       0.417000       1.00800           0
     19580 TIP3     288      TIP3     H2       HT       0.417000       1.00800           0
     19581 TIP3     289      TIP3     OH2      OT      -0.834000       15.9994           0
     19582 TIP3     289      TIP3     H1       HT       0.417000       1.00800           0
     19583 TIP3     289      TIP3     H2       HT       0.417000       1.00800           0
     19584 TIP3     290      TIP3     OH2      OT      -0.834000       15.9994           0
     19585 TIP3     290      TIP3     H1       HT       0.417000       1.00800           0
     19586 TIP3     290      TIP3     H2       HT       0.417000       1.00800           0
     19587 TIP3     291      TIP3     OH2      OT      -0.834000       15.9994           0
     19588 TIP3     291      TIP3     H1       HT       0.417000       1.00800           0
     19589 TIP3     291      TIP3     H2       HT       0.417000       1.00800           0
     19590 TIP3     292      TIP3     OH2      OT      -0.834000       15.9994           0
     19591 TIP3     292      TIP3     H1       HT       0.417000       1.00800           0
     19592 TIP3     292      TIP3     H2       HT       0.417000       1.00800           0
     19593 TIP3     293      TIP3     OH2      OT      -0.834000       15.9994           0
     19594 TIP3     293      TIP3     H1       HT       0.417000       1.00800           0
     19595 TIP3     293      TIP3     H2       HT       0.417000       1.00800           0
     19596 TIP3     294      TIP3     OH2      OT      -0.834000       15.9994           0
     19597 TIP3     294      TIP3     H1       HT       0.417000       1.00800           0
     19598 TIP3     294      TIP3     H2       HT       0.417000       1.00800           0
     19599 TIP3     295      TIP3     OH2      OT      -0.834000       15.9994           0
     19600 TIP3     295      TIP3     H1       HT       0.417000       1.00800           0
     19601 TIP3     295      TIP3     H2       HT       0.417000       1.00800           0
     19602 TIP3     296      TIP3     OH2      OT      -0.834000       15.9994           0
     19603 TIP3     296      TIP3     H1       HT       0.417000       1.00800           0
     19604 TIP3     296      TIP3     H2       HT       0.417000       1.00800           0
     19605 TIP3     297      TIP3     OH2      OT      -0.834000       15.9994           0
     19606 TIP3     297      TIP3     H1       HT       0.417000       1.00800           0
     19607 TIP3     297      TIP3     H2       HT       0.417000       1.00800           0
     19608 TIP3     298      TIP3     OH2      OT      -0.834000       15.9994           0
     19609 TIP3     298      TIP3     H1       HT       0.417000       1.00800           0
     19610 TIP3     298      TIP3     H2       HT       0.417000       1.00800           0
     19611 TIP3     299      TIP3     OH2      OT      -0.834000       15.9994           0
     19612 TIP3     299      TIP3     H1       HT       0.417000       1.00800           0
     19613 TIP3     299      TIP3     H2       HT       0.417000       1.00800           0
     19614 TIP3     300      TIP3     OH2      OT      -0.834000       15.9994           0
     19615 TIP3     300      TIP3     H1       HT       0.417000       1.00800           0
     19616 TIP3     300      TIP3     H2       HT       0.417000       1.00800           0
     19617 TIP3     301      TIP3     OH2      OT      -0.834000       15.9994           0
     19618 TIP3     301      TIP3     H1       HT       0.417000       1.00800           0
     19619 TIP3     301      TIP3     H2       HT       0.417000       1.00800           0
     19620 TIP3     302      TIP3     OH2      OT      -0.834000       15.9994           0
     19621 TIP3     302      TIP3     H1       HT       0.417000       1.00800           0
     19622 TIP3     302      TIP3     H2       HT       0.417000       1.00800           0
     19623 TIP3     303      TIP3     OH2      OT      -0.834000       15.9994           0
     19624 TIP3     303      TIP3     H1       HT       0.417000       1.00800           0
     19625 TIP3     303      TIP3     H2       HT       0.417000       1.00800           0
     19626 TIP3     304      TIP3     OH2      OT      -0.834000       15.9994           0
     19627 TIP3     304      TIP3     H1       HT       0.417000       1.00800           0
     19628 TIP3     304      TIP3     H2       HT       0.417000       1.00800           0
     19629 TIP3     305      TIP3     OH2      OT      -0.834000       15.9994           0
     19630 TIP3     305      TIP3     H1       HT       0.417000       1.00800           0
     19631 TIP3     305      TIP3     H2       HT       0.417000       1.00800           0
     19632 TIP3     306      TIP3     OH2      OT      -0.834000       15.9994           0
     19633 TIP3     306      TIP3     H1       HT       0.417000       1.00800           0
     19634 TIP3     306      TIP3     H2       HT       0.417000       1.00800           0
     19635 TIP3     307      TIP3     OH2      OT      -0.834000       15.9994           0
     19636 TIP3     307      TIP3     H1       HT       0.417000       1.00800           0
     19637 TIP3     307      TIP3     H2       HT       0.417000       1.00800           0
     19638 TIP3     308      TIP3     OH2      OT      -0.834000       15.9994           0
     19639 TIP3     308      TIP3     H1       HT       0.417000       1.00800           0
     19640 TIP3     308      TIP3     H2       HT       0.417000       1.00800           0
     19641 TIP3     309      TIP3     OH2      OT      -0.834000       15.9994           0
     19642 TIP3     309      TIP3     H1       HT       0.417000       1.00800           0
     19643 TIP3     309      TIP3     H2       HT       0.417000       1.00800           0
     19644 TIP3     310      TIP3     OH2      OT      -0.834000       15.9994           0
     19645 TIP3     310      TIP3     H1       HT       0.417000       1.00800           0
     19646 TIP3     310      TIP3     H2       HT       0.417000       1.00800           0
     19647 TIP3     311      TIP3     OH2      OT      -0.834000       15.9994           0
     19648 TIP3     311      TIP3     H1       HT       0.417000       1.00800           0
     19649 TIP3     311      TIP3     H2       HT       0.417000       1.00800           0
     19650 TIP3     312      TIP3     OH2      OT      -0.834000       15.9994           0
     19651 TIP3     312      TIP3     H1       HT       0.417000       1.00800           0
     19652 TIP3     312      TIP3     H2       HT       0.417000       1.00800           0
     19653 TIP3     313      TIP3     OH2      OT      -0.834000       15.9994           0
     19654 TIP3     313      TIP3     H1       HT       0.417000       1.00800           0
     19655 TIP3     313      TIP3     H2       HT       0.417000       1.00800           0
     19656 TIP3     314      TIP3     OH2      OT      -0.834000       15.9994           0
     19657 TIP3     314      TIP3     H1       HT       0.417000       1.00800           0
     19658 TIP3     314      TIP3     H2       HT       0.417000       1.00800           0
     19659 TIP3     315      TIP3     OH2      OT      -0.834000       15.9994           0
     19660 TIP3     315      TIP3     H1       HT       0.417000       1.00800           0
     19661 TIP3     315      TIP3     H2       HT       0.417000       1.00800           0
     19662 TIP3     316      TIP3     OH2      OT      -0.834000       15.9994           0
     19663 TIP3     316      TIP3     H1       HT       0.417000       1.00800           0
     19664 TIP3     316      TIP3     H2       HT       0.417000       1.00800           0
     19665 TIP3     317      TIP3     OH2      OT      -0.834000       15.9994           0
     19666 TIP3     317      TIP3     H1       HT       0.417000       1.00800           0
     19667 TIP3     317      TIP3     H2       HT       0.417000       1.00800           0
     19668 TIP3     318      TIP3     OH2      OT      -0.834000       15.9994           0
     19669 TIP3     318      TIP3     H1       HT       0.417000       1.00800           0
     19670 TIP3     318      TIP3     H2       HT       0.417000       1.00800           0
     19671 TIP3     319      TIP3     OH2      OT      -0.834000       15.9994           0
     19672 TIP3     319      TIP3     H1       HT       0.417000       1.00800           0
     19673 TIP3     319      TIP3     H2       HT       0.417000       1.00800           0
     19674 TIP3     320      TIP3     OH2      OT      -0.834000       15.9994           0
     19675 TIP3     320      TIP3     H1       HT       0.417000       1.00800           0
     19676 TIP3     320      TIP3     H2       HT       0.417000       1.00800           0
     19677 TIP3     321      TIP3     OH2      OT      -0.834000       15.9994           0
     19678 TIP3     321      TIP3     H1       HT       0.417000       1.00800           0
     19679 TIP3     321      TIP3     H2       HT       0.417000       1.00800           0
     19680 TIP3     322      TIP3     OH2      OT      -0.834000       15.9994           0
     19681 TIP3     322      TIP3     H1       HT       0.417000       1.00800           0
     19682 TIP3     322      TIP3     H2       HT       0.417000       1.00800           0
     19683 TIP3     323      TIP3     OH2      OT      -0.834000       15.9994           0
     19684 TIP3     323      TIP3     H1       HT       0.417000       1.00800           0
     19685 TIP3     323      TIP3     H2       HT       0.417000       1.00800           0
     19686 TIP3     324      TIP3     OH2      OT      -0.834000       15.9994           0
     19687 TIP3     324      TIP3     H1       HT       0.417000       1.00800           0
     19688 TIP3     324      TIP3     H2       HT       0.417000       1.00800           0
     19689 TIP3     325      TIP3     OH2      OT      -0.834000       15.9994           0
     19690 TIP3     325      TIP3     H1       HT       0.417000       1.00800           0
     19691 TIP3     325      TIP3     H2       HT       0.417000       1.00800           0
     19692 TIP3     326      TIP3     OH2      OT      -0.834000       15.9994           0
     19693 TIP3     326      TIP3     H1       HT       0.417000       1.00800           0
     19694 TIP3     326      TIP3     H2       HT       0.417000       1.00800           0
     19695 TIP3     327      TIP3     OH2      OT      -0.834000       15.9994           0
     19696 TIP3     327      TIP3     H1       HT       0.417000       1.00800           0
     19697 TIP3     327      TIP3     H2       HT       0.417000       1.00800           0
     19698 TIP3     328      TIP3     OH2      OT      -0.834000       15.9994           0
     19699 TIP3     328      TIP3     H1       HT       0.417000       1.00800           0
     19700 TIP3     328      TIP3     H2       HT       0.417000       1.00800           0
     19701 TIP3     329      TIP3     OH2      OT      -0.834000       15.9994           0
     19702 TIP3     329      TIP3     H1       HT       0.417000       1.00800           0
     19703 TIP3     329      TIP3     H2       HT       0.417000       1.00800           0
     19704 TIP3     330      TIP3     OH2      OT      -0.834000       15.9994           0
     19705 TIP3     330      TIP3     H1       HT       0.417000       1.00800           0
     19706 TIP3     330      TIP3     H2       HT       0.417000       1.00800           0
     19707 TIP3     331      TIP3     OH2      OT      -0.834000       15.9994           0
     19708 TIP3     331      TIP3     H1       HT       0.417000       1.00800           0
     19709 TIP3     331      TIP3     H2       HT       0.417000       1.00800           0
     19710 TIP3     332      TIP3     OH2      OT      -0.834000       15.9994           0
     19711 TIP3     332      TIP3     H1       HT       0.417000       1.00800           0
     19712 TIP3     332      TIP3     H2       HT       0.417000       1.00800           0
     19713 TIP3     333      TIP3     OH2      OT      -0.834000       15.9994           0
     19714 TIP3     333      TIP3     H1       HT       0.417000       1.00800           0
     19715 TIP3     333      TIP3     H2       HT       0.417000       1.00800           0
     19716 TIP3     334      TIP3     OH2      OT      -0.834000       15.9994           0
     19717 TIP3     334      TIP3     H1       HT       0.417000       1.00800           0
     19718 TIP3     334      TIP3     H2       HT       0.417000       1.00800           0
     19719 TIP3     335      TIP3     OH2      OT      -0.834000       15.9994           0
     19720 TIP3     335      TIP3     H1       HT       0.417000       1.00800           0
     19721 TIP3     335      TIP3     H2       HT       0.417000       1.00800           0
     19722 TIP3     336      TIP3     OH2      OT      -0.834000       15.9994           0
     19723 TIP3     336      TIP3     H1       HT       0.417000       1.00800           0
     19724 TIP3     336      TIP3     H2       HT       0.417000       1.00800           0
     19725 TIP3     337      TIP3     OH2      OT      -0.834000       15.9994           0
     19726 TIP3     337      TIP3     H1       HT       0.417000       1.00800           0
     19727 TIP3     337      TIP3     H2       HT       0.417000       1.00800           0
     19728 TIP3     338      TIP3     OH2      OT      -0.834000       15.9994           0
     19729 TIP3     338      TIP3     H1       HT       0.417000       1.00800           0
     19730 TIP3     338      TIP3     H2       HT       0.417000       1.00800           0
     19731 TIP3     339      TIP3     OH2      OT      -0.834000       15.9994           0
     19732 TIP3     339      TIP3     H1       HT       0.417000       1.00800           0
     19733 TIP3     339      TIP3     H2       HT       0.417000       1.00800           0
     19734 TIP3     340      TIP3     OH2      OT      -0.834000       15.9994           0
     19735 TIP3     340      TIP3     H1       HT       0.417000       1.00800           0
     19736 TIP3     340      TIP3     H2       HT       0.417000       1.00800           0
     19737 TIP3     341      TIP3     OH2      OT      -0.834000       15.9994           0
     19738 TIP3     341      TIP3     H1       HT       0.417000       1.00800           0
     19739 TIP3     341      TIP3     H2       HT       0.417000       1.00800           0
     19740 TIP3     342      TIP3     OH2      OT      -0.834000       15.9994           0
     19741 TIP3     342      TIP3     H1       HT       0.417000       1.00800           0
     19742 TIP3     342      TIP3     H2       HT       0.417000       1.00800           0
     19743 TIP3     343      TIP3     OH2      OT      -0.834000       15.9994           0
     19744 TIP3     343      TIP3     H1       HT       0.417000       1.00800           0
     19745 TIP3     343      TIP3     H2       HT       0.417000       1.00800           0
     19746 TIP3     344      TIP3     OH2      OT      -0.834000       15.9994           0
     19747 TIP3     344      TIP3     H1       HT       0.417000       1.00800           0
     19748 TIP3     344      TIP3     H2       HT       0.417000       1.00800           0
     19749 TIP3     345      TIP3     OH2      OT      -0.834000       15.9994           0
     19750 TIP3     345      TIP3     H1       HT       0.417000       1.00800           0
     19751 TIP3     345      TIP3     H2       HT       0.417000       1.00800           0
     19752 TIP3     346      TIP3     OH2      OT      -0.834000       15.9994           0
     19753 TIP3     346      TIP3     H1       HT       0.417000       1.00800           0
     19754 TIP3     346      TIP3     H2       HT       0.417000       1.00800           0
     19755 TIP3     347      TIP3     OH2      OT      -0.834000       15.9994           0
     19756 TIP3     347      TIP3     H1       HT       0.417000       1.00800           0
     19757 TIP3     347      TIP3     H2       HT       0.417000       1.00800           0
     19758 TIP3     348      TIP3     OH2      OT      -0.834000       15.9994           0
     19759 TIP3     348      TIP3     H1       HT       0.417000       1.00800           0
     19760 TIP3     348      TIP3     H2       HT       0.417000       1.00800           0
     19761 TIP3     349      TIP3     OH2      OT      -0.834000       15.9994           0
     19762 TIP3     349      TIP3     H1       HT       0.417000       1.00800           0
     19763 TIP3     349      TIP3     H2       HT       0.417000       1.00800           0
     19764 TIP3     350      TIP3     OH2      OT      -0.834000       15.9994           0
     19765 TIP3     350      TIP3     H1       HT       0.417000       1.00800           0
     19766 TIP3     350      TIP3     H2       HT       0.417000       1.00800           0
     19767 TIP3     351      TIP3     OH2      OT      -0.834000       15.9994           0
     19768 TIP3     351      TIP3     H1       HT       0.417000       1.00800           0
     19769 TIP3     351      TIP3     H2       HT       0.417000       1.00800           0
     19770 TIP3     352      TIP3     OH2      OT      -0.834000       15.9994           0
     19771 TIP3     352      TIP3     H1       HT       0.417000       1.00800           0
     19772 TIP3     352      TIP3     H2       HT       0.417000       1.00800           0
     19773 TIP3     353      TIP3     OH2      OT      -0.834000       15.9994           0
     19774 TIP3     353      TIP3     H1       HT       0.417000       1.00800           0
     19775 TIP3     353      TIP3     H2       HT       0.417000       1.00800           0
     19776 TIP3     354      TIP3     OH2      OT      -0.834000       15.9994           0
     19777 TIP3     354      TIP3     H1       HT       0.417000       1.00800           0
     19778 TIP3     354      TIP3     H2       HT       0.417000       1.00800           0
     19779 TIP3     355      TIP3     OH2      OT      -0.834000       15.9994           0
     19780 TIP3     355      TIP3     H1       HT       0.417000       1.00800           0
     19781 TIP3     355      TIP3     H2       HT       0.417000       1.00800           0
     19782 TIP3     356      TIP3     OH2      OT      -0.834000       15.9994           0
     19783 TIP3     356      TIP3     H1       HT       0.417000       1.00800           0
     19784 TIP3     356      TIP3     H2       HT       0.417000       1.00800           0
     19785 TIP3     357      TIP3     OH2      OT      -0.834000       15.9994           0
     19786 TIP3     357      TIP3     H1       HT       0.417000       1.00800           0
     19787 TIP3     357      TIP3     H2       HT       0.417000       1.00800           0
     19788 TIP3     358      TIP3     OH2      OT      -0.834000       15.9994           0
     19789 TIP3     358      TIP3     H1       HT       0.417000       1.00800           0
     19790 TIP3     358      TIP3     H2       HT       0.417000       1.00800           0
     19791 TIP3     359      TIP3     OH2      OT      -0.834000       15.9994           0
     19792 TIP3     359      TIP3     H1       HT       0.417000       1.00800           0
     19793 TIP3     359      TIP3     H2       HT       0.417000       1.00800           0
     19794 TIP3     360      TIP3     OH2      OT      -0.834000       15.9994           0
     19795 TIP3     360      TIP3     H1       HT       0.417000       1.00800           0
     19796 TIP3     360      TIP3     H2       HT       0.417000       1.00800           0
     19797 TIP3     361      TIP3     OH2      OT      -0.834000       15.9994           0
     19798 TIP3     361      TIP3     H1       HT       0.417000       1.00800           0
     19799 TIP3     361      TIP3     H2       HT       0.417000       1.00800           0
     19800 TIP3     362      TIP3     OH2      OT      -0.834000       15.9994           0
     19801 TIP3     362      TIP3     H1       HT       0.417000       1.00800           0
     19802 TIP3     362      TIP3     H2       HT       0.417000       1.00800           0
     19803 TIP3     363      TIP3     OH2      OT      -0.834000       15.9994           0
     19804 TIP3     363      TIP3     H1       HT       0.417000       1.00800           0
     19805 TIP3     363      TIP3     H2       HT       0.417000       1.00800           0
     19806 TIP3     364      TIP3     OH2      OT      -0.834000       15.9994           0
     19807 TIP3     364      TIP3     H1       HT       0.417000       1.00800           0
     19808 TIP3     364      TIP3     H2       HT       0.417000       1.00800           0
     19809 TIP3     365      TIP3     OH2      OT      -0.834000       15.9994           0
     19810 TIP3     365      TIP3     H1       HT       0.417000       1.00800           0
     19811 TIP3     365      TIP3     H2       HT       0.417000       1.00800           0
     19812 TIP3     366      TIP3     OH2      OT      -0.834000       15.9994           0
     19813 TIP3     366      TIP3     H1       HT       0.417000       1.00800           0
     19814 TIP3     366      TIP3     H2       HT       0.417000       1.00800           0
     19815 TIP3     367      TIP3     OH2      OT      -0.834000       15.9994           0
     19816 TIP3     367      TIP3     H1       HT       0.417000       1.00800           0
     19817 TIP3     367      TIP3     H2       HT       0.417000       1.00800           0
     19818 TIP3     368      TIP3     OH2      OT      -0.834000       15.9994           0
     19819 TIP3     368      TIP3     H1       HT       0.417000       1.00800           0
     19820 TIP3     368      TIP3     H2       HT       0.417000       1.00800           0
     19821 TIP3     369      TIP3     OH2      OT      -0.834000       15.9994           0
     19822 TIP3     369      TIP3     H1       HT       0.417000       1.00800           0
     19823 TIP3     369      TIP3     H2       HT       0.417000       1.00800           0
     19824 TIP3     370      TIP3     OH2      OT      -0.834000       15.9994           0
     19825 TIP3     370      TIP3     H1       HT       0.417000       1.00800           0
     19826 TIP3     370      TIP3     H2       HT       0.417000       1.00800           0
     19827 TIP3     371      TIP3     OH2      OT      -0.834000       15.9994           0
     19828 TIP3     371      TIP3     H1       HT       0.417000       1.00800           0
     19829 TIP3     371      TIP3     H2       HT       0.417000       1.00800           0
     19830 TIP3     372      TIP3     OH2      OT      -0.834000       15.9994           0
     19831 TIP3     372      TIP3     H1       HT       0.417000       1.00800           0
     19832 TIP3     372      TIP3     H2       HT       0.417000       1.00800           0
     19833 TIP3     373      TIP3     OH2      OT      -0.834000       15.9994           0
     19834 TIP3     373      TIP3     H1       HT       0.417000       1.00800           0
     19835 TIP3     373      TIP3     H2       HT       0.417000       1.00800           0
     19836 TIP3     374      TIP3     OH2      OT      -0.834000       15.9994           0
     19837 TIP3     374      TIP3     H1       HT       0.417000       1.00800           0
     19838 TIP3     374      TIP3     H2       HT       0.417000       1.00800           0
     19839 TIP3     375      TIP3     OH2      OT      -0.834000       15.9994           0
     19840 TIP3     375      TIP3     H1       HT       0.417000       1.00800           0
     19841 TIP3     375      TIP3     H2       HT       0.417000       1.00800           0
     19842 TIP3     376      TIP3     OH2      OT      -0.834000       15.9994           0
     19843 TIP3     376      TIP3     H1       HT       0.417000       1.00800           0
     19844 TIP3     376      TIP3     H2       HT       0.417000       1.00800           0
     19845 TIP3     377      TIP3     OH2      OT      -0.834000       15.9994           0
     19846 TIP3     377      TIP3     H1       HT       0.417000       1.00800           0
     19847 TIP3     377      TIP3     H2       HT       0.417000       1.00800           0
     19848 TIP3     378      TIP3     OH2      OT      -0.834000       15.9994           0
     19849 TIP3     378      TIP3     H1       HT       0.417000       1.00800           0
     19850 TIP3     378      TIP3     H2       HT       0.417000       1.00800           0
     19851 TIP3     379      TIP3     OH2      OT      -0.834000       15.9994           0
     19852 TIP3     379      TIP3     H1       HT       0.417000       1.00800           0
     19853 TIP3     379      TIP3     H2       HT       0.417000       1.00800           0
     19854 TIP3     380      TIP3     OH2      OT      -0.834000       15.9994           0
     19855 TIP3     380      TIP3     H1       HT       0.417000       1.00800           0
     19856 TIP3     380      TIP3     H2       HT       0.417000       1.00800           0
     19857 TIP3     381      TIP3     OH2      OT      -0.834000       15.9994           0
     19858 TIP3     381      TIP3     H1       HT       0.417000       1.00800           0
     19859 TIP3     381      TIP3     H2       HT       0.417000       1.00800           0
     19860 TIP3     382      TIP3     OH2      OT      -0.834000       15.9994           0
     19861 TIP3     382      TIP3     H1       HT       0.417000       1.00800           0
     19862 TIP3     382      TIP3     H2       HT       0.417000       1.00800           0
     19863 TIP3     383      TIP3     OH2      OT      -0.834000       15.9994           0
     19864 TIP3     383      TIP3     H1       HT       0.417000       1.00800           0
     19865 TIP3     383      TIP3     H2       HT       0.417000       1.00800           0
     19866 TIP3     384      TIP3     OH2      OT      -0.834000       15.9994           0
     19867 TIP3     384      TIP3     H1       HT       0.417000       1.00800           0
     19868 TIP3     384      TIP3     H2       HT       0.417000       1.00800           0
     19869 TIP3     385      TIP3     OH2      OT      -0.834000       15.9994           0
     19870 TIP3     385      TIP3     H1       HT       0.417000       1.00800           0
     19871 TIP3     385      TIP3     H2       HT       0.417000       1.00800           0
     19872 TIP3     386      TIP3     OH2      OT      -0.834000       15.9994           0
     19873 TIP3     386      TIP3     H1       HT       0.417000       1.00800           0
     19874 TIP3     386      TIP3     H2       HT       0.417000       1.00800           0
     19875 TIP3     387      TIP3     OH2      OT      -0.834000       15.9994           0
     19876 TIP3     387      TIP3     H1       HT       0.417000       1.00800           0
     19877 TIP3     387      TIP3     H2       HT       0.417000       1.00800           0
     19878 TIP3     388      TIP3     OH2      OT      -0.834000       15.9994           0
     19879 TIP3     388      TIP3     H1       HT       0.417000       1.00800           0
     19880 TIP3     388      TIP3     H2       HT       0.417000       1.00800           0
     19881 TIP3     389      TIP3     OH2      OT      -0.834000       15.9994           0
     19882 TIP3     389      TIP3     H1       HT       0.417000       1.00800           0
     19883 TIP3     389      TIP3     H2       HT       0.417000       1.00800           0
     19884 TIP3     390      TIP3     OH2      OT      -0.834000       15.9994           0
     19885 TIP3     390      TIP3     H1       HT       0.417000       1.00800           0
     19886 TIP3     390      TIP3     H2       HT       0.417000       1.00800           0
     19887 TIP3     391      TIP3     OH2      OT      -0.834000       15.9994           0
     19888 TIP3     391      TIP3     H1       HT       0.417000       1.00800           0
     19889 TIP3     391      TIP3     H2       HT       0.417000       1.00800           0
     19890 TIP3     392      TIP3     OH2      OT      -0.834000       15.9994           0
     19891 TIP3     392      TIP3     H1       HT       0.417000       1.00800           0
     19892 TIP3     392      TIP3     H2       HT       0.417000       1.00800           0
     19893 TIP3     393      TIP3     OH2      OT      -0.834000       15.9994           0
     19894 TIP3     393      TIP3     H1       HT       0.417000       1.00800           0
     19895 TIP3     393      TIP3     H2       HT       0.417000       1.00800           0
     19896 TIP3     394      TIP3     OH2      OT      -0.834000       15.9994           0
     19897 TIP3     394      TIP3     H1       HT       0.417000       1.00800           0
     19898 TIP3     394      TIP3     H2       HT       0.417000       1.00800           0
     19899 TIP3     395      TIP3     OH2      OT      -0.834000       15.9994           0
     19900 TIP3     395      TIP3     H1       HT       0.417000       1.00800           0
     19901 TIP3     395      TIP3     H2       HT       0.417000       1.00800           0
     19902 TIP3     396      TIP3     OH2      OT      -0.834000       15.9994           0
     19903 TIP3     396      TIP3     H1       HT       0.417000       1.00800           0
     19904 TIP3     396      TIP3     H2       HT       0.417000       1.00800           0
     19905 TIP3     397      TIP3     OH2      OT      -0.834000       15.9994           0
     19906 TIP3     397      TIP3     H1       HT       0.417000       1.00800           0
     19907 TIP3     397      TIP3     H2       HT       0.417000       1.00800           0
     19908 TIP3     398      TIP3     OH2      OT      -0.834000       15.9994           0
     19909 TIP3     398      TIP3     H1       HT       0.417000       1.00800           0
     19910 TIP3     398      TIP3     H2       HT       0.417000       1.00800           0
     19911 TIP3     399      TIP3     OH2      OT      -0.834000       15.9994           0
     19912 TIP3     399      TIP3     H1       HT       0.417000       1.00800           0
     19913 TIP3     399      TIP3     H2       HT       0.417000       1.00800           0
     19914 TIP3     400      TIP3     OH2      OT      -0.834000       15.9994           0
     19915 TIP3     400      TIP3     H1       HT       0.417000       1.00800           0
     19916 TIP3     400      TIP3     H2       HT       0.417000       1.00800           0
     19917 TIP3     401      TIP3     OH2      OT      -0.834000       15.9994           0
     19918 TIP3     401      TIP3     H1       HT       0.417000       1.00800           0
     19919 TIP3     401      TIP3     H2       HT       0.417000       1.00800           0
     19920 TIP3     402      TIP3     OH2      OT      -0.834000       15.9994           0
     19921 TIP3     402      TIP3     H1       HT       0.417000       1.00800           0
     19922 TIP3     402      TIP3     H2       HT       0.417000       1.00800           0
     19923 TIP3     403      TIP3     OH2      OT      -0.834000       15.9994           0
     19924 TIP3     403      TIP3     H1       HT       0.417000       1.00800           0
     19925 TIP3     403      TIP3     H2       HT       0.417000       1.00800           0
     19926 TIP3     404      TIP3     OH2      OT      -0.834000       15.9994           0
     19927 TIP3     404      TIP3     H1       HT       0.417000       1.00800           0
     19928 TIP3     404      TIP3     H2       HT       0.417000       1.00800           0
     19929 TIP3     405      TIP3     OH2      OT      -0.834000       15.9994           0
     19930 TIP3     405      TIP3     H1       HT       0.417000       1.00800           0
     19931 TIP3     405      TIP3     H2       HT       0.417000       1.00800           0
     19932 TIP3     406      TIP3     OH2      OT      -0.834000       15.9994           0
     19933 TIP3     406      TIP3     H1       HT       0.417000       1.00800           0
     19934 TIP3     406      TIP3     H2       HT       0.417000       1.00800           0
     19935 TIP3     407      TIP3     OH2      OT      -0.834000       15.9994           0
     19936 TIP3     407      TIP3     H1       HT       0.417000       1.00800           0
     19937 TIP3     407      TIP3     H2       HT       0.417000       1.00800           0
     19938 TIP3     408      TIP3     OH2      OT      -0.834000       15.9994           0
     19939 TIP3     408      TIP3     H1       HT       0.417000       1.00800           0
     19940 TIP3     408      TIP3     H2       HT       0.417000       1.00800           0
     19941 TIP3     409      TIP3     OH2      OT      -0.834000       15.9994           0
     19942 TIP3     409      TIP3     H1       HT       0.417000       1.00800           0
     19943 TIP3     409      TIP3     H2       HT       0.417000       1.00800           0
     19944 TIP3     410      TIP3     OH2      OT      -0.834000       15.9994           0
     19945 TIP3     410      TIP3     H1       HT       0.417000       1.00800           0
     19946 TIP3     410      TIP3     H2       HT       0.417000       1.00800           0
     19947 TIP3     411      TIP3     OH2      OT      -0.834000       15.9994           0
     19948 TIP3     411      TIP3     H1       HT       0.417000       1.00800           0
     19949 TIP3     411      TIP3     H2       HT       0.417000       1.00800           0
     19950 TIP3     412      TIP3     OH2      OT      -0.834000       15.9994           0
     19951 TIP3     412      TIP3     H1       HT       0.417000       1.00800           0
     19952 TIP3     412      TIP3     H2       HT       0.417000       1.00800           0
     19953 TIP3     413      TIP3     OH2      OT      -0.834000       15.9994           0
     19954 TIP3     413      TIP3     H1       HT       0.417000       1.00800           0
     19955 TIP3     413      TIP3     H2       HT       0.417000       1.00800           0
     19956 TIP3     414      TIP3     OH2      OT      -0.834000       15.9994           0
     19957 TIP3     414      TIP3     H1       HT       0.417000       1.00800           0
     19958 TIP3     414      TIP3     H2       HT       0.417000       1.00800           0
     19959 TIP3     415      TIP3     OH2      OT      -0.834000       15.9994           0
     19960 TIP3     415      TIP3     H1       HT       0.417000       1.00800           0
     19961 TIP3     415      TIP3     H2       HT       0.417000       1.00800           0
     19962 TIP3     416      TIP3     OH2      OT      -0.834000       15.9994           0
     19963 TIP3     416      TIP3     H1       HT       0.417000       1.00800           0
     19964 TIP3     416      TIP3     H2       HT       0.417000       1.00800           0
     19965 TIP3     417      TIP3     OH2      OT      -0.834000       15.9994           0
     19966 TIP3     417      TIP3     H1       HT       0.417000       1.00800           0
     19967 TIP3     417      TIP3     H2       HT       0.417000       1.00800           0
     19968 TIP3     418      TIP3     OH2      OT      -0.834000       15.9994           0
     19969 TIP3     418      TIP3     H1       HT       0.417000       1.00800           0
     19970 TIP3     418      TIP3     H2       HT       0.417000       1.00800           0
     19971 TIP3     419      TIP3     OH2      OT      -0.834000       15.9994           0
     19972 TIP3     419      TIP3     H1       HT       0.417000       1.00800           0
     19973 TIP3     419      TIP3     H2       HT       0.417000       1.00800           0
     19974 TIP3     420      TIP3     OH2      OT      -0.834000       15.9994           0
     19975 TIP3     420      TIP3     H1       HT       0.417000       1.00800           0
     19976 TIP3     420      TIP3     H2       HT       0.417000       1.00800           0
     19977 TIP3     421      TIP3     OH2      OT      -0.834000       15.9994           0
     19978 TIP3     421      TIP3     H1       HT       0.417000       1.00800           0
     19979 TIP3     421      TIP3     H2       HT       0.417000       1.00800           0
     19980 TIP3     422      TIP3     OH2      OT      -0.834000       15.9994           0
     19981 TIP3     422      TIP3     H1       HT       0.417000       1.00800           0
     19982 TIP3     422      TIP3     H2       HT       0.417000       1.00800           0
     19983 TIP3     423      TIP3     OH2      OT      -0.834000       15.9994           0
     19984 TIP3     423      TIP3     H1       HT       0.417000       1.00800           0
     19985 TIP3     423      TIP3     H2       HT       0.417000       1.00800           0
     19986 TIP3     424      TIP3     OH2      OT      -0.834000       15.9994           0
     19987 TIP3     424      TIP3     H1       HT       0.417000       1.00800           0
     19988 TIP3     424      TIP3     H2       HT       0.417000       1.00800           0
     19989 TIP3     425      TIP3     OH2      OT      -0.834000       15.9994           0
     19990 TIP3     425      TIP3     H1       HT       0.417000       1.00800           0
     19991 TIP3     425      TIP3     H2       HT       0.417000       1.00800           0
     19992 TIP3     426      TIP3     OH2      OT      -0.834000       15.9994           0
     19993 TIP3     426      TIP3     H1       HT       0.417000       1.00800           0
     19994 TIP3     426      TIP3     H2       HT       0.417000       1.00800           0
     19995 TIP3     427      TIP3     OH2      OT      -0.834000       15.9994           0
     19996 TIP3     427      TIP3     H1       HT       0.417000       1.00800           0
     19997 TIP3     427      TIP3     H2       HT       0.417000       1.00800           0
     19998 TIP3     428      TIP3     OH2      OT      -0.834000       15.9994           0
     19999 TIP3     428      TIP3     H1       HT       0.417000       1.00800           0
     20000 TIP3     428      TIP3     H2       HT       0.417000       1.00800           0
     20001 TIP3     429      TIP3     OH2      OT      -0.834000       15.9994           0
     20002 TIP3     429      TIP3     H1       HT       0.417000       1.00800           0
     20003 TIP3     429      TIP3     H2       HT       0.417000       1.00800           0
     20004 TIP3     430      TIP3     OH2      OT      -0.834000       15.9994           0
     20005 TIP3     430      TIP3     H1       HT       0.417000       1.00800           0
     20006 TIP3     430      TIP3     H2       HT       0.417000       1.00800           0
     20007 TIP3     431      TIP3     OH2      OT      -0.834000       15.9994           0
     20008 TIP3     431      TIP3     H1       HT       0.417000       1.00800           0
     20009 TIP3     431      TIP3     H2       HT       0.417000       1.00800           0
     20010 TIP3     432      TIP3     OH2      OT      -0.834000       15.9994           0
     20011 TIP3     432      TIP3     H1       HT       0.417000       1.00800           0
     20012 TIP3     432      TIP3     H2       HT       0.417000       1.00800           0
     20013 TIP3     433      TIP3     OH2      OT      -0.834000       15.9994           0
     20014 TIP3     433      TIP3     H1       HT       0.417000       1.00800           0
     20015 TIP3     433      TIP3     H2       HT       0.417000       1.00800           0
     20016 TIP3     434      TIP3     OH2      OT      -0.834000       15.9994           0
     20017 TIP3     434      TIP3     H1       HT       0.417000       1.00800           0
     20018 TIP3     434      TIP3     H2       HT       0.417000       1.00800           0
     20019 TIP3     435      TIP3     OH2      OT      -0.834000       15.9994           0
     20020 TIP3     435      TIP3     H1       HT       0.417000       1.00800           0
     20021 TIP3     435      TIP3     H2       HT       0.417000       1.00800           0
     20022 TIP3     436      TIP3     OH2      OT      -0.834000       15.9994           0
     20023 TIP3     436      TIP3     H1       HT       0.417000       1.00800           0
     20024 TIP3     436      TIP3     H2       HT       0.417000       1.00800           0
     20025 TIP3     437      TIP3     OH2      OT      -0.834000       15.9994           0
     20026 TIP3     437      TIP3     H1       HT       0.417000       1.00800           0
     20027 TIP3     437      TIP3     H2       HT       0.417000       1.00800           0
     20028 TIP3     438      TIP3     OH2      OT      -0.834000       15.9994           0
     20029 TIP3     438      TIP3     H1       HT       0.417000       1.00800           0
     20030 TIP3     438      TIP3     H2       HT       0.417000       1.00800           0
     20031 TIP3     439      TIP3     OH2      OT      -0.834000       15.9994           0
     20032 TIP3     439      TIP3     H1       HT       0.417000       1.00800           0
     20033 TIP3     439      TIP3     H2       HT       0.417000       1.00800           0
     20034 TIP3     440      TIP3     OH2      OT      -0.834000       15.9994           0
     20035 TIP3     440      TIP3     H1       HT       0.417000       1.00800           0
     20036 TIP3     440      TIP3     H2       HT       0.417000       1.00800           0
     20037 TIP3     441      TIP3     OH2      OT      -0.834000       15.9994           0
     20038 TIP3     441      TIP3     H1       HT       0.417000       1.00800           0
     20039 TIP3     441      TIP3     H2       HT       0.417000       1.00800           0
     20040 TIP3     442      TIP3     OH2      OT      -0.834000       15.9994           0
     20041 TIP3     442      TIP3     H1       HT       0.417000       1.00800           0
     20042 TIP3     442      TIP3     H2       HT       0.417000       1.00800           0
     20043 TIP3     443      TIP3     OH2      OT      -0.834000       15.9994           0
     20044 TIP3     443      TIP3     H1       HT       0.417000       1.00800           0
     20045 TIP3     443      TIP3     H2       HT       0.417000       1.00800           0
     20046 TIP3     444      TIP3     OH2      OT      -0.834000       15.9994           0
     20047 TIP3     444      TIP3     H1       HT       0.417000       1.00800           0
     20048 TIP3     444      TIP3     H2       HT       0.417000       1.00800           0
     20049 TIP3     445      TIP3     OH2      OT      -0.834000       15.9994           0
     20050 TIP3     445      TIP3     H1       HT       0.417000       1.00800           0
     20051 TIP3     445      TIP3     H2       HT       0.417000       1.00800           0
     20052 TIP3     446      TIP3     OH2      OT      -0.834000       15.9994           0
     20053 TIP3     446      TIP3     H1       HT       0.417000       1.00800           0
     20054 TIP3     446      TIP3     H2       HT       0.417000       1.00800           0
     20055 TIP3     447      TIP3     OH2      OT      -0.834000       15.9994           0
     20056 TIP3     447      TIP3     H1       HT       0.417000       1.00800           0
     20057 TIP3     447      TIP3     H2       HT       0.417000       1.00800           0
     20058 TIP3     448      TIP3     OH2      OT      -0.834000       15.9994           0
     20059 TIP3     448      TIP3     H1       HT       0.417000       1.00800           0
     20060 TIP3     448      TIP3     H2       HT       0.417000       1.00800           0
     20061 TIP3     449      TIP3     OH2      OT      -0.834000       15.9994           0
     20062 TIP3     449      TIP3     H1       HT       0.417000       1.00800           0
     20063 TIP3     449      TIP3     H2       HT       0.417000       1.00800           0
     20064 TIP3     450      TIP3     OH2      OT      -0.834000       15.9994           0
     20065 TIP3     450      TIP3     H1       HT       0.417000       1.00800           0
     20066 TIP3     450      TIP3     H2       HT       0.417000       1.00800           0
     20067 TIP3     451      TIP3     OH2      OT      -0.834000       15.9994           0
     20068 TIP3     451      TIP3     H1       HT       0.417000       1.00800           0
     20069 TIP3     451      TIP3     H2       HT       0.417000       1.00800           0
     20070 TIP3     452      TIP3     OH2      OT      -0.834000       15.9994           0
     20071 TIP3     452      TIP3     H1       HT       0.417000       1.00800           0
     20072 TIP3     452      TIP3     H2       HT       0.417000       1.00800           0
     20073 TIP3     453      TIP3     OH2      OT      -0.834000       15.9994           0
     20074 TIP3     453      TIP3     H1       HT       0.417000       1.00800           0
     20075 TIP3     453      TIP3     H2       HT       0.417000       1.00800           0
     20076 TIP3     454      TIP3     OH2      OT      -0.834000       15.9994           0
     20077 TIP3     454      TIP3     H1       HT       0.417000       1.00800           0
     20078 TIP3     454      TIP3     H2       HT       0.417000       1.00800           0
     20079 TIP3     455      TIP3     OH2      OT      -0.834000       15.9994           0
     20080 TIP3     455      TIP3     H1       HT       0.417000       1.00800           0
     20081 TIP3     455      TIP3     H2       HT       0.417000       1.00800           0
     20082 TIP3     456      TIP3     OH2      OT      -0.834000       15.9994           0
     20083 TIP3     456      TIP3     H1       HT       0.417000       1.00800           0
     20084 TIP3     456      TIP3     H2       HT       0.417000       1.00800           0
     20085 TIP3     457      TIP3     OH2      OT      -0.834000       15.9994           0
     20086 TIP3     457      TIP3     H1       HT       0.417000       1.00800           0
     20087 TIP3     457      TIP3     H2       HT       0.417000       1.00800           0
     20088 TIP3     458      TIP3     OH2      OT      -0.834000       15.9994           0
     20089 TIP3     458      TIP3     H1       HT       0.417000       1.00800           0
     20090 TIP3     458      TIP3     H2       HT       0.417000       1.00800           0
     20091 TIP3     459      TIP3     OH2      OT      -0.834000       15.9994           0
     20092 TIP3     459      TIP3     H1       HT       0.417000       1.00800           0
     20093 TIP3     459      TIP3     H2       HT       0.417000       1.00800           0
     20094 TIP3     460      TIP3     OH2      OT      -0.834000       15.9994           0
     20095 TIP3     460      TIP3     H1       HT       0.417000       1.00800           0
     20096 TIP3     460      TIP3     H2       HT       0.417000       1.00800           0
     20097 TIP3     461      TIP3     OH2      OT      -0.834000       15.9994           0
     20098 TIP3     461      TIP3     H1       HT       0.417000       1.00800           0
     20099 TIP3     461      TIP3     H2       HT       0.417000       1.00800           0
     20100 TIP3     462      TIP3     OH2      OT      -0.834000       15.9994           0
     20101 TIP3     462      TIP3     H1       HT       0.417000       1.00800           0
     20102 TIP3     462      TIP3     H2       HT       0.417000       1.00800           0
     20103 TIP3     463      TIP3     OH2      OT      -0.834000       15.9994           0
     20104 TIP3     463      TIP3     H1       HT       0.417000       1.00800           0
     20105 TIP3     463      TIP3     H2       HT       0.417000       1.00800           0
     20106 TIP3     464      TIP3     OH2      OT      -0.834000       15.9994           0
     20107 TIP3     464      TIP3     H1       HT       0.417000       1.00800           0
     20108 TIP3     464      TIP3     H2       HT       0.417000       1.00800           0
     20109 TIP3     465      TIP3     OH2      OT      -0.834000       15.9994           0
     20110 TIP3     465      TIP3     H1       HT       0.417000       1.00800           0
     20111 TIP3     465      TIP3     H2       HT       0.417000       1.00800           0
     20112 TIP3     466      TIP3     OH2      OT      -0.834000       15.9994           0
     20113 TIP3     466      TIP3     H1       HT       0.417000       1.00800           0
     20114 TIP3     466      TIP3     H2       HT       0.417000       1.00800           0
     20115 TIP3     467      TIP3     OH2      OT      -0.834000       15.9994           0
     20116 TIP3     467      TIP3     H1       HT       0.417000       1.00800           0
     20117 TIP3     467      TIP3     H2       HT       0.417000       1.00800           0
     20118 TIP3     468      TIP3     OH2      OT      -0.834000       15.9994           0
     20119 TIP3     468      TIP3     H1       HT       0.417000       1.00800           0
     20120 TIP3     468      TIP3     H2       HT       0.417000       1.00800           0
     20121 TIP3     469      TIP3     OH2      OT      -0.834000       15.9994           0
     20122 TIP3     469      TIP3     H1       HT       0.417000       1.00800           0
     20123 TIP3     469      TIP3     H2       HT       0.417000       1.00800           0
     20124 TIP3     470      TIP3     OH2      OT      -0.834000       15.9994           0
     20125 TIP3     470      TIP3     H1       HT       0.417000       1.00800           0
     20126 TIP3     470      TIP3     H2       HT       0.417000       1.00800           0
     20127 TIP3     471      TIP3     OH2      OT      -0.834000       15.9994           0
     20128 TIP3     471      TIP3     H1       HT       0.417000       1.00800           0
     20129 TIP3     471      TIP3     H2       HT       0.417000       1.00800           0
     20130 TIP3     472      TIP3     OH2      OT      -0.834000       15.9994           0
     20131 TIP3     472      TIP3     H1       HT       0.417000       1.00800           0
     20132 TIP3     472      TIP3     H2       HT       0.417000       1.00800           0
     20133 TIP3     473      TIP3     OH2      OT      -0.834000       15.9994           0
     20134 TIP3     473      TIP3     H1       HT       0.417000       1.00800           0
     20135 TIP3     473      TIP3     H2       HT       0.417000       1.00800           0
     20136 TIP3     474      TIP3     OH2      OT      -0.834000       15.9994           0
     20137 TIP3     474      TIP3     H1       HT       0.417000       1.00800           0
     20138 TIP3     474      TIP3     H2       HT       0.417000       1.00800           0
     20139 TIP3     475      TIP3     OH2      OT      -0.834000       15.9994           0
     20140 TIP3     475      TIP3     H1       HT       0.417000       1.00800           0
     20141 TIP3     475      TIP3     H2       HT       0.417000       1.00800           0
     20142 TIP3     476      TIP3     OH2      OT      -0.834000       15.9994           0
     20143 TIP3     476      TIP3     H1       HT       0.417000       1.00800           0
     20144 TIP3     476      TIP3     H2       HT       0.417000       1.00800           0
     20145 TIP3     477      TIP3     OH2      OT      -0.834000       15.9994           0
     20146 TIP3     477      TIP3     H1       HT       0.417000       1.00800           0
     20147 TIP3     477      TIP3     H2       HT       0.417000       1.00800           0
     20148 TIP3     478      TIP3     OH2      OT      -0.834000       15.9994           0
     20149 TIP3     478      TIP3     H1       HT       0.417000       1.00800           0
     20150 TIP3     478      TIP3     H2       HT       0.417000       1.00800           0
     20151 TIP3     479      TIP3     OH2      OT      -0.834000       15.9994           0
     20152 TIP3     479      TIP3     H1       HT       0.417000       1.00800           0
     20153 TIP3     479      TIP3     H2       HT       0.417000       1.00800           0
     20154 TIP3     480      TIP3     OH2      OT      -0.834000       15.9994           0
     20155 TIP3     480      TIP3     H1       HT       0.417000       1.00800           0
     20156 TIP3     480      TIP3     H2       HT       0.417000       1.00800           0
     20157 TIP3     481      TIP3     OH2      OT      -0.834000       15.9994           0
     20158 TIP3     481      TIP3     H1       HT       0.417000       1.00800           0
     20159 TIP3     481      TIP3     H2       HT       0.417000       1.00800           0
     20160 TIP3     482      TIP3     OH2      OT      -0.834000       15.9994           0
     20161 TIP3     482      TIP3     H1       HT       0.417000       1.00800           0
     20162 TIP3     482      TIP3     H2       HT       0.417000       1.00800           0
     20163 TIP3     483      TIP3     OH2      OT      -0.834000       15.9994           0
     20164 TIP3     483      TIP3     H1       HT       0.417000       1.00800           0
     20165 TIP3     483      TIP3     H2       HT       0.417000       1.00800           0
     20166 TIP3     484      TIP3     OH2      OT      -0.834000       15.9994           0
     20167 TIP3     484      TIP3     H1       HT       0.417000       1.00800           0
     20168 TIP3     484      TIP3     H2       HT       0.417000       1.00800           0
     20169 TIP3     485      TIP3     OH2      OT      -0.834000       15.9994           0
     20170 TIP3     485      TIP3     H1       HT       0.417000       1.00800           0
     20171 TIP3     485      TIP3     H2       HT       0.417000       1.00800           0
     20172 TIP3     486      TIP3     OH2      OT      -0.834000       15.9994           0
     20173 TIP3     486      TIP3     H1       HT       0.417000       1.00800           0
     20174 TIP3     486      TIP3     H2       HT       0.417000       1.00800           0
     20175 TIP3     487      TIP3     OH2      OT      -0.834000       15.9994           0
     20176 TIP3     487      TIP3     H1       HT       0.417000       1.00800           0
     20177 TIP3     487      TIP3     H2       HT       0.417000       1.00800           0
     20178 TIP3     488      TIP3     OH2      OT      -0.834000       15.9994           0
     20179 TIP3     488      TIP3     H1       HT       0.417000       1.00800           0
     20180 TIP3     488      TIP3     H2       HT       0.417000       1.00800           0
     20181 TIP3     489      TIP3     OH2      OT      -0.834000       15.9994           0
     20182 TIP3     489      TIP3     H1       HT       0.417000       1.00800           0
     20183 TIP3     489      TIP3     H2       HT       0.417000       1.00800           0
     20184 TIP3     490      TIP3     OH2      OT      -0.834000       15.9994           0
     20185 TIP3     490      TIP3     H1       HT       0.417000       1.00800           0
     20186 TIP3     490      TIP3     H2       HT       0.417000       1.00800           0
     20187 TIP3     491      TIP3     OH2      OT      -0.834000       15.9994           0
     20188 TIP3     491      TIP3     H1       HT       0.417000       1.00800           0
     20189 TIP3     491      TIP3     H2       HT       0.417000       1.00800           0
     20190 TIP3     492      TIP3     OH2      OT      -0.834000       15.9994           0
     20191 TIP3     492      TIP3     H1       HT       0.417000       1.00800           0
     20192 TIP3     492      TIP3     H2       HT       0.417000       1.00800           0
     20193 TIP3     493      TIP3     OH2      OT      -0.834000       15.9994           0
     20194 TIP3     493      TIP3     H1       HT       0.417000       1.00800           0
     20195 TIP3     493      TIP3     H2       HT       0.417000       1.00800           0
     20196 TIP3     494      TIP3     OH2      OT      -0.834000       15.9994           0
     20197 TIP3     494      TIP3     H1       HT       0.417000       1.00800           0
     20198 TIP3     494      TIP3     H2       HT       0.417000       1.00800           0
     20199 TIP3     495      TIP3     OH2      OT      -0.834000       15.9994           0
     20200 TIP3     495      TIP3     H1       HT       0.417000       1.00800           0
     20201 TIP3     495      TIP3     H2       HT       0.417000       1.00800           0
     20202 TIP3     496      TIP3     OH2      OT      -0.834000       15.9994           0
     20203 TIP3     496      TIP3     H1       HT       0.417000       1.00800           0
     20204 TIP3     496      TIP3     H2       HT       0.417000       1.00800           0
     20205 TIP3     497      TIP3     OH2      OT      -0.834000       15.9994           0
     20206 TIP3     497      TIP3     H1       HT       0.417000       1.00800           0
     20207 TIP3     497      TIP3     H2       HT       0.417000       1.00800           0
     20208 TIP3     498      TIP3     OH2      OT      -0.834000       15.9994           0
     20209 TIP3     498      TIP3     H1       HT       0.417000       1.00800           0
     20210 TIP3     498      TIP3     H2       HT       0.417000       1.00800           0
     20211 TIP3     499      TIP3     OH2      OT      -0.834000       15.9994           0
     20212 TIP3     499      TIP3     H1       HT       0.417000       1.00800           0
     20213 TIP3     499      TIP3     H2       HT       0.417000       1.00800           0
     20214 TIP3     500      TIP3     OH2      OT      -0.834000       15.9994           0
     20215 TIP3     500      TIP3     H1       HT       0.417000       1.00800           0
     20216 TIP3     500      TIP3     H2       HT       0.417000       1.00800           0
     20217 TIP3     501      TIP3     OH2      OT      -0.834000       15.9994           0
     20218 TIP3     501      TIP3     H1       HT       0.417000       1.00800           0
     20219 TIP3     501      TIP3     H2       HT       0.417000       1.00800           0
     20220 TIP3     502      TIP3     OH2      OT      -0.834000       15.9994           0
     20221 TIP3     502      TIP3     H1       HT       0.417000       1.00800           0
     20222 TIP3     502      TIP3     H2       HT       0.417000       1.00800           0
     20223 TIP3     503      TIP3     OH2      OT      -0.834000       15.9994           0
     20224 TIP3     503      TIP3     H1       HT       0.417000       1.00800           0
     20225 TIP3     503      TIP3     H2       HT       0.417000       1.00800           0
     20226 TIP3     504      TIP3     OH2      OT      -0.834000       15.9994           0
     20227 TIP3     504      TIP3     H1       HT       0.417000       1.00800           0
     20228 TIP3     504      TIP3     H2       HT       0.417000       1.00800           0
     20229 TIP3     505      TIP3     OH2      OT      -0.834000       15.9994           0
     20230 TIP3     505      TIP3     H1       HT       0.417000       1.00800           0
     20231 TIP3     505      TIP3     H2       HT       0.417000       1.00800           0
     20232 TIP3     506      TIP3     OH2      OT      -0.834000       15.9994           0
     20233 TIP3     506      TIP3     H1       HT       0.417000       1.00800           0
     20234 TIP3     506      TIP3     H2       HT       0.417000       1.00800           0
     20235 TIP3     507      TIP3     OH2      OT      -0.834000       15.9994           0
     20236 TIP3     507      TIP3     H1       HT       0.417000       1.00800           0
     20237 TIP3     507      TIP3     H2       HT       0.417000       1.00800           0
     20238 TIP3     508      TIP3     OH2      OT      -0.834000       15.9994           0
     20239 TIP3     508      TIP3     H1       HT       0.417000       1.00800           0
     20240 TIP3     508      TIP3     H2       HT       0.417000       1.00800           0
     20241 TIP3     509      TIP3     OH2      OT      -0.834000       15.9994           0
     20242 TIP3     509      TIP3     H1       HT       0.417000       1.00800           0
     20243 TIP3     509      TIP3     H2       HT       0.417000       1.00800           0
     20244 TIP3     510      TIP3     OH2      OT      -0.834000       15.9994           0
     20245 TIP3     510      TIP3     H1       HT       0.417000       1.00800           0
     20246 TIP3     510      TIP3     H2       HT       0.417000       1.00800           0
     20247 TIP3     511      TIP3     OH2      OT      -0.834000       15.9994           0
     20248 TIP3     511      TIP3     H1       HT       0.417000       1.00800           0
     20249 TIP3     511      TIP3     H2       HT       0.417000       1.00800           0
     20250 TIP3     512      TIP3     OH2      OT      -0.834000       15.9994           0
     20251 TIP3     512      TIP3     H1       HT       0.417000       1.00800           0
     20252 TIP3     512      TIP3     H2       HT       0.417000       1.00800           0
     20253 TIP3     513      TIP3     OH2      OT      -0.834000       15.9994           0
     20254 TIP3     513      TIP3     H1       HT       0.417000       1.00800           0
     20255 TIP3     513      TIP3     H2       HT       0.417000       1.00800           0
     20256 TIP3     514      TIP3     OH2      OT      -0.834000       15.9994           0
     20257 TIP3     514      TIP3     H1       HT       0.417000       1.00800           0
     20258 TIP3     514      TIP3     H2       HT       0.417000       1.00800           0
     20259 TIP3     515      TIP3     OH2      OT      -0.834000       15.9994           0
     20260 TIP3     515      TIP3     H1       HT       0.417000       1.00800           0
     20261 TIP3     515      TIP3     H2       HT       0.417000       1.00800           0
     20262 TIP3     516      TIP3     OH2      OT      -0.834000       15.9994           0
     20263 TIP3     516      TIP3     H1       HT       0.417000       1.00800           0
     20264 TIP3     516      TIP3     H2       HT       0.417000       1.00800           0
     20265 TIP3     517      TIP3     OH2      OT      -0.834000       15.9994           0
     20266 TIP3     517      TIP3     H1       HT       0.417000       1.00800           0
     20267 TIP3     517      TIP3     H2       HT       0.417000       1.00800           0
     20268 TIP3     518      TIP3     OH2      OT      -0.834000       15.9994           0
     20269 TIP3     518      TIP3     H1       HT       0.417000       1.00800           0
     20270 TIP3     518      TIP3     H2       HT       0.417000       1.00800           0
     20271 TIP3     519      TIP3     OH2      OT      -0.834000       15.9994           0
     20272 TIP3     519      TIP3     H1       HT       0.417000       1.00800           0
     20273 TIP3     519      TIP3     H2       HT       0.417000       1.00800           0
     20274 TIP3     520      TIP3     OH2      OT      -0.834000       15.9994           0
     20275 TIP3     520      TIP3     H1       HT       0.417000       1.00800           0
     20276 TIP3     520      TIP3     H2       HT       0.417000       1.00800           0
     20277 TIP3     521      TIP3     OH2      OT      -0.834000       15.9994           0
     20278 TIP3     521      TIP3     H1       HT       0.417000       1.00800           0
     20279 TIP3     521      TIP3     H2       HT       0.417000       1.00800           0
     20280 TIP3     522      TIP3     OH2      OT      -0.834000       15.9994           0
     20281 TIP3     522      TIP3     H1       HT       0.417000       1.00800           0
     20282 TIP3     522      TIP3     H2       HT       0.417000       1.00800           0
     20283 TIP3     523      TIP3     OH2      OT      -0.834000       15.9994           0
     20284 TIP3     523      TIP3     H1       HT       0.417000       1.00800           0
     20285 TIP3     523      TIP3     H2       HT       0.417000       1.00800           0
     20286 TIP3     524      TIP3     OH2      OT      -0.834000       15.9994           0
     20287 TIP3     524      TIP3     H1       HT       0.417000       1.00800           0
     20288 TIP3     524      TIP3     H2       HT       0.417000       1.00800           0
     20289 TIP3     525      TIP3     OH2      OT      -0.834000       15.9994           0
     20290 TIP3     525      TIP3     H1       HT       0.417000       1.00800           0
     20291 TIP3     525      TIP3     H2       HT       0.417000       1.00800           0
     20292 TIP3     526      TIP3     OH2      OT      -0.834000       15.9994           0
     20293 TIP3     526      TIP3     H1       HT       0.417000       1.00800           0
     20294 TIP3     526      TIP3     H2       HT       0.417000       1.00800           0
     20295 TIP3     527      TIP3     OH2      OT      -0.834000       15.9994           0
     20296 TIP3     527      TIP3     H1       HT       0.417000       1.00800           0
     20297 TIP3     527      TIP3     H2       HT       0.417000       1.00800           0
     20298 TIP3     528      TIP3     OH2      OT      -0.834000       15.9994           0
     20299 TIP3     528      TIP3     H1       HT       0.417000       1.00800           0
     20300 TIP3     528      TIP3     H2       HT       0.417000       1.00800           0
     20301 TIP3     529      TIP3     OH2      OT      -0.834000       15.9994           0
     20302 TIP3     529      TIP3     H1       HT       0.417000       1.00800           0
     20303 TIP3     529      TIP3     H2       HT       0.417000       1.00800           0
     20304 TIP3     530      TIP3     OH2      OT      -0.834000       15.9994           0
     20305 TIP3     530      TIP3     H1       HT       0.417000       1.00800           0
     20306 TIP3     530      TIP3     H2       HT       0.417000       1.00800           0
     20307 TIP3     531      TIP3     OH2      OT      -0.834000       15.9994           0
     20308 TIP3     531      TIP3     H1       HT       0.417000       1.00800           0
     20309 TIP3     531      TIP3     H2       HT       0.417000       1.00800           0
     20310 TIP3     532      TIP3     OH2      OT      -0.834000       15.9994           0
     20311 TIP3     532      TIP3     H1       HT       0.417000       1.00800           0
     20312 TIP3     532      TIP3     H2       HT       0.417000       1.00800           0
     20313 TIP3     533      TIP3     OH2      OT      -0.834000       15.9994           0
     20314 TIP3     533      TIP3     H1       HT       0.417000       1.00800           0
     20315 TIP3     533      TIP3     H2       HT       0.417000       1.00800           0
     20316 TIP3     534      TIP3     OH2      OT      -0.834000       15.9994           0
     20317 TIP3     534      TIP3     H1       HT       0.417000       1.00800           0
     20318 TIP3     534      TIP3     H2       HT       0.417000       1.00800           0
     20319 TIP3     535      TIP3     OH2      OT      -0.834000       15.9994           0
     20320 TIP3     535      TIP3     H1       HT       0.417000       1.00800           0
     20321 TIP3     535      TIP3     H2       HT       0.417000       1.00800           0
     20322 TIP3     536      TIP3     OH2      OT      -0.834000       15.9994           0
     20323 TIP3     536      TIP3     H1       HT       0.417000       1.00800           0
     20324 TIP3     536      TIP3     H2       HT       0.417000       1.00800           0
     20325 TIP3     537      TIP3     OH2      OT      -0.834000       15.9994           0
     20326 TIP3     537      TIP3     H1       HT       0.417000       1.00800           0
     20327 TIP3     537      TIP3     H2       HT       0.417000       1.00800           0
     20328 TIP3     538      TIP3     OH2      OT      -0.834000       15.9994           0
     20329 TIP3     538      TIP3     H1       HT       0.417000       1.00800           0
     20330 TIP3     538      TIP3     H2       HT       0.417000       1.00800           0
     20331 TIP3     539      TIP3     OH2      OT      -0.834000       15.9994           0
     20332 TIP3     539      TIP3     H1       HT       0.417000       1.00800           0
     20333 TIP3     539      TIP3     H2       HT       0.417000       1.00800           0
     20334 TIP3     540      TIP3     OH2      OT      -0.834000       15.9994           0
     20335 TIP3     540      TIP3     H1       HT       0.417000       1.00800           0
     20336 TIP3     540      TIP3     H2       HT       0.417000       1.00800           0
     20337 TIP3     541      TIP3     OH2      OT      -0.834000       15.9994           0
     20338 TIP3     541      TIP3     H1       HT       0.417000       1.00800           0
     20339 TIP3     541      TIP3     H2       HT       0.417000       1.00800           0
     20340 TIP3     542      TIP3     OH2      OT      -0.834000       15.9994           0
     20341 TIP3     542      TIP3     H1       HT       0.417000       1.00800           0
     20342 TIP3     542      TIP3     H2       HT       0.417000       1.00800           0
     20343 TIP3     543      TIP3     OH2      OT      -0.834000       15.9994           0
     20344 TIP3     543      TIP3     H1       HT       0.417000       1.00800           0
     20345 TIP3     543      TIP3     H2       HT       0.417000       1.00800           0
     20346 TIP3     544      TIP3     OH2      OT      -0.834000       15.9994           0
     20347 TIP3     544      TIP3     H1       HT       0.417000       1.00800           0
     20348 TIP3     544      TIP3     H2       HT       0.417000       1.00800           0
     20349 TIP3     545      TIP3     OH2      OT      -0.834000       15.9994           0
     20350 TIP3     545      TIP3     H1       HT       0.417000       1.00800           0
     20351 TIP3     545      TIP3     H2       HT       0.417000       1.00800           0
     20352 TIP3     546      TIP3     OH2      OT      -0.834000       15.9994           0
     20353 TIP3     546      TIP3     H1       HT       0.417000       1.00800           0
     20354 TIP3     546      TIP3     H2       HT       0.417000       1.00800           0
     20355 TIP3     547      TIP3     OH2      OT      -0.834000       15.9994           0
     20356 TIP3     547      TIP3     H1       HT       0.417000       1.00800           0
     20357 TIP3     547      TIP3     H2       HT       0.417000       1.00800           0
     20358 TIP3     548      TIP3     OH2      OT      -0.834000       15.9994           0
     20359 TIP3     548      TIP3     H1       HT       0.417000       1.00800           0
     20360 TIP3     548      TIP3     H2       HT       0.417000       1.00800           0
     20361 TIP3     549      TIP3     OH2      OT      -0.834000       15.9994           0
     20362 TIP3     549      TIP3     H1       HT       0.417000       1.00800           0
     20363 TIP3     549      TIP3     H2       HT       0.417000       1.00800           0
     20364 TIP3     550      TIP3     OH2      OT      -0.834000       15.9994           0
     20365 TIP3     550      TIP3     H1       HT       0.417000       1.00800           0
     20366 TIP3     550      TIP3     H2       HT       0.417000       1.00800           0
     20367 TIP3     551      TIP3     OH2      OT      -0.834000       15.9994           0
     20368 TIP3     551      TIP3     H1       HT       0.417000       1.00800           0
     20369 TIP3     551      TIP3     H2       HT       0.417000       1.00800           0
     20370 TIP3     552      TIP3     OH2      OT      -0.834000       15.9994           0
     20371 TIP3     552      TIP3     H1       HT       0.417000       1.00800           0
     20372 TIP3     552      TIP3     H2       HT       0.417000       1.00800           0
     20373 TIP3     553      TIP3     OH2      OT      -0.834000       15.9994           0
     20374 TIP3     553      TIP3     H1       HT       0.417000       1.00800           0
     20375 TIP3     553      TIP3     H2       HT       0.417000       1.00800           0
     20376 TIP3     554      TIP3     OH2      OT      -0.834000       15.9994           0
     20377 TIP3     554      TIP3     H1       HT       0.417000       1.00800           0
     20378 TIP3     554      TIP3     H2       HT       0.417000       1.00800           0
     20379 TIP3     555      TIP3     OH2      OT      -0.834000       15.9994           0
     20380 TIP3     555      TIP3     H1       HT       0.417000       1.00800           0
     20381 TIP3     555      TIP3     H2       HT       0.417000       1.00800           0
     20382 TIP3     556      TIP3     OH2      OT      -0.834000       15.9994           0
     20383 TIP3     556      TIP3     H1       HT       0.417000       1.00800           0
     20384 TIP3     556      TIP3     H2       HT       0.417000       1.00800           0
     20385 TIP3     557      TIP3     OH2      OT      -0.834000       15.9994           0
     20386 TIP3     557      TIP3     H1       HT       0.417000       1.00800           0
     20387 TIP3     557      TIP3     H2       HT       0.417000       1.00800           0
     20388 TIP3     558      TIP3     OH2      OT      -0.834000       15.9994           0
     20389 TIP3     558      TIP3     H1       HT       0.417000       1.00800           0
     20390 TIP3     558      TIP3     H2       HT       0.417000       1.00800           0
     20391 TIP3     559      TIP3     OH2      OT      -0.834000       15.9994           0
     20392 TIP3     559      TIP3     H1       HT       0.417000       1.00800           0
     20393 TIP3     559      TIP3     H2       HT       0.417000       1.00800           0
     20394 TIP3     560      TIP3     OH2      OT      -0.834000       15.9994           0
     20395 TIP3     560      TIP3     H1       HT       0.417000       1.00800           0
     20396 TIP3     560      TIP3     H2       HT       0.417000       1.00800           0
     20397 TIP3     561      TIP3     OH2      OT      -0.834000       15.9994           0
     20398 TIP3     561      TIP3     H1       HT       0.417000       1.00800           0
     20399 TIP3     561      TIP3     H2       HT       0.417000       1.00800           0
     20400 TIP3     562      TIP3     OH2      OT      -0.834000       15.9994           0
     20401 TIP3     562      TIP3     H1       HT       0.417000       1.00800           0
     20402 TIP3     562      TIP3     H2       HT       0.417000       1.00800           0
     20403 TIP3     563      TIP3     OH2      OT      -0.834000       15.9994           0
     20404 TIP3     563      TIP3     H1       HT       0.417000       1.00800           0
     20405 TIP3     563      TIP3     H2       HT       0.417000       1.00800           0
     20406 TIP3     564      TIP3     OH2      OT      -0.834000       15.9994           0
     20407 TIP3     564      TIP3     H1       HT       0.417000       1.00800           0
     20408 TIP3     564      TIP3     H2       HT       0.417000       1.00800           0
     20409 TIP3     565      TIP3     OH2      OT      -0.834000       15.9994           0
     20410 TIP3     565      TIP3     H1       HT       0.417000       1.00800           0
     20411 TIP3     565      TIP3     H2       HT       0.417000       1.00800           0
     20412 TIP3     566      TIP3     OH2      OT      -0.834000       15.9994           0
     20413 TIP3     566      TIP3     H1       HT       0.417000       1.00800           0
     20414 TIP3     566      TIP3     H2       HT       0.417000       1.00800           0
     20415 TIP3     567      TIP3     OH2      OT      -0.834000       15.9994           0
     20416 TIP3     567      TIP3     H1       HT       0.417000       1.00800           0
     20417 TIP3     567      TIP3     H2       HT       0.417000       1.00800           0
     20418 TIP3     568      TIP3     OH2      OT      -0.834000       15.9994           0
     20419 TIP3     568      TIP3     H1       HT       0.417000       1.00800           0
     20420 TIP3     568      TIP3     H2       HT       0.417000       1.00800           0
     20421 TIP3     569      TIP3     OH2      OT      -0.834000       15.9994           0
     20422 TIP3     569      TIP3     H1       HT       0.417000       1.00800           0
     20423 TIP3     569      TIP3     H2       HT       0.417000       1.00800           0
     20424 TIP3     570      TIP3     OH2      OT      -0.834000       15.9994           0
     20425 TIP3     570      TIP3     H1       HT       0.417000       1.00800           0
     20426 TIP3     570      TIP3     H2       HT       0.417000       1.00800           0
     20427 TIP3     571      TIP3     OH2      OT      -0.834000       15.9994           0
     20428 TIP3     571      TIP3     H1       HT       0.417000       1.00800           0
     20429 TIP3     571      TIP3     H2       HT       0.417000       1.00800           0
     20430 TIP3     572      TIP3     OH2      OT      -0.834000       15.9994           0
     20431 TIP3     572      TIP3     H1       HT       0.417000       1.00800           0
     20432 TIP3     572      TIP3     H2       HT       0.417000       1.00800           0
     20433 TIP3     573      TIP3     OH2      OT      -0.834000       15.9994           0
     20434 TIP3     573      TIP3     H1       HT       0.417000       1.00800           0
     20435 TIP3     573      TIP3     H2       HT       0.417000       1.00800           0
     20436 TIP3     574      TIP3     OH2      OT      -0.834000       15.9994           0
     20437 TIP3     574      TIP3     H1       HT       0.417000       1.00800           0
     20438 TIP3     574      TIP3     H2       HT       0.417000       1.00800           0
     20439 TIP3     575      TIP3     OH2      OT      -0.834000       15.9994           0
     20440 TIP3     575      TIP3     H1       HT       0.417000       1.00800           0
     20441 TIP3     575      TIP3     H2       HT       0.417000       1.00800           0
     20442 TIP3     576      TIP3     OH2      OT      -0.834000       15.9994           0
     20443 TIP3     576      TIP3     H1       HT       0.417000       1.00800           0
     20444 TIP3     576      TIP3     H2       HT       0.417000       1.00800           0
     20445 TIP3     577      TIP3     OH2      OT      -0.834000       15.9994           0
     20446 TIP3     577      TIP3     H1       HT       0.417000       1.00800           0
     20447 TIP3     577      TIP3     H2       HT       0.417000       1.00800           0
     20448 TIP3     578      TIP3     OH2      OT      -0.834000       15.9994           0
     20449 TIP3     578      TIP3     H1       HT       0.417000       1.00800           0
     20450 TIP3     578      TIP3     H2       HT       0.417000       1.00800           0
     20451 TIP3     579      TIP3     OH2      OT      -0.834000       15.9994           0
     20452 TIP3     579      TIP3     H1       HT       0.417000       1.00800           0
     20453 TIP3     579      TIP3     H2       HT       0.417000       1.00800           0
     20454 TIP3     580      TIP3     OH2      OT      -0.834000       15.9994           0
     20455 TIP3     580      TIP3     H1       HT       0.417000       1.00800           0
     20456 TIP3     580      TIP3     H2       HT       0.417000       1.00800           0
     20457 TIP3     581      TIP3     OH2      OT      -0.834000       15.9994           0
     20458 TIP3     581      TIP3     H1       HT       0.417000       1.00800           0
     20459 TIP3     581      TIP3     H2       HT       0.417000       1.00800           0
     20460 TIP3     582      TIP3     OH2      OT      -0.834000       15.9994           0
     20461 TIP3     582      TIP3     H1       HT       0.417000       1.00800           0
     20462 TIP3     582      TIP3     H2       HT       0.417000       1.00800           0
     20463 TIP3     583      TIP3     OH2      OT      -0.834000       15.9994           0
     20464 TIP3     583      TIP3     H1       HT       0.417000       1.00800           0
     20465 TIP3     583      TIP3     H2       HT       0.417000       1.00800           0
     20466 TIP3     584      TIP3     OH2      OT      -0.834000       15.9994           0
     20467 TIP3     584      TIP3     H1       HT       0.417000       1.00800           0
     20468 TIP3     584      TIP3     H2       HT       0.417000       1.00800           0
     20469 TIP3     585      TIP3     OH2      OT      -0.834000       15.9994           0
     20470 TIP3     585      TIP3     H1       HT       0.417000       1.00800           0
     20471 TIP3     585      TIP3     H2       HT       0.417000       1.00800           0
     20472 TIP3     586      TIP3     OH2      OT      -0.834000       15.9994           0
     20473 TIP3     586      TIP3     H1       HT       0.417000       1.00800           0
     20474 TIP3     586      TIP3     H2       HT       0.417000       1.00800           0
     20475 TIP3     587      TIP3     OH2      OT      -0.834000       15.9994           0
     20476 TIP3     587      TIP3     H1       HT       0.417000       1.00800           0
     20477 TIP3     587      TIP3     H2       HT       0.417000       1.00800           0
     20478 TIP3     588      TIP3     OH2      OT      -0.834000       15.9994           0
     20479 TIP3     588      TIP3     H1       HT       0.417000       1.00800           0
     20480 TIP3     588      TIP3     H2       HT       0.417000       1.00800           0
     20481 TIP3     589      TIP3     OH2      OT      -0.834000       15.9994           0
     20482 TIP3     589      TIP3     H1       HT       0.417000       1.00800           0
     20483 TIP3     589      TIP3     H2       HT       0.417000       1.00800           0
     20484 TIP3     590      TIP3     OH2      OT      -0.834000       15.9994           0
     20485 TIP3     590      TIP3     H1       HT       0.417000       1.00800           0
     20486 TIP3     590      TIP3     H2       HT       0.417000       1.00800           0
     20487 TIP3     591      TIP3     OH2      OT      -0.834000       15.9994           0
     20488 TIP3     591      TIP3     H1       HT       0.417000       1.00800           0
     20489 TIP3     591      TIP3     H2       HT       0.417000       1.00800           0
     20490 TIP3     592      TIP3     OH2      OT      -0.834000       15.9994           0
     20491 TIP3     592      TIP3     H1       HT       0.417000       1.00800           0
     20492 TIP3     592      TIP3     H2       HT       0.417000       1.00800           0
     20493 TIP3     593      TIP3     OH2      OT      -0.834000       15.9994           0
     20494 TIP3     593      TIP3     H1       HT       0.417000       1.00800           0
     20495 TIP3     593      TIP3     H2       HT       0.417000       1.00800           0
     20496 TIP3     594      TIP3     OH2      OT      -0.834000       15.9994           0
     20497 TIP3     594      TIP3     H1       HT       0.417000       1.00800           0
     20498 TIP3     594      TIP3     H2       HT       0.417000       1.00800           0
     20499 TIP3     595      TIP3     OH2      OT      -0.834000       15.9994           0
     20500 TIP3     595      TIP3     H1       HT       0.417000       1.00800           0
     20501 TIP3     595      TIP3     H2       HT       0.417000       1.00800           0
     20502 TIP3     596      TIP3     OH2      OT      -0.834000       15.9994           0
     20503 TIP3     596      TIP3     H1       HT       0.417000       1.00800           0
     20504 TIP3     596      TIP3     H2       HT       0.417000       1.00800           0
     20505 TIP3     597      TIP3     OH2      OT      -0.834000       15.9994           0
     20506 TIP3     597      TIP3     H1       HT       0.417000       1.00800           0
     20507 TIP3     597      TIP3     H2       HT       0.417000       1.00800           0
     20508 TIP3     598      TIP3     OH2      OT      -0.834000       15.9994           0
     20509 TIP3     598      TIP3     H1       HT       0.417000       1.00800           0
     20510 TIP3     598      TIP3     H2       HT       0.417000       1.00800           0
     20511 TIP3     599      TIP3     OH2      OT      -0.834000       15.9994           0
     20512 TIP3     599      TIP3     H1       HT       0.417000       1.00800           0
     20513 TIP3     599      TIP3     H2       HT       0.417000       1.00800           0
     20514 TIP3     600      TIP3     OH2      OT      -0.834000       15.9994           0
     20515 TIP3     600      TIP3     H1       HT       0.417000       1.00800           0
     20516 TIP3     600      TIP3     H2       HT       0.417000       1.00800           0
     20517 TIP3     601      TIP3     OH2      OT      -0.834000       15.9994           0
     20518 TIP3     601      TIP3     H1       HT       0.417000       1.00800           0
     20519 TIP3     601      TIP3     H2       HT       0.417000       1.00800           0
     20520 TIP3     602      TIP3     OH2      OT      -0.834000       15.9994           0
     20521 TIP3     602      TIP3     H1       HT       0.417000       1.00800           0
     20522 TIP3     602      TIP3     H2       HT       0.417000       1.00800           0
     20523 TIP3     603      TIP3     OH2      OT      -0.834000       15.9994           0
     20524 TIP3     603      TIP3     H1       HT       0.417000       1.00800           0
     20525 TIP3     603      TIP3     H2       HT       0.417000       1.00800           0
     20526 TIP3     604      TIP3     OH2      OT      -0.834000       15.9994           0
     20527 TIP3     604      TIP3     H1       HT       0.417000       1.00800           0
     20528 TIP3     604      TIP3     H2       HT       0.417000       1.00800           0
     20529 TIP3     605      TIP3     OH2      OT      -0.834000       15.9994           0
     20530 TIP3     605      TIP3     H1       HT       0.417000       1.00800           0
     20531 TIP3     605      TIP3     H2       HT       0.417000       1.00800           0
     20532 TIP3     606      TIP3     OH2      OT      -0.834000       15.9994           0
     20533 TIP3     606      TIP3     H1       HT       0.417000       1.00800           0
     20534 TIP3     606      TIP3     H2       HT       0.417000       1.00800           0
     20535 TIP3     607      TIP3     OH2      OT      -0.834000       15.9994           0
     20536 TIP3     607      TIP3     H1       HT       0.417000       1.00800           0
     20537 TIP3     607      TIP3     H2       HT       0.417000       1.00800           0
     20538 TIP3     608      TIP3     OH2      OT      -0.834000       15.9994           0
     20539 TIP3     608      TIP3     H1       HT       0.417000       1.00800           0
     20540 TIP3     608      TIP3     H2       HT       0.417000       1.00800           0
     20541 TIP3     609      TIP3     OH2      OT      -0.834000       15.9994           0
     20542 TIP3     609      TIP3     H1       HT       0.417000       1.00800           0
     20543 TIP3     609      TIP3     H2       HT       0.417000       1.00800           0
     20544 TIP3     610      TIP3     OH2      OT      -0.834000       15.9994           0
     20545 TIP3     610      TIP3     H1       HT       0.417000       1.00800           0
     20546 TIP3     610      TIP3     H2       HT       0.417000       1.00800           0
     20547 TIP3     611      TIP3     OH2      OT      -0.834000       15.9994           0
     20548 TIP3     611      TIP3     H1       HT       0.417000       1.00800           0
     20549 TIP3     611      TIP3     H2       HT       0.417000       1.00800           0
     20550 TIP3     612      TIP3     OH2      OT      -0.834000       15.9994           0
     20551 TIP3     612      TIP3     H1       HT       0.417000       1.00800           0
     20552 TIP3     612      TIP3     H2       HT       0.417000       1.00800           0
     20553 TIP3     613      TIP3     OH2      OT      -0.834000       15.9994           0
     20554 TIP3     613      TIP3     H1       HT       0.417000       1.00800           0
     20555 TIP3     613      TIP3     H2       HT       0.417000       1.00800           0
     20556 TIP3     614      TIP3     OH2      OT      -0.834000       15.9994           0
     20557 TIP3     614      TIP3     H1       HT       0.417000       1.00800           0
     20558 TIP3     614      TIP3     H2       HT       0.417000       1.00800           0
     20559 TIP3     615      TIP3     OH2      OT      -0.834000       15.9994           0
     20560 TIP3     615      TIP3     H1       HT       0.417000       1.00800           0
     20561 TIP3     615      TIP3     H2       HT       0.417000       1.00800           0
     20562 TIP3     616      TIP3     OH2      OT      -0.834000       15.9994           0
     20563 TIP3     616      TIP3     H1       HT       0.417000       1.00800           0
     20564 TIP3     616      TIP3     H2       HT       0.417000       1.00800           0
     20565 TIP3     617      TIP3     OH2      OT      -0.834000       15.9994           0
     20566 TIP3     617      TIP3     H1       HT       0.417000       1.00800           0
     20567 TIP3     617      TIP3     H2       HT       0.417000       1.00800           0
     20568 TIP3     618      TIP3     OH2      OT      -0.834000       15.9994           0
     20569 TIP3     618      TIP3     H1       HT       0.417000       1.00800           0
     20570 TIP3     618      TIP3     H2       HT       0.417000       1.00800           0
     20571 TIP3     619      TIP3     OH2      OT      -0.834000       15.9994           0
     20572 TIP3     619      TIP3     H1       HT       0.417000       1.00800           0
     20573 TIP3     619      TIP3     H2       HT       0.417000       1.00800           0
     20574 TIP3     620      TIP3     OH2      OT      -0.834000       15.9994           0
     20575 TIP3     620      TIP3     H1       HT       0.417000       1.00800           0
     20576 TIP3     620      TIP3     H2       HT       0.417000       1.00800           0
     20577 TIP3     621      TIP3     OH2      OT      -0.834000       15.9994           0
     20578 TIP3     621      TIP3     H1       HT       0.417000       1.00800           0
     20579 TIP3     621      TIP3     H2       HT       0.417000       1.00800           0
     20580 TIP3     622      TIP3     OH2      OT      -0.834000       15.9994           0
     20581 TIP3     622      TIP3     H1       HT       0.417000       1.00800           0
     20582 TIP3     622      TIP3     H2       HT       0.417000       1.00800           0
     20583 TIP3     623      TIP3     OH2      OT      -0.834000       15.9994           0
     20584 TIP3     623      TIP3     H1       HT       0.417000       1.00800           0
     20585 TIP3     623      TIP3     H2       HT       0.417000       1.00800           0
     20586 TIP3     624      TIP3     OH2      OT      -0.834000       15.9994           0
     20587 TIP3     624      TIP3     H1       HT       0.417000       1.00800           0
     20588 TIP3     624      TIP3     H2       HT       0.417000       1.00800           0
     20589 TIP3     625      TIP3     OH2      OT      -0.834000       15.9994           0
     20590 TIP3     625      TIP3     H1       HT       0.417000       1.00800           0
     20591 TIP3     625      TIP3     H2       HT       0.417000       1.00800           0
     20592 TIP3     626      TIP3     OH2      OT      -0.834000       15.9994           0
     20593 TIP3     626      TIP3     H1       HT       0.417000       1.00800           0
     20594 TIP3     626      TIP3     H2       HT       0.417000       1.00800           0
     20595 TIP3     627      TIP3     OH2      OT      -0.834000       15.9994           0
     20596 TIP3     627      TIP3     H1       HT       0.417000       1.00800           0
     20597 TIP3     627      TIP3     H2       HT       0.417000       1.00800           0
     20598 TIP3     628      TIP3     OH2      OT      -0.834000       15.9994           0
     20599 TIP3     628      TIP3     H1       HT       0.417000       1.00800           0
     20600 TIP3     628      TIP3     H2       HT       0.417000       1.00800           0
     20601 TIP3     629      TIP3     OH2      OT      -0.834000       15.9994           0
     20602 TIP3     629      TIP3     H1       HT       0.417000       1.00800           0
     20603 TIP3     629      TIP3     H2       HT       0.417000       1.00800           0
     20604 TIP3     630      TIP3     OH2      OT      -0.834000       15.9994           0
     20605 TIP3     630      TIP3     H1       HT       0.417000       1.00800           0
     20606 TIP3     630      TIP3     H2       HT       0.417000       1.00800           0
     20607 TIP3     631      TIP3     OH2      OT      -0.834000       15.9994           0
     20608 TIP3     631      TIP3     H1       HT       0.417000       1.00800           0
     20609 TIP3     631      TIP3     H2       HT       0.417000       1.00800           0
     20610 TIP3     632      TIP3     OH2      OT      -0.834000       15.9994           0
     20611 TIP3     632      TIP3     H1       HT       0.417000       1.00800           0
     20612 TIP3     632      TIP3     H2       HT       0.417000       1.00800           0
     20613 TIP3     633      TIP3     OH2      OT      -0.834000       15.9994           0
     20614 TIP3     633      TIP3     H1       HT       0.417000       1.00800           0
     20615 TIP3     633      TIP3     H2       HT       0.417000       1.00800           0
     20616 TIP3     634      TIP3     OH2      OT      -0.834000       15.9994           0
     20617 TIP3     634      TIP3     H1       HT       0.417000       1.00800           0
     20618 TIP3     634      TIP3     H2       HT       0.417000       1.00800           0
     20619 TIP3     635      TIP3     OH2      OT      -0.834000       15.9994           0
     20620 TIP3     635      TIP3     H1       HT       0.417000       1.00800           0
     20621 TIP3     635      TIP3     H2       HT       0.417000       1.00800           0
     20622 TIP3     636      TIP3     OH2      OT      -0.834000       15.9994           0
     20623 TIP3     636      TIP3     H1       HT       0.417000       1.00800           0
     20624 TIP3     636      TIP3     H2       HT       0.417000       1.00800           0
     20625 TIP3     637      TIP3     OH2      OT      -0.834000       15.9994           0
     20626 TIP3     637      TIP3     H1       HT       0.417000       1.00800           0
     20627 TIP3     637      TIP3     H2       HT       0.417000       1.00800           0
     20628 TIP3     638      TIP3     OH2      OT      -0.834000       15.9994           0
     20629 TIP3     638      TIP3     H1       HT       0.417000       1.00800           0
     20630 TIP3     638      TIP3     H2       HT       0.417000       1.00800           0
     20631 TIP3     639      TIP3     OH2      OT      -0.834000       15.9994           0
     20632 TIP3     639      TIP3     H1       HT       0.417000       1.00800           0
     20633 TIP3     639      TIP3     H2       HT       0.417000       1.00800           0
     20634 TIP3     640      TIP3     OH2      OT      -0.834000       15.9994           0
     20635 TIP3     640      TIP3     H1       HT       0.417000       1.00800           0
     20636 TIP3     640      TIP3     H2       HT       0.417000       1.00800           0
     20637 TIP3     641      TIP3     OH2      OT      -0.834000       15.9994           0
     20638 TIP3     641      TIP3     H1       HT       0.417000       1.00800           0
     20639 TIP3     641      TIP3     H2       HT       0.417000       1.00800           0
     20640 TIP3     642      TIP3     OH2      OT      -0.834000       15.9994           0
     20641 TIP3     642      TIP3     H1       HT       0.417000       1.00800           0
     20642 TIP3     642      TIP3     H2       HT       0.417000       1.00800           0
     20643 TIP3     643      TIP3     OH2      OT      -0.834000       15.9994           0
     20644 TIP3     643      TIP3     H1       HT       0.417000       1.00800           0
     20645 TIP3     643      TIP3     H2       HT       0.417000       1.00800           0
     20646 TIP3     644      TIP3     OH2      OT      -0.834000       15.9994           0
     20647 TIP3     644      TIP3     H1       HT       0.417000       1.00800           0
     20648 TIP3     644      TIP3     H2       HT       0.417000       1.00800           0
     20649 TIP3     645      TIP3     OH2      OT      -0.834000       15.9994           0
     20650 TIP3     645      TIP3     H1       HT       0.417000       1.00800           0
     20651 TIP3     645      TIP3     H2       HT       0.417000       1.00800           0
     20652 TIP3     646      TIP3     OH2      OT      -0.834000       15.9994           0
     20653 TIP3     646      TIP3     H1       HT       0.417000       1.00800           0
     20654 TIP3     646      TIP3     H2       HT       0.417000       1.00800           0
     20655 TIP3     647      TIP3     OH2      OT      -0.834000       15.9994           0
     20656 TIP3     647      TIP3     H1       HT       0.417000       1.00800           0
     20657 TIP3     647      TIP3     H2       HT       0.417000       1.00800           0
     20658 TIP3     648      TIP3     OH2      OT      -0.834000       15.9994           0
     20659 TIP3     648      TIP3     H1       HT       0.417000       1.00800           0
     20660 TIP3     648      TIP3     H2       HT       0.417000       1.00800           0
     20661 TIP3     649      TIP3     OH2      OT      -0.834000       15.9994           0
     20662 TIP3     649      TIP3     H1       HT       0.417000       1.00800           0
     20663 TIP3     649      TIP3     H2       HT       0.417000       1.00800           0
     20664 TIP3     650      TIP3     OH2      OT      -0.834000       15.9994           0
     20665 TIP3     650      TIP3     H1       HT       0.417000       1.00800           0
     20666 TIP3     650      TIP3     H2       HT       0.417000       1.00800           0
     20667 TIP3     651      TIP3     OH2      OT      -0.834000       15.9994           0
     20668 TIP3     651      TIP3     H1       HT       0.417000       1.00800           0
     20669 TIP3     651      TIP3     H2       HT       0.417000       1.00800           0
     20670 TIP3     652      TIP3     OH2      OT      -0.834000       15.9994           0
     20671 TIP3     652      TIP3     H1       HT       0.417000       1.00800           0
     20672 TIP3     652      TIP3     H2       HT       0.417000       1.00800           0
     20673 TIP3     653      TIP3     OH2      OT      -0.834000       15.9994           0
     20674 TIP3     653      TIP3     H1       HT       0.417000       1.00800           0
     20675 TIP3     653      TIP3     H2       HT       0.417000       1.00800           0
     20676 TIP3     654      TIP3     OH2      OT      -0.834000       15.9994           0
     20677 TIP3     654      TIP3     H1       HT       0.417000       1.00800           0
     20678 TIP3     654      TIP3     H2       HT       0.417000       1.00800           0
     20679 TIP3     655      TIP3     OH2      OT      -0.834000       15.9994           0
     20680 TIP3     655      TIP3     H1       HT       0.417000       1.00800           0
     20681 TIP3     655      TIP3     H2       HT       0.417000       1.00800           0
     20682 TIP3     656      TIP3     OH2      OT      -0.834000       15.9994           0
     20683 TIP3     656      TIP3     H1       HT       0.417000       1.00800           0
     20684 TIP3     656      TIP3     H2       HT       0.417000       1.00800           0
     20685 TIP3     657      TIP3     OH2      OT      -0.834000       15.9994           0
     20686 TIP3     657      TIP3     H1       HT       0.417000       1.00800           0
     20687 TIP3     657      TIP3     H2       HT       0.417000       1.00800           0
     20688 TIP3     658      TIP3     OH2      OT      -0.834000       15.9994           0
     20689 TIP3     658      TIP3     H1       HT       0.417000       1.00800           0
     20690 TIP3     658      TIP3     H2       HT       0.417000       1.00800           0
     20691 TIP3     659      TIP3     OH2      OT      -0.834000       15.9994           0
     20692 TIP3     659      TIP3     H1       HT       0.417000       1.00800           0
     20693 TIP3     659      TIP3     H2       HT       0.417000       1.00800           0
     20694 TIP3     660      TIP3     OH2      OT      -0.834000       15.9994           0
     20695 TIP3     660      TIP3     H1       HT       0.417000       1.00800           0
     20696 TIP3     660      TIP3     H2       HT       0.417000       1.00800           0
     20697 TIP3     661      TIP3     OH2      OT      -0.834000       15.9994           0
     20698 TIP3     661      TIP3     H1       HT       0.417000       1.00800           0
     20699 TIP3     661      TIP3     H2       HT       0.417000       1.00800           0
     20700 TIP3     662      TIP3     OH2      OT      -0.834000       15.9994           0
     20701 TIP3     662      TIP3     H1       HT       0.417000       1.00800           0
     20702 TIP3     662      TIP3     H2       HT       0.417000       1.00800           0
     20703 TIP3     663      TIP3     OH2      OT      -0.834000       15.9994           0
     20704 TIP3     663      TIP3     H1       HT       0.417000       1.00800           0
     20705 TIP3     663      TIP3     H2       HT       0.417000       1.00800           0
     20706 TIP3     664      TIP3     OH2      OT      -0.834000       15.9994           0
     20707 TIP3     664      TIP3     H1       HT       0.417000       1.00800           0
     20708 TIP3     664      TIP3     H2       HT       0.417000       1.00800           0
     20709 TIP3     665      TIP3     OH2      OT      -0.834000       15.9994           0
     20710 TIP3     665      TIP3     H1       HT       0.417000       1.00800           0
     20711 TIP3     665      TIP3     H2       HT       0.417000       1.00800           0
     20712 TIP3     666      TIP3     OH2      OT      -0.834000       15.9994           0
     20713 TIP3     666      TIP3     H1       HT       0.417000       1.00800           0
     20714 TIP3     666      TIP3     H2       HT       0.417000       1.00800           0
     20715 TIP3     667      TIP3     OH2      OT      -0.834000       15.9994           0
     20716 TIP3     667      TIP3     H1       HT       0.417000       1.00800           0
     20717 TIP3     667      TIP3     H2       HT       0.417000       1.00800           0
     20718 TIP3     668      TIP3     OH2      OT      -0.834000       15.9994           0
     20719 TIP3     668      TIP3     H1       HT       0.417000       1.00800           0
     20720 TIP3     668      TIP3     H2       HT       0.417000       1.00800           0
     20721 TIP3     669      TIP3     OH2      OT      -0.834000       15.9994           0
     20722 TIP3     669      TIP3     H1       HT       0.417000       1.00800           0
     20723 TIP3     669      TIP3     H2       HT       0.417000       1.00800           0
     20724 TIP3     670      TIP3     OH2      OT      -0.834000       15.9994           0
     20725 TIP3     670      TIP3     H1       HT       0.417000       1.00800           0
     20726 TIP3     670      TIP3     H2       HT       0.417000       1.00800           0
     20727 TIP3     671      TIP3     OH2      OT      -0.834000       15.9994           0
     20728 TIP3     671      TIP3     H1       HT       0.417000       1.00800           0
     20729 TIP3     671      TIP3     H2       HT       0.417000       1.00800           0
     20730 TIP3     672      TIP3     OH2      OT      -0.834000       15.9994           0
     20731 TIP3     672      TIP3     H1       HT       0.417000       1.00800           0
     20732 TIP3     672      TIP3     H2       HT       0.417000       1.00800           0
     20733 TIP3     673      TIP3     OH2      OT      -0.834000       15.9994           0
     20734 TIP3     673      TIP3     H1       HT       0.417000       1.00800           0
     20735 TIP3     673      TIP3     H2       HT       0.417000       1.00800           0
     20736 TIP3     674      TIP3     OH2      OT      -0.834000       15.9994           0
     20737 TIP3     674      TIP3     H1       HT       0.417000       1.00800           0
     20738 TIP3     674      TIP3     H2       HT       0.417000       1.00800           0
     20739 TIP3     675      TIP3     OH2      OT      -0.834000       15.9994           0
     20740 TIP3     675      TIP3     H1       HT       0.417000       1.00800           0
     20741 TIP3     675      TIP3     H2       HT       0.417000       1.00800           0
     20742 TIP3     676      TIP3     OH2      OT      -0.834000       15.9994           0
     20743 TIP3     676      TIP3     H1       HT       0.417000       1.00800           0
     20744 TIP3     676      TIP3     H2       HT       0.417000       1.00800           0
     20745 TIP3     677      TIP3     OH2      OT      -0.834000       15.9994           0
     20746 TIP3     677      TIP3     H1       HT       0.417000       1.00800           0
     20747 TIP3     677      TIP3     H2       HT       0.417000       1.00800           0
     20748 TIP3     678      TIP3     OH2      OT      -0.834000       15.9994           0
     20749 TIP3     678      TIP3     H1       HT       0.417000       1.00800           0
     20750 TIP3     678      TIP3     H2       HT       0.417000       1.00800           0
     20751 TIP3     679      TIP3     OH2      OT      -0.834000       15.9994           0
     20752 TIP3     679      TIP3     H1       HT       0.417000       1.00800           0
     20753 TIP3     679      TIP3     H2       HT       0.417000       1.00800           0
     20754 TIP3     680      TIP3     OH2      OT      -0.834000       15.9994           0
     20755 TIP3     680      TIP3     H1       HT       0.417000       1.00800           0
     20756 TIP3     680      TIP3     H2       HT       0.417000       1.00800           0
     20757 TIP3     681      TIP3     OH2      OT      -0.834000       15.9994           0
     20758 TIP3     681      TIP3     H1       HT       0.417000       1.00800           0
     20759 TIP3     681      TIP3     H2       HT       0.417000       1.00800           0
     20760 TIP3     682      TIP3     OH2      OT      -0.834000       15.9994           0
     20761 TIP3     682      TIP3     H1       HT       0.417000       1.00800           0
     20762 TIP3     682      TIP3     H2       HT       0.417000       1.00800           0
     20763 TIP3     683      TIP3     OH2      OT      -0.834000       15.9994           0
     20764 TIP3     683      TIP3     H1       HT       0.417000       1.00800           0
     20765 TIP3     683      TIP3     H2       HT       0.417000       1.00800           0
     20766 TIP3     684      TIP3     OH2      OT      -0.834000       15.9994           0
     20767 TIP3     684      TIP3     H1       HT       0.417000       1.00800           0
     20768 TIP3     684      TIP3     H2       HT       0.417000       1.00800           0
     20769 TIP3     685      TIP3     OH2      OT      -0.834000       15.9994           0
     20770 TIP3     685      TIP3     H1       HT       0.417000       1.00800           0
     20771 TIP3     685      TIP3     H2       HT       0.417000       1.00800           0
     20772 TIP3     686      TIP3     OH2      OT      -0.834000       15.9994           0
     20773 TIP3     686      TIP3     H1       HT       0.417000       1.00800           0
     20774 TIP3     686      TIP3     H2       HT       0.417000       1.00800           0
     20775 TIP3     687      TIP3     OH2      OT      -0.834000       15.9994           0
     20776 TIP3     687      TIP3     H1       HT       0.417000       1.00800           0
     20777 TIP3     687      TIP3     H2       HT       0.417000       1.00800           0
     20778 TIP3     688      TIP3     OH2      OT      -0.834000       15.9994           0
     20779 TIP3     688      TIP3     H1       HT       0.417000       1.00800           0
     20780 TIP3     688      TIP3     H2       HT       0.417000       1.00800           0
     20781 TIP3     689      TIP3     OH2      OT      -0.834000       15.9994           0
     20782 TIP3     689      TIP3     H1       HT       0.417000       1.00800           0
     20783 TIP3     689      TIP3     H2       HT       0.417000       1.00800           0
     20784 TIP3     690      TIP3     OH2      OT      -0.834000       15.9994           0
     20785 TIP3     690      TIP3     H1       HT       0.417000       1.00800           0
     20786 TIP3     690      TIP3     H2       HT       0.417000       1.00800           0
     20787 TIP3     691      TIP3     OH2      OT      -0.834000       15.9994           0
     20788 TIP3     691      TIP3     H1       HT       0.417000       1.00800           0
     20789 TIP3     691      TIP3     H2       HT       0.417000       1.00800           0
     20790 TIP3     692      TIP3     OH2      OT      -0.834000       15.9994           0
     20791 TIP3     692      TIP3     H1       HT       0.417000       1.00800           0
     20792 TIP3     692      TIP3     H2       HT       0.417000       1.00800           0
     20793 TIP3     693      TIP3     OH2      OT      -0.834000       15.9994           0
     20794 TIP3     693      TIP3     H1       HT       0.417000       1.00800           0
     20795 TIP3     693      TIP3     H2       HT       0.417000       1.00800           0
     20796 TIP3     694      TIP3     OH2      OT      -0.834000       15.9994           0
     20797 TIP3     694      TIP3     H1       HT       0.417000       1.00800           0
     20798 TIP3     694      TIP3     H2       HT       0.417000       1.00800           0
     20799 TIP3     695      TIP3     OH2      OT      -0.834000       15.9994           0
     20800 TIP3     695      TIP3     H1       HT       0.417000       1.00800           0
     20801 TIP3     695      TIP3     H2       HT       0.417000       1.00800           0
     20802 TIP3     696      TIP3     OH2      OT      -0.834000       15.9994           0
     20803 TIP3     696      TIP3     H1       HT       0.417000       1.00800           0
     20804 TIP3     696      TIP3     H2       HT       0.417000       1.00800           0
     20805 TIP3     697      TIP3     OH2      OT      -0.834000       15.9994           0
     20806 TIP3     697      TIP3     H1       HT       0.417000       1.00800           0
     20807 TIP3     697      TIP3     H2       HT       0.417000       1.00800           0
     20808 TIP3     698      TIP3     OH2      OT      -0.834000       15.9994           0
     20809 TIP3     698      TIP3     H1       HT       0.417000       1.00800           0
     20810 TIP3     698      TIP3     H2       HT       0.417000       1.00800           0
     20811 TIP3     699      TIP3     OH2      OT      -0.834000       15.9994           0
     20812 TIP3     699      TIP3     H1       HT       0.417000       1.00800           0
     20813 TIP3     699      TIP3     H2       HT       0.417000       1.00800           0
     20814 TIP3     700      TIP3     OH2      OT      -0.834000       15.9994           0
     20815 TIP3     700      TIP3     H1       HT       0.417000       1.00800           0
     20816 TIP3     700      TIP3     H2       HT       0.417000       1.00800           0
     20817 TIP3     701      TIP3     OH2      OT      -0.834000       15.9994           0
     20818 TIP3     701      TIP3     H1       HT       0.417000       1.00800           0
     20819 TIP3     701      TIP3     H2       HT       0.417000       1.00800           0
     20820 TIP3     702      TIP3     OH2      OT      -0.834000       15.9994           0
     20821 TIP3     702      TIP3     H1       HT       0.417000       1.00800           0
     20822 TIP3     702      TIP3     H2       HT       0.417000       1.00800           0
     20823 TIP3     703      TIP3     OH2      OT      -0.834000       15.9994           0
     20824 TIP3     703      TIP3     H1       HT       0.417000       1.00800           0
     20825 TIP3     703      TIP3     H2       HT       0.417000       1.00800           0
     20826 TIP3     704      TIP3     OH2      OT      -0.834000       15.9994           0
     20827 TIP3     704      TIP3     H1       HT       0.417000       1.00800           0
     20828 TIP3     704      TIP3     H2       HT       0.417000       1.00800           0
     20829 TIP3     705      TIP3     OH2      OT      -0.834000       15.9994           0
     20830 TIP3     705      TIP3     H1       HT       0.417000       1.00800           0
     20831 TIP3     705      TIP3     H2       HT       0.417000       1.00800           0
     20832 TIP3     706      TIP3     OH2      OT      -0.834000       15.9994           0
     20833 TIP3     706      TIP3     H1       HT       0.417000       1.00800           0
     20834 TIP3     706      TIP3     H2       HT       0.417000       1.00800           0
     20835 TIP3     707      TIP3     OH2      OT      -0.834000       15.9994           0
     20836 TIP3     707      TIP3     H1       HT       0.417000       1.00800           0
     20837 TIP3     707      TIP3     H2       HT       0.417000       1.00800           0
     20838 TIP3     708      TIP3     OH2      OT      -0.834000       15.9994           0
     20839 TIP3     708      TIP3     H1       HT       0.417000       1.00800           0
     20840 TIP3     708      TIP3     H2       HT       0.417000       1.00800           0
     20841 TIP3     709      TIP3     OH2      OT      -0.834000       15.9994           0
     20842 TIP3     709      TIP3     H1       HT       0.417000       1.00800           0
     20843 TIP3     709      TIP3     H2       HT       0.417000       1.00800           0
     20844 TIP3     710      TIP3     OH2      OT      -0.834000       15.9994           0
     20845 TIP3     710      TIP3     H1       HT       0.417000       1.00800           0
     20846 TIP3     710      TIP3     H2       HT       0.417000       1.00800           0
     20847 TIP3     711      TIP3     OH2      OT      -0.834000       15.9994           0
     20848 TIP3     711      TIP3     H1       HT       0.417000       1.00800           0
     20849 TIP3     711      TIP3     H2       HT       0.417000       1.00800           0
     20850 TIP3     712      TIP3     OH2      OT      -0.834000       15.9994           0
     20851 TIP3     712      TIP3     H1       HT       0.417000       1.00800           0
     20852 TIP3     712      TIP3     H2       HT       0.417000       1.00800           0
     20853 TIP3     713      TIP3     OH2      OT      -0.834000       15.9994           0
     20854 TIP3     713      TIP3     H1       HT       0.417000       1.00800           0
     20855 TIP3     713      TIP3     H2       HT       0.417000       1.00800           0
     20856 TIP3     714      TIP3     OH2      OT      -0.834000       15.9994           0
     20857 TIP3     714      TIP3     H1       HT       0.417000       1.00800           0
     20858 TIP3     714      TIP3     H2       HT       0.417000       1.00800           0
     20859 TIP3     715      TIP3     OH2      OT      -0.834000       15.9994           0
     20860 TIP3     715      TIP3     H1       HT       0.417000       1.00800           0
     20861 TIP3     715      TIP3     H2       HT       0.417000       1.00800           0
     20862 TIP3     716      TIP3     OH2      OT      -0.834000       15.9994           0
     20863 TIP3     716      TIP3     H1       HT       0.417000       1.00800           0
     20864 TIP3     716      TIP3     H2       HT       0.417000       1.00800           0
     20865 TIP3     717      TIP3     OH2      OT      -0.834000       15.9994           0
     20866 TIP3     717      TIP3     H1       HT       0.417000       1.00800           0
     20867 TIP3     717      TIP3     H2       HT       0.417000       1.00800           0
     20868 TIP3     718      TIP3     OH2      OT      -0.834000       15.9994           0
     20869 TIP3     718      TIP3     H1       HT       0.417000       1.00800           0
     20870 TIP3     718      TIP3     H2       HT       0.417000       1.00800           0
     20871 TIP3     719      TIP3     OH2      OT      -0.834000       15.9994           0
     20872 TIP3     719      TIP3     H1       HT       0.417000       1.00800           0
     20873 TIP3     719      TIP3     H2       HT       0.417000       1.00800           0
     20874 TIP3     720      TIP3     OH2      OT      -0.834000       15.9994           0
     20875 TIP3     720      TIP3     H1       HT       0.417000       1.00800           0
     20876 TIP3     720      TIP3     H2       HT       0.417000       1.00800           0
     20877 TIP3     721      TIP3     OH2      OT      -0.834000       15.9994           0
     20878 TIP3     721      TIP3     H1       HT       0.417000       1.00800           0
     20879 TIP3     721      TIP3     H2       HT       0.417000       1.00800           0
     20880 TIP3     722      TIP3     OH2      OT      -0.834000       15.9994           0
     20881 TIP3     722      TIP3     H1       HT       0.417000       1.00800           0
     20882 TIP3     722      TIP3     H2       HT       0.417000       1.00800           0
     20883 TIP3     723      TIP3     OH2      OT      -0.834000       15.9994           0
     20884 TIP3     723      TIP3     H1       HT       0.417000       1.00800           0
     20885 TIP3     723      TIP3     H2       HT       0.417000       1.00800           0
     20886 TIP3     724      TIP3     OH2      OT      -0.834000       15.9994           0
     20887 TIP3     724      TIP3     H1       HT       0.417000       1.00800           0
     20888 TIP3     724      TIP3     H2       HT       0.417000       1.00800           0
     20889 TIP3     725      TIP3     OH2      OT      -0.834000       15.9994           0
     20890 TIP3     725      TIP3     H1       HT       0.417000       1.00800           0
     20891 TIP3     725      TIP3     H2       HT       0.417000       1.00800           0
     20892 TIP3     726      TIP3     OH2      OT      -0.834000       15.9994           0
     20893 TIP3     726      TIP3     H1       HT       0.417000       1.00800           0
     20894 TIP3     726      TIP3     H2       HT       0.417000       1.00800           0
     20895 TIP3     727      TIP3     OH2      OT      -0.834000       15.9994           0
     20896 TIP3     727      TIP3     H1       HT       0.417000       1.00800           0
     20897 TIP3     727      TIP3     H2       HT       0.417000       1.00800           0
     20898 TIP3     728      TIP3     OH2      OT      -0.834000       15.9994           0
     20899 TIP3     728      TIP3     H1       HT       0.417000       1.00800           0
     20900 TIP3     728      TIP3     H2       HT       0.417000       1.00800           0
     20901 TIP3     729      TIP3     OH2      OT      -0.834000       15.9994           0
     20902 TIP3     729      TIP3     H1       HT       0.417000       1.00800           0
     20903 TIP3     729      TIP3     H2       HT       0.417000       1.00800           0
     20904 TIP3     730      TIP3     OH2      OT      -0.834000       15.9994           0
     20905 TIP3     730      TIP3     H1       HT       0.417000       1.00800           0
     20906 TIP3     730      TIP3     H2       HT       0.417000       1.00800           0
     20907 TIP3     731      TIP3     OH2      OT      -0.834000       15.9994           0
     20908 TIP3     731      TIP3     H1       HT       0.417000       1.00800           0
     20909 TIP3     731      TIP3     H2       HT       0.417000       1.00800           0
     20910 TIP3     732      TIP3     OH2      OT      -0.834000       15.9994           0
     20911 TIP3     732      TIP3     H1       HT       0.417000       1.00800           0
     20912 TIP3     732      TIP3     H2       HT       0.417000       1.00800           0
     20913 TIP3     733      TIP3     OH2      OT      -0.834000       15.9994           0
     20914 TIP3     733      TIP3     H1       HT       0.417000       1.00800           0
     20915 TIP3     733      TIP3     H2       HT       0.417000       1.00800           0
     20916 TIP3     734      TIP3     OH2      OT      -0.834000       15.9994           0
     20917 TIP3     734      TIP3     H1       HT       0.417000       1.00800           0
     20918 TIP3     734      TIP3     H2       HT       0.417000       1.00800           0
     20919 TIP3     735      TIP3     OH2      OT      -0.834000       15.9994           0
     20920 TIP3     735      TIP3     H1       HT       0.417000       1.00800           0
     20921 TIP3     735      TIP3     H2       HT       0.417000       1.00800           0
     20922 TIP3     736      TIP3     OH2      OT      -0.834000       15.9994           0
     20923 TIP3     736      TIP3     H1       HT       0.417000       1.00800           0
     20924 TIP3     736      TIP3     H2       HT       0.417000       1.00800           0
     20925 TIP3     737      TIP3     OH2      OT      -0.834000       15.9994           0
     20926 TIP3     737      TIP3     H1       HT       0.417000       1.00800           0
     20927 TIP3     737      TIP3     H2       HT       0.417000       1.00800           0
     20928 TIP3     738      TIP3     OH2      OT      -0.834000       15.9994           0
     20929 TIP3     738      TIP3     H1       HT       0.417000       1.00800           0
     20930 TIP3     738      TIP3     H2       HT       0.417000       1.00800           0
     20931 TIP3     739      TIP3     OH2      OT      -0.834000       15.9994           0
     20932 TIP3     739      TIP3     H1       HT       0.417000       1.00800           0
     20933 TIP3     739      TIP3     H2       HT       0.417000       1.00800           0
     20934 TIP3     740      TIP3     OH2      OT      -0.834000       15.9994           0
     20935 TIP3     740      TIP3     H1       HT       0.417000       1.00800           0
     20936 TIP3     740      TIP3     H2       HT       0.417000       1.00800           0
     20937 TIP3     741      TIP3     OH2      OT      -0.834000       15.9994           0
     20938 TIP3     741      TIP3     H1       HT       0.417000       1.00800           0
     20939 TIP3     741      TIP3     H2       HT       0.417000       1.00800           0
     20940 TIP3     742      TIP3     OH2      OT      -0.834000       15.9994           0
     20941 TIP3     742      TIP3     H1       HT       0.417000       1.00800           0
     20942 TIP3     742      TIP3     H2       HT       0.417000       1.00800           0
     20943 TIP3     743      TIP3     OH2      OT      -0.834000       15.9994           0
     20944 TIP3     743      TIP3     H1       HT       0.417000       1.00800           0
     20945 TIP3     743      TIP3     H2       HT       0.417000       1.00800           0
     20946 TIP3     744      TIP3     OH2      OT      -0.834000       15.9994           0
     20947 TIP3     744      TIP3     H1       HT       0.417000       1.00800           0
     20948 TIP3     744      TIP3     H2       HT       0.417000       1.00800           0
     20949 TIP3     745      TIP3     OH2      OT      -0.834000       15.9994           0
     20950 TIP3     745      TIP3     H1       HT       0.417000       1.00800           0
     20951 TIP3     745      TIP3     H2       HT       0.417000       1.00800           0
     20952 TIP3     746      TIP3     OH2      OT      -0.834000       15.9994           0
     20953 TIP3     746      TIP3     H1       HT       0.417000       1.00800           0
     20954 TIP3     746      TIP3     H2       HT       0.417000       1.00800           0
     20955 TIP3     747      TIP3     OH2      OT      -0.834000       15.9994           0
     20956 TIP3     747      TIP3     H1       HT       0.417000       1.00800           0
     20957 TIP3     747      TIP3     H2       HT       0.417000       1.00800           0
     20958 TIP3     748      TIP3     OH2      OT      -0.834000       15.9994           0
     20959 TIP3     748      TIP3     H1       HT       0.417000       1.00800           0
     20960 TIP3     748      TIP3     H2       HT       0.417000       1.00800           0
     20961 TIP3     749      TIP3     OH2      OT      -0.834000       15.9994           0
     20962 TIP3     749      TIP3     H1       HT       0.417000       1.00800           0
     20963 TIP3     749      TIP3     H2       HT       0.417000       1.00800           0
     20964 TIP3     750      TIP3     OH2      OT      -0.834000       15.9994           0
     20965 TIP3     750      TIP3     H1       HT       0.417000       1.00800           0
     20966 TIP3     750      TIP3     H2       HT       0.417000       1.00800           0
     20967 TIP3     751      TIP3     OH2      OT      -0.834000       15.9994           0
     20968 TIP3     751      TIP3     H1       HT       0.417000       1.00800           0
     20969 TIP3     751      TIP3     H2       HT       0.417000       1.00800           0
     20970 TIP3     752      TIP3     OH2      OT      -0.834000       15.9994           0
     20971 TIP3     752      TIP3     H1       HT       0.417000       1.00800           0
     20972 TIP3     752      TIP3     H2       HT       0.417000       1.00800           0
     20973 TIP3     753      TIP3     OH2      OT      -0.834000       15.9994           0
     20974 TIP3     753      TIP3     H1       HT       0.417000       1.00800           0
     20975 TIP3     753      TIP3     H2       HT       0.417000       1.00800           0
     20976 TIP3     754      TIP3     OH2      OT      -0.834000       15.9994           0
     20977 TIP3     754      TIP3     H1       HT       0.417000       1.00800           0
     20978 TIP3     754      TIP3     H2       HT       0.417000       1.00800           0
     20979 TIP3     755      TIP3     OH2      OT      -0.834000       15.9994           0
     20980 TIP3     755      TIP3     H1       HT       0.417000       1.00800           0
     20981 TIP3     755      TIP3     H2       HT       0.417000       1.00800           0
     20982 TIP3     756      TIP3     OH2      OT      -0.834000       15.9994           0
     20983 TIP3     756      TIP3     H1       HT       0.417000       1.00800           0
     20984 TIP3     756      TIP3     H2       HT       0.417000       1.00800           0
     20985 TIP3     757      TIP3     OH2      OT      -0.834000       15.9994           0
     20986 TIP3     757      TIP3     H1       HT       0.417000       1.00800           0
     20987 TIP3     757      TIP3     H2       HT       0.417000       1.00800           0
     20988 TIP3     758      TIP3     OH2      OT      -0.834000       15.9994           0
     20989 TIP3     758      TIP3     H1       HT       0.417000       1.00800           0
     20990 TIP3     758      TIP3     H2       HT       0.417000       1.00800           0
     20991 TIP3     759      TIP3     OH2      OT      -0.834000       15.9994           0
     20992 TIP3     759      TIP3     H1       HT       0.417000       1.00800           0
     20993 TIP3     759      TIP3     H2       HT       0.417000       1.00800           0
     20994 TIP3     760      TIP3     OH2      OT      -0.834000       15.9994           0
     20995 TIP3     760      TIP3     H1       HT       0.417000       1.00800           0
     20996 TIP3     760      TIP3     H2       HT       0.417000       1.00800           0
     20997 TIP3     761      TIP3     OH2      OT      -0.834000       15.9994           0
     20998 TIP3     761      TIP3     H1       HT       0.417000       1.00800           0
     20999 TIP3     761      TIP3     H2       HT       0.417000       1.00800           0
     21000 TIP3     762      TIP3     OH2      OT      -0.834000       15.9994           0
     21001 TIP3     762      TIP3     H1       HT       0.417000       1.00800           0
     21002 TIP3     762      TIP3     H2       HT       0.417000       1.00800           0
     21003 TIP3     763      TIP3     OH2      OT      -0.834000       15.9994           0
     21004 TIP3     763      TIP3     H1       HT       0.417000       1.00800           0
     21005 TIP3     763      TIP3     H2       HT       0.417000       1.00800           0
     21006 TIP3     764      TIP3     OH2      OT      -0.834000       15.9994           0
     21007 TIP3     764      TIP3     H1       HT       0.417000       1.00800           0
     21008 TIP3     764      TIP3     H2       HT       0.417000       1.00800           0
     21009 TIP3     765      TIP3     OH2      OT      -0.834000       15.9994           0
     21010 TIP3     765      TIP3     H1       HT       0.417000       1.00800           0
     21011 TIP3     765      TIP3     H2       HT       0.417000       1.00800           0
     21012 TIP3     766      TIP3     OH2      OT      -0.834000       15.9994           0
     21013 TIP3     766      TIP3     H1       HT       0.417000       1.00800           0
     21014 TIP3     766      TIP3     H2       HT       0.417000       1.00800           0
     21015 TIP3     767      TIP3     OH2      OT      -0.834000       15.9994           0
     21016 TIP3     767      TIP3     H1       HT       0.417000       1.00800           0
     21017 TIP3     767      TIP3     H2       HT       0.417000       1.00800           0
     21018 TIP3     768      TIP3     OH2      OT      -0.834000       15.9994           0
     21019 TIP3     768      TIP3     H1       HT       0.417000       1.00800           0
     21020 TIP3     768      TIP3     H2       HT       0.417000       1.00800           0
     21021 TIP3     769      TIP3     OH2      OT      -0.834000       15.9994           0
     21022 TIP3     769      TIP3     H1       HT       0.417000       1.00800           0
     21023 TIP3     769      TIP3     H2       HT       0.417000       1.00800           0
     21024 TIP3     770      TIP3     OH2      OT      -0.834000       15.9994           0
     21025 TIP3     770      TIP3     H1       HT       0.417000       1.00800           0
     21026 TIP3     770      TIP3     H2       HT       0.417000       1.00800           0
     21027 TIP3     771      TIP3     OH2      OT      -0.834000       15.9994           0
     21028 TIP3     771      TIP3     H1       HT       0.417000       1.00800           0
     21029 TIP3     771      TIP3     H2       HT       0.417000       1.00800           0
     21030 TIP3     772      TIP3     OH2      OT      -0.834000       15.9994           0
     21031 TIP3     772      TIP3     H1       HT       0.417000       1.00800           0
     21032 TIP3     772      TIP3     H2       HT       0.417000       1.00800           0
     21033 TIP3     773      TIP3     OH2      OT      -0.834000       15.9994           0
     21034 TIP3     773      TIP3     H1       HT       0.417000       1.00800           0
     21035 TIP3     773      TIP3     H2       HT       0.417000       1.00800           0
     21036 TIP3     774      TIP3     OH2      OT      -0.834000       15.9994           0
     21037 TIP3     774      TIP3     H1       HT       0.417000       1.00800           0
     21038 TIP3     774      TIP3     H2       HT       0.417000       1.00800           0
     21039 TIP3     775      TIP3     OH2      OT      -0.834000       15.9994           0
     21040 TIP3     775      TIP3     H1       HT       0.417000       1.00800           0
     21041 TIP3     775      TIP3     H2       HT       0.417000       1.00800           0
     21042 TIP3     776      TIP3     OH2      OT      -0.834000       15.9994           0
     21043 TIP3     776      TIP3     H1       HT       0.417000       1.00800           0
     21044 TIP3     776      TIP3     H2       HT       0.417000       1.00800           0
     21045 TIP3     777      TIP3     OH2      OT      -0.834000       15.9994           0
     21046 TIP3     777      TIP3     H1       HT       0.417000       1.00800           0
     21047 TIP3     777      TIP3     H2       HT       0.417000       1.00800           0
     21048 TIP3     778      TIP3     OH2      OT      -0.834000       15.9994           0
     21049 TIP3     778      TIP3     H1       HT       0.417000       1.00800           0
     21050 TIP3     778      TIP3     H2       HT       0.417000       1.00800           0
     21051 TIP3     779      TIP3     OH2      OT      -0.834000       15.9994           0
     21052 TIP3     779      TIP3     H1       HT       0.417000       1.00800           0
     21053 TIP3     779      TIP3     H2       HT       0.417000       1.00800           0
     21054 TIP3     780      TIP3     OH2      OT      -0.834000       15.9994           0
     21055 TIP3     780      TIP3     H1       HT       0.417000       1.00800           0
     21056 TIP3     780      TIP3     H2       HT       0.417000       1.00800           0
     21057 TIP3     781      TIP3     OH2      OT      -0.834000       15.9994           0
     21058 TIP3     781      TIP3     H1       HT       0.417000       1.00800           0
     21059 TIP3     781      TIP3     H2       HT       0.417000       1.00800           0
     21060 TIP3     782      TIP3     OH2      OT      -0.834000       15.9994           0
     21061 TIP3     782      TIP3     H1       HT       0.417000       1.00800           0
     21062 TIP3     782      TIP3     H2       HT       0.417000       1.00800           0
     21063 TIP3     783      TIP3     OH2      OT      -0.834000       15.9994           0
     21064 TIP3     783      TIP3     H1       HT       0.417000       1.00800           0
     21065 TIP3     783      TIP3     H2       HT       0.417000       1.00800           0
     21066 TIP3     784      TIP3     OH2      OT      -0.834000       15.9994           0
     21067 TIP3     784      TIP3     H1       HT       0.417000       1.00800           0
     21068 TIP3     784      TIP3     H2       HT       0.417000       1.00800           0
     21069 TIP3     785      TIP3     OH2      OT      -0.834000       15.9994           0
     21070 TIP3     785      TIP3     H1       HT       0.417000       1.00800           0
     21071 TIP3     785      TIP3     H2       HT       0.417000       1.00800           0
     21072 TIP3     786      TIP3     OH2      OT      -0.834000       15.9994           0
     21073 TIP3     786      TIP3     H1       HT       0.417000       1.00800           0
     21074 TIP3     786      TIP3     H2       HT       0.417000       1.00800           0
     21075 TIP3     787      TIP3     OH2      OT      -0.834000       15.9994           0
     21076 TIP3     787      TIP3     H1       HT       0.417000       1.00800           0
     21077 TIP3     787      TIP3     H2       HT       0.417000       1.00800           0
     21078 TIP3     788      TIP3     OH2      OT      -0.834000       15.9994           0
     21079 TIP3     788      TIP3     H1       HT       0.417000       1.00800           0
     21080 TIP3     788      TIP3     H2       HT       0.417000       1.00800           0
     21081 TIP3     789      TIP3     OH2      OT      -0.834000       15.9994           0
     21082 TIP3     789      TIP3     H1       HT       0.417000       1.00800           0
     21083 TIP3     789      TIP3     H2       HT       0.417000       1.00800           0
     21084 TIP3     790      TIP3     OH2      OT      -0.834000       15.9994           0
     21085 TIP3     790      TIP3     H1       HT       0.417000       1.00800           0
     21086 TIP3     790      TIP3     H2       HT       0.417000       1.00800           0
     21087 TIP3     791      TIP3     OH2      OT      -0.834000       15.9994           0
     21088 TIP3     791      TIP3     H1       HT       0.417000       1.00800           0
     21089 TIP3     791      TIP3     H2       HT       0.417000       1.00800           0
     21090 TIP3     792      TIP3     OH2      OT      -0.834000       15.9994           0
     21091 TIP3     792      TIP3     H1       HT       0.417000       1.00800           0
     21092 TIP3     792      TIP3     H2       HT       0.417000       1.00800           0
     21093 TIP3     793      TIP3     OH2      OT      -0.834000       15.9994           0
     21094 TIP3     793      TIP3     H1       HT       0.417000       1.00800           0
     21095 TIP3     793      TIP3     H2       HT       0.417000       1.00800           0
     21096 TIP3     794      TIP3     OH2      OT      -0.834000       15.9994           0
     21097 TIP3     794      TIP3     H1       HT       0.417000       1.00800           0
     21098 TIP3     794      TIP3     H2       HT       0.417000       1.00800           0
     21099 TIP3     795      TIP3     OH2      OT      -0.834000       15.9994           0
     21100 TIP3     795      TIP3     H1       HT       0.417000       1.00800           0
     21101 TIP3     795      TIP3     H2       HT       0.417000       1.00800           0
     21102 TIP3     796      TIP3     OH2      OT      -0.834000       15.9994           0
     21103 TIP3     796      TIP3     H1       HT       0.417000       1.00800           0
     21104 TIP3     796      TIP3     H2       HT       0.417000       1.00800           0
     21105 TIP3     797      TIP3     OH2      OT      -0.834000       15.9994           0
     21106 TIP3     797      TIP3     H1       HT       0.417000       1.00800           0
     21107 TIP3     797      TIP3     H2       HT       0.417000       1.00800           0
     21108 TIP3     798      TIP3     OH2      OT      -0.834000       15.9994           0
     21109 TIP3     798      TIP3     H1       HT       0.417000       1.00800           0
     21110 TIP3     798      TIP3     H2       HT       0.417000       1.00800           0
     21111 TIP3     799      TIP3     OH2      OT      -0.834000       15.9994           0
     21112 TIP3     799      TIP3     H1       HT       0.417000       1.00800           0
     21113 TIP3     799      TIP3     H2       HT       0.417000       1.00800           0
     21114 TIP3     800      TIP3     OH2      OT      -0.834000       15.9994           0
     21115 TIP3     800      TIP3     H1       HT       0.417000       1.00800           0
     21116 TIP3     800      TIP3     H2       HT       0.417000       1.00800           0
     21117 TIP3     801      TIP3     OH2      OT      -0.834000       15.9994           0
     21118 TIP3     801      TIP3     H1       HT       0.417000       1.00800           0
     21119 TIP3     801      TIP3     H2       HT       0.417000       1.00800           0
     21120 TIP3     802      TIP3     OH2      OT      -0.834000       15.9994           0
     21121 TIP3     802      TIP3     H1       HT       0.417000       1.00800           0
     21122 TIP3     802      TIP3     H2       HT       0.417000       1.00800           0
     21123 TIP3     803      TIP3     OH2      OT      -0.834000       15.9994           0
     21124 TIP3     803      TIP3     H1       HT       0.417000       1.00800           0
     21125 TIP3     803      TIP3     H2       HT       0.417000       1.00800           0
     21126 TIP3     804      TIP3     OH2      OT      -0.834000       15.9994           0
     21127 TIP3     804      TIP3     H1       HT       0.417000       1.00800           0
     21128 TIP3     804      TIP3     H2       HT       0.417000       1.00800           0
     21129 TIP3     805      TIP3     OH2      OT      -0.834000       15.9994           0
     21130 TIP3     805      TIP3     H1       HT       0.417000       1.00800           0
     21131 TIP3     805      TIP3     H2       HT       0.417000       1.00800           0
     21132 TIP3     806      TIP3     OH2      OT      -0.834000       15.9994           0
     21133 TIP3     806      TIP3     H1       HT       0.417000       1.00800           0
     21134 TIP3     806      TIP3     H2       HT       0.417000       1.00800           0
     21135 TIP3     807      TIP3     OH2      OT      -0.834000       15.9994           0
     21136 TIP3     807      TIP3     H1       HT       0.417000       1.00800           0
     21137 TIP3     807      TIP3     H2       HT       0.417000       1.00800           0
     21138 TIP3     808      TIP3     OH2      OT      -0.834000       15.9994           0
     21139 TIP3     808      TIP3     H1       HT       0.417000       1.00800           0
     21140 TIP3     808      TIP3     H2       HT       0.417000       1.00800           0
     21141 TIP3     809      TIP3     OH2      OT      -0.834000       15.9994           0
     21142 TIP3     809      TIP3     H1       HT       0.417000       1.00800           0
     21143 TIP3     809      TIP3     H2       HT       0.417000       1.00800           0
     21144 TIP3     810      TIP3     OH2      OT      -0.834000       15.9994           0
     21145 TIP3     810      TIP3     H1       HT       0.417000       1.00800           0
     21146 TIP3     810      TIP3     H2       HT       0.417000       1.00800           0
     21147 TIP3     811      TIP3     OH2      OT      -0.834000       15.9994           0
     21148 TIP3     811      TIP3     H1       HT       0.417000       1.00800           0
     21149 TIP3     811      TIP3     H2       HT       0.417000       1.00800           0
     21150 TIP3     812      TIP3     OH2      OT      -0.834000       15.9994           0
     21151 TIP3     812      TIP3     H1       HT       0.417000       1.00800           0
     21152 TIP3     812      TIP3     H2       HT       0.417000       1.00800           0
     21153 TIP3     813      TIP3     OH2      OT      -0.834000       15.9994           0
     21154 TIP3     813      TIP3     H1       HT       0.417000       1.00800           0
     21155 TIP3     813      TIP3     H2       HT       0.417000       1.00800           0
     21156 TIP3     814      TIP3     OH2      OT      -0.834000       15.9994           0
     21157 TIP3     814      TIP3     H1       HT       0.417000       1.00800           0
     21158 TIP3     814      TIP3     H2       HT       0.417000       1.00800           0
     21159 TIP3     815      TIP3     OH2      OT      -0.834000       15.9994           0
     21160 TIP3     815      TIP3     H1       HT       0.417000       1.00800           0
     21161 TIP3     815      TIP3     H2       HT       0.417000       1.00800           0
     21162 TIP3     816      TIP3     OH2      OT      -0.834000       15.9994           0
     21163 TIP3     816      TIP3     H1       HT       0.417000       1.00800           0
     21164 TIP3     816      TIP3     H2       HT       0.417000       1.00800           0
     21165 TIP3     817      TIP3     OH2      OT      -0.834000       15.9994           0
     21166 TIP3     817      TIP3     H1       HT       0.417000       1.00800           0
     21167 TIP3     817      TIP3     H2       HT       0.417000       1.00800           0
     21168 TIP3     818      TIP3     OH2      OT      -0.834000       15.9994           0
     21169 TIP3     818      TIP3     H1       HT       0.417000       1.00800           0
     21170 TIP3     818      TIP3     H2       HT       0.417000       1.00800           0
     21171 TIP3     819      TIP3     OH2      OT      -0.834000       15.9994           0
     21172 TIP3     819      TIP3     H1       HT       0.417000       1.00800           0
     21173 TIP3     819      TIP3     H2       HT       0.417000       1.00800           0
     21174 TIP3     820      TIP3     OH2      OT      -0.834000       15.9994           0
     21175 TIP3     820      TIP3     H1       HT       0.417000       1.00800           0
     21176 TIP3     820      TIP3     H2       HT       0.417000       1.00800           0
     21177 TIP3     821      TIP3     OH2      OT      -0.834000       15.9994           0
     21178 TIP3     821      TIP3     H1       HT       0.417000       1.00800           0
     21179 TIP3     821      TIP3     H2       HT       0.417000       1.00800           0
     21180 TIP3     822      TIP3     OH2      OT      -0.834000       15.9994           0
     21181 TIP3     822      TIP3     H1       HT       0.417000       1.00800           0
     21182 TIP3     822      TIP3     H2       HT       0.417000       1.00800           0
     21183 TIP3     823      TIP3     OH2      OT      -0.834000       15.9994           0
     21184 TIP3     823      TIP3     H1       HT       0.417000       1.00800           0
     21185 TIP3     823      TIP3     H2       HT       0.417000       1.00800           0
     21186 TIP3     824      TIP3     OH2      OT      -0.834000       15.9994           0
     21187 TIP3     824      TIP3     H1       HT       0.417000       1.00800           0
     21188 TIP3     824      TIP3     H2       HT       0.417000       1.00800           0
     21189 TIP3     825      TIP3     OH2      OT      -0.834000       15.9994           0
     21190 TIP3     825      TIP3     H1       HT       0.417000       1.00800           0
     21191 TIP3     825      TIP3     H2       HT       0.417000       1.00800           0
     21192 TIP3     826      TIP3     OH2      OT      -0.834000       15.9994           0
     21193 TIP3     826      TIP3     H1       HT       0.417000       1.00800           0
     21194 TIP3     826      TIP3     H2       HT       0.417000       1.00800           0
     21195 TIP3     827      TIP3     OH2      OT      -0.834000       15.9994           0
     21196 TIP3     827      TIP3     H1       HT       0.417000       1.00800           0
     21197 TIP3     827      TIP3     H2       HT       0.417000       1.00800           0
     21198 TIP3     828      TIP3     OH2      OT      -0.834000       15.9994           0
     21199 TIP3     828      TIP3     H1       HT       0.417000       1.00800           0
     21200 TIP3     828      TIP3     H2       HT       0.417000       1.00800           0
     21201 TIP3     829      TIP3     OH2      OT      -0.834000       15.9994           0
     21202 TIP3     829      TIP3     H1       HT       0.417000       1.00800           0
     21203 TIP3     829      TIP3     H2       HT       0.417000       1.00800           0
     21204 TIP3     830      TIP3     OH2      OT      -0.834000       15.9994           0
     21205 TIP3     830      TIP3     H1       HT       0.417000       1.00800           0
     21206 TIP3     830      TIP3     H2       HT       0.417000       1.00800           0
     21207 TIP3     831      TIP3     OH2      OT      -0.834000       15.9994           0
     21208 TIP3     831      TIP3     H1       HT       0.417000       1.00800           0
     21209 TIP3     831      TIP3     H2       HT       0.417000       1.00800           0
     21210 TIP3     832      TIP3     OH2      OT      -0.834000       15.9994           0
     21211 TIP3     832      TIP3     H1       HT       0.417000       1.00800           0
     21212 TIP3     832      TIP3     H2       HT       0.417000       1.00800           0
     21213 TIP3     833      TIP3     OH2      OT      -0.834000       15.9994           0
     21214 TIP3     833      TIP3     H1       HT       0.417000       1.00800           0
     21215 TIP3     833      TIP3     H2       HT       0.417000       1.00800           0
     21216 TIP3     834      TIP3     OH2      OT      -0.834000       15.9994           0
     21217 TIP3     834      TIP3     H1       HT       0.417000       1.00800           0
     21218 TIP3     834      TIP3     H2       HT       0.417000       1.00800           0
     21219 TIP3     835      TIP3     OH2      OT      -0.834000       15.9994           0
     21220 TIP3     835      TIP3     H1       HT       0.417000       1.00800           0
     21221 TIP3     835      TIP3     H2       HT       0.417000       1.00800           0
     21222 TIP3     836      TIP3     OH2      OT      -0.834000       15.9994           0
     21223 TIP3     836      TIP3     H1       HT       0.417000       1.00800           0
     21224 TIP3     836      TIP3     H2       HT       0.417000       1.00800           0
     21225 TIP3     837      TIP3     OH2      OT      -0.834000       15.9994           0
     21226 TIP3     837      TIP3     H1       HT       0.417000       1.00800           0
     21227 TIP3     837      TIP3     H2       HT       0.417000       1.00800           0
     21228 TIP3     838      TIP3     OH2      OT      -0.834000       15.9994           0
     21229 TIP3     838      TIP3     H1       HT       0.417000       1.00800           0
     21230 TIP3     838      TIP3     H2       HT       0.417000       1.00800           0
     21231 TIP3     839      TIP3     OH2      OT      -0.834000       15.9994           0
     21232 TIP3     839      TIP3     H1       HT       0.417000       1.00800           0
     21233 TIP3     839      TIP3     H2       HT       0.417000       1.00800           0
     21234 TIP3     840      TIP3     OH2      OT      -0.834000       15.9994           0
     21235 TIP3     840      TIP3     H1       HT       0.417000       1.00800           0
     21236 TIP3     840      TIP3     H2       HT       0.417000       1.00800           0
     21237 TIP3     841      TIP3     OH2      OT      -0.834000       15.9994           0
     21238 TIP3     841      TIP3     H1       HT       0.417000       1.00800           0
     21239 TIP3     841      TIP3     H2       HT       0.417000       1.00800           0
     21240 TIP3     842      TIP3     OH2      OT      -0.834000       15.9994           0
     21241 TIP3     842      TIP3     H1       HT       0.417000       1.00800           0
     21242 TIP3     842      TIP3     H2       HT       0.417000       1.00800           0
     21243 TIP3     843      TIP3     OH2      OT      -0.834000       15.9994           0
     21244 TIP3     843      TIP3     H1       HT       0.417000       1.00800           0
     21245 TIP3     843      TIP3     H2       HT       0.417000       1.00800           0
     21246 TIP3     844      TIP3     OH2      OT      -0.834000       15.9994           0
     21247 TIP3     844      TIP3     H1       HT       0.417000       1.00800           0
     21248 TIP3     844      TIP3     H2       HT       0.417000       1.00800           0
     21249 TIP3     845      TIP3     OH2      OT      -0.834000       15.9994           0
     21250 TIP3     845      TIP3     H1       HT       0.417000       1.00800           0
     21251 TIP3     845      TIP3     H2       HT       0.417000       1.00800           0
     21252 TIP3     846      TIP3     OH2      OT      -0.834000       15.9994           0
     21253 TIP3     846      TIP3     H1       HT       0.417000       1.00800           0
     21254 TIP3     846      TIP3     H2       HT       0.417000       1.00800           0
     21255 TIP3     847      TIP3     OH2      OT      -0.834000       15.9994           0
     21256 TIP3     847      TIP3     H1       HT       0.417000       1.00800           0
     21257 TIP3     847      TIP3     H2       HT       0.417000       1.00800           0
     21258 TIP3     848      TIP3     OH2      OT      -0.834000       15.9994           0
     21259 TIP3     848      TIP3     H1       HT       0.417000       1.00800           0
     21260 TIP3     848      TIP3     H2       HT       0.417000       1.00800           0
     21261 TIP3     849      TIP3     OH2      OT      -0.834000       15.9994           0
     21262 TIP3     849      TIP3     H1       HT       0.417000       1.00800           0
     21263 TIP3     849      TIP3     H2       HT       0.417000       1.00800           0
     21264 TIP3     850      TIP3     OH2      OT      -0.834000       15.9994           0
     21265 TIP3     850      TIP3     H1       HT       0.417000       1.00800           0
     21266 TIP3     850      TIP3     H2       HT       0.417000       1.00800           0
     21267 TIP3     851      TIP3     OH2      OT      -0.834000       15.9994           0
     21268 TIP3     851      TIP3     H1       HT       0.417000       1.00800           0
     21269 TIP3     851      TIP3     H2       HT       0.417000       1.00800           0
     21270 TIP3     852      TIP3     OH2      OT      -0.834000       15.9994           0
     21271 TIP3     852      TIP3     H1       HT       0.417000       1.00800           0
     21272 TIP3     852      TIP3     H2       HT       0.417000       1.00800           0
     21273 TIP3     853      TIP3     OH2      OT      -0.834000       15.9994           0
     21274 TIP3     853      TIP3     H1       HT       0.417000       1.00800           0
     21275 TIP3     853      TIP3     H2       HT       0.417000       1.00800           0
     21276 TIP3     854      TIP3     OH2      OT      -0.834000       15.9994           0
     21277 TIP3     854      TIP3     H1       HT       0.417000       1.00800           0
     21278 TIP3     854      TIP3     H2       HT       0.417000       1.00800           0
     21279 TIP3     855      TIP3     OH2      OT      -0.834000       15.9994           0
     21280 TIP3     855      TIP3     H1       HT       0.417000       1.00800           0
     21281 TIP3     855      TIP3     H2       HT       0.417000       1.00800           0
     21282 TIP3     856      TIP3     OH2      OT      -0.834000       15.9994           0
     21283 TIP3     856      TIP3     H1       HT       0.417000       1.00800           0
     21284 TIP3     856      TIP3     H2       HT       0.417000       1.00800           0
     21285 TIP3     857      TIP3     OH2      OT      -0.834000       15.9994           0
     21286 TIP3     857      TIP3     H1       HT       0.417000       1.00800           0
     21287 TIP3     857      TIP3     H2       HT       0.417000       1.00800           0
     21288 TIP3     858      TIP3     OH2      OT      -0.834000       15.9994           0
     21289 TIP3     858      TIP3     H1       HT       0.417000       1.00800           0
     21290 TIP3     858      TIP3     H2       HT       0.417000       1.00800           0
     21291 TIP3     859      TIP3     OH2      OT      -0.834000       15.9994           0
     21292 TIP3     859      TIP3     H1       HT       0.417000       1.00800           0
     21293 TIP3     859      TIP3     H2       HT       0.417000       1.00800           0
     21294 TIP3     860      TIP3     OH2      OT      -0.834000       15.9994           0
     21295 TIP3     860      TIP3     H1       HT       0.417000       1.00800           0
     21296 TIP3     860      TIP3     H2       HT       0.417000       1.00800           0
     21297 TIP3     861      TIP3     OH2      OT      -0.834000       15.9994           0
     21298 TIP3     861      TIP3     H1       HT       0.417000       1.00800           0
     21299 TIP3     861      TIP3     H2       HT       0.417000       1.00800           0
     21300 TIP3     862      TIP3     OH2      OT      -0.834000       15.9994           0
     21301 TIP3     862      TIP3     H1       HT       0.417000       1.00800           0
     21302 TIP3     862      TIP3     H2       HT       0.417000       1.00800           0
     21303 TIP3     863      TIP3     OH2      OT      -0.834000       15.9994           0
     21304 TIP3     863      TIP3     H1       HT       0.417000       1.00800           0
     21305 TIP3     863      TIP3     H2       HT       0.417000       1.00800           0
     21306 TIP3     864      TIP3     OH2      OT      -0.834000       15.9994           0
     21307 TIP3     864      TIP3     H1       HT       0.417000       1.00800           0
     21308 TIP3     864      TIP3     H2       HT       0.417000       1.00800           0
     21309 TIP3     865      TIP3     OH2      OT      -0.834000       15.9994           0
     21310 TIP3     865      TIP3     H1       HT       0.417000       1.00800           0
     21311 TIP3     865      TIP3     H2       HT       0.417000       1.00800           0
     21312 TIP3     866      TIP3     OH2      OT      -0.834000       15.9994           0
     21313 TIP3     866      TIP3     H1       HT       0.417000       1.00800           0
     21314 TIP3     866      TIP3     H2       HT       0.417000       1.00800           0
     21315 TIP3     867      TIP3     OH2      OT      -0.834000       15.9994           0
     21316 TIP3     867      TIP3     H1       HT       0.417000       1.00800           0
     21317 TIP3     867      TIP3     H2       HT       0.417000       1.00800           0
     21318 TIP3     868      TIP3     OH2      OT      -0.834000       15.9994           0
     21319 TIP3     868      TIP3     H1       HT       0.417000       1.00800           0
     21320 TIP3     868      TIP3     H2       HT       0.417000       1.00800           0
     21321 TIP3     869      TIP3     OH2      OT      -0.834000       15.9994           0
     21322 TIP3     869      TIP3     H1       HT       0.417000       1.00800           0
     21323 TIP3     869      TIP3     H2       HT       0.417000       1.00800           0
     21324 TIP3     870      TIP3     OH2      OT      -0.834000       15.9994           0
     21325 TIP3     870      TIP3     H1       HT       0.417000       1.00800           0
     21326 TIP3     870      TIP3     H2       HT       0.417000       1.00800           0
     21327 TIP3     871      TIP3     OH2      OT      -0.834000       15.9994           0
     21328 TIP3     871      TIP3     H1       HT       0.417000       1.00800           0
     21329 TIP3     871      TIP3     H2       HT       0.417000       1.00800           0
     21330 TIP3     872      TIP3     OH2      OT      -0.834000       15.9994           0
     21331 TIP3     872      TIP3     H1       HT       0.417000       1.00800           0
     21332 TIP3     872      TIP3     H2       HT       0.417000       1.00800           0
     21333 TIP3     873      TIP3     OH2      OT      -0.834000       15.9994           0
     21334 TIP3     873      TIP3     H1       HT       0.417000       1.00800           0
     21335 TIP3     873      TIP3     H2       HT       0.417000       1.00800           0
     21336 TIP3     874      TIP3     OH2      OT      -0.834000       15.9994           0
     21337 TIP3     874      TIP3     H1       HT       0.417000       1.00800           0
     21338 TIP3     874      TIP3     H2       HT       0.417000       1.00800           0
     21339 TIP3     875      TIP3     OH2      OT      -0.834000       15.9994           0
     21340 TIP3     875      TIP3     H1       HT       0.417000       1.00800           0
     21341 TIP3     875      TIP3     H2       HT       0.417000       1.00800           0
     21342 TIP3     876      TIP3     OH2      OT      -0.834000       15.9994           0
     21343 TIP3     876      TIP3     H1       HT       0.417000       1.00800           0
     21344 TIP3     876      TIP3     H2       HT       0.417000       1.00800           0
     21345 TIP3     877      TIP3     OH2      OT      -0.834000       15.9994           0
     21346 TIP3     877      TIP3     H1       HT       0.417000       1.00800           0
     21347 TIP3     877      TIP3     H2       HT       0.417000       1.00800           0
     21348 TIP3     878      TIP3     OH2      OT      -0.834000       15.9994           0
     21349 TIP3     878      TIP3     H1       HT       0.417000       1.00800           0
     21350 TIP3     878      TIP3     H2       HT       0.417000       1.00800           0
     21351 TIP3     879      TIP3     OH2      OT      -0.834000       15.9994           0
     21352 TIP3     879      TIP3     H1       HT       0.417000       1.00800           0
     21353 TIP3     879      TIP3     H2       HT       0.417000       1.00800           0
     21354 TIP3     880      TIP3     OH2      OT      -0.834000       15.9994           0
     21355 TIP3     880      TIP3     H1       HT       0.417000       1.00800           0
     21356 TIP3     880      TIP3     H2       HT       0.417000       1.00800           0
     21357 TIP3     881      TIP3     OH2      OT      -0.834000       15.9994           0
     21358 TIP3     881      TIP3     H1       HT       0.417000       1.00800           0
     21359 TIP3     881      TIP3     H2       HT       0.417000       1.00800           0
     21360 TIP3     882      TIP3     OH2      OT      -0.834000       15.9994           0
     21361 TIP3     882      TIP3     H1       HT       0.417000       1.00800           0
     21362 TIP3     882      TIP3     H2       HT       0.417000       1.00800           0
     21363 TIP3     883      TIP3     OH2      OT      -0.834000       15.9994           0
     21364 TIP3     883      TIP3     H1       HT       0.417000       1.00800           0
     21365 TIP3     883      TIP3     H2       HT       0.417000       1.00800           0
     21366 TIP3     884      TIP3     OH2      OT      -0.834000       15.9994           0
     21367 TIP3     884      TIP3     H1       HT       0.417000       1.00800           0
     21368 TIP3     884      TIP3     H2       HT       0.417000       1.00800           0
     21369 TIP3     885      TIP3     OH2      OT      -0.834000       15.9994           0
     21370 TIP3     885      TIP3     H1       HT       0.417000       1.00800           0
     21371 TIP3     885      TIP3     H2       HT       0.417000       1.00800           0
     21372 TIP3     886      TIP3     OH2      OT      -0.834000       15.9994           0
     21373 TIP3     886      TIP3     H1       HT       0.417000       1.00800           0
     21374 TIP3     886      TIP3     H2       HT       0.417000       1.00800           0
     21375 TIP3     887      TIP3     OH2      OT      -0.834000       15.9994           0
     21376 TIP3     887      TIP3     H1       HT       0.417000       1.00800           0
     21377 TIP3     887      TIP3     H2       HT       0.417000       1.00800           0
     21378 TIP3     888      TIP3     OH2      OT      -0.834000       15.9994           0
     21379 TIP3     888      TIP3     H1       HT       0.417000       1.00800           0
     21380 TIP3     888      TIP3     H2       HT       0.417000       1.00800           0
     21381 TIP3     889      TIP3     OH2      OT      -0.834000       15.9994           0
     21382 TIP3     889      TIP3     H1       HT       0.417000       1.00800           0
     21383 TIP3     889      TIP3     H2       HT       0.417000       1.00800           0
     21384 TIP3     890      TIP3     OH2      OT      -0.834000       15.9994           0
     21385 TIP3     890      TIP3     H1       HT       0.417000       1.00800           0
     21386 TIP3     890      TIP3     H2       HT       0.417000       1.00800           0
     21387 TIP3     891      TIP3     OH2      OT      -0.834000       15.9994           0
     21388 TIP3     891      TIP3     H1       HT       0.417000       1.00800           0
     21389 TIP3     891      TIP3     H2       HT       0.417000       1.00800           0
     21390 TIP3     892      TIP3     OH2      OT      -0.834000       15.9994           0
     21391 TIP3     892      TIP3     H1       HT       0.417000       1.00800           0
     21392 TIP3     892      TIP3     H2       HT       0.417000       1.00800           0
     21393 TIP3     893      TIP3     OH2      OT      -0.834000       15.9994           0
     21394 TIP3     893      TIP3     H1       HT       0.417000       1.00800           0
     21395 TIP3     893      TIP3     H2       HT       0.417000       1.00800           0
     21396 TIP3     894      TIP3     OH2      OT      -0.834000       15.9994           0
     21397 TIP3     894      TIP3     H1       HT       0.417000       1.00800           0
     21398 TIP3     894      TIP3     H2       HT       0.417000       1.00800           0
     21399 TIP3     895      TIP3     OH2      OT      -0.834000       15.9994           0
     21400 TIP3     895      TIP3     H1       HT       0.417000       1.00800           0
     21401 TIP3     895      TIP3     H2       HT       0.417000       1.00800           0
     21402 TIP3     896      TIP3     OH2      OT      -0.834000       15.9994           0
     21403 TIP3     896      TIP3     H1       HT       0.417000       1.00800           0
     21404 TIP3     896      TIP3     H2       HT       0.417000       1.00800           0
     21405 TIP3     897      TIP3     OH2      OT      -0.834000       15.9994           0
     21406 TIP3     897      TIP3     H1       HT       0.417000       1.00800           0
     21407 TIP3     897      TIP3     H2       HT       0.417000       1.00800           0
     21408 TIP3     898      TIP3     OH2      OT      -0.834000       15.9994           0
     21409 TIP3     898      TIP3     H1       HT       0.417000       1.00800           0
     21410 TIP3     898      TIP3     H2       HT       0.417000       1.00800           0
     21411 TIP3     899      TIP3     OH2      OT      -0.834000       15.9994           0
     21412 TIP3     899      TIP3     H1       HT       0.417000       1.00800           0
     21413 TIP3     899      TIP3     H2       HT       0.417000       1.00800           0
     21414 TIP3     900      TIP3     OH2      OT      -0.834000       15.9994           0
     21415 TIP3     900      TIP3     H1       HT       0.417000       1.00800           0
     21416 TIP3     900      TIP3     H2       HT       0.417000       1.00800           0
     21417 TIP3     901      TIP3     OH2      OT      -0.834000       15.9994           0
     21418 TIP3     901      TIP3     H1       HT       0.417000       1.00800           0
     21419 TIP3     901      TIP3     H2       HT       0.417000       1.00800           0
     21420 TIP3     902      TIP3     OH2      OT      -0.834000       15.9994           0
     21421 TIP3     902      TIP3     H1       HT       0.417000       1.00800           0
     21422 TIP3     902      TIP3     H2       HT       0.417000       1.00800           0
     21423 TIP3     903      TIP3     OH2      OT      -0.834000       15.9994           0
     21424 TIP3     903      TIP3     H1       HT       0.417000       1.00800           0
     21425 TIP3     903      TIP3     H2       HT       0.417000       1.00800           0
     21426 TIP3     904      TIP3     OH2      OT      -0.834000       15.9994           0
     21427 TIP3     904      TIP3     H1       HT       0.417000       1.00800           0
     21428 TIP3     904      TIP3     H2       HT       0.417000       1.00800           0
     21429 TIP3     905      TIP3     OH2      OT      -0.834000       15.9994           0
     21430 TIP3     905      TIP3     H1       HT       0.417000       1.00800           0
     21431 TIP3     905      TIP3     H2       HT       0.417000       1.00800           0
     21432 TIP3     906      TIP3     OH2      OT      -0.834000       15.9994           0
     21433 TIP3     906      TIP3     H1       HT       0.417000       1.00800           0
     21434 TIP3     906      TIP3     H2       HT       0.417000       1.00800           0
     21435 TIP3     907      TIP3     OH2      OT      -0.834000       15.9994           0
     21436 TIP3     907      TIP3     H1       HT       0.417000       1.00800           0
     21437 TIP3     907      TIP3     H2       HT       0.417000       1.00800           0
     21438 TIP3     908      TIP3     OH2      OT      -0.834000       15.9994           0
     21439 TIP3     908      TIP3     H1       HT       0.417000       1.00800           0
     21440 TIP3     908      TIP3     H2       HT       0.417000       1.00800           0
     21441 TIP3     909      TIP3     OH2      OT      -0.834000       15.9994           0
     21442 TIP3     909      TIP3     H1       HT       0.417000       1.00800           0
     21443 TIP3     909      TIP3     H2       HT       0.417000       1.00800           0
     21444 TIP3     910      TIP3     OH2      OT      -0.834000       15.9994           0
     21445 TIP3     910      TIP3     H1       HT       0.417000       1.00800           0
     21446 TIP3     910      TIP3     H2       HT       0.417000       1.00800           0
     21447 TIP3     911      TIP3     OH2      OT      -0.834000       15.9994           0
     21448 TIP3     911      TIP3     H1       HT       0.417000       1.00800           0
     21449 TIP3     911      TIP3     H2       HT       0.417000       1.00800           0
     21450 TIP3     912      TIP3     OH2      OT      -0.834000       15.9994           0
     21451 TIP3     912      TIP3     H1       HT       0.417000       1.00800           0
     21452 TIP3     912      TIP3     H2       HT       0.417000       1.00800           0
     21453 TIP3     913      TIP3     OH2      OT      -0.834000       15.9994           0
     21454 TIP3     913      TIP3     H1       HT       0.417000       1.00800           0
     21455 TIP3     913      TIP3     H2       HT       0.417000       1.00800           0
     21456 TIP3     914      TIP3     OH2      OT      -0.834000       15.9994           0
     21457 TIP3     914      TIP3     H1       HT       0.417000       1.00800           0
     21458 TIP3     914      TIP3     H2       HT       0.417000       1.00800           0
     21459 TIP3     915      TIP3     OH2      OT      -0.834000       15.9994           0
     21460 TIP3     915      TIP3     H1       HT       0.417000       1.00800           0
     21461 TIP3     915      TIP3     H2       HT       0.417000       1.00800           0
     21462 TIP3     916      TIP3     OH2      OT      -0.834000       15.9994           0
     21463 TIP3     916      TIP3     H1       HT       0.417000       1.00800           0
     21464 TIP3     916      TIP3     H2       HT       0.417000       1.00800           0
     21465 TIP3     917      TIP3     OH2      OT      -0.834000       15.9994           0
     21466 TIP3     917      TIP3     H1       HT       0.417000       1.00800           0
     21467 TIP3     917      TIP3     H2       HT       0.417000       1.00800           0
     21468 TIP3     918      TIP3     OH2      OT      -0.834000       15.9994           0
     21469 TIP3     918      TIP3     H1       HT       0.417000       1.00800           0
     21470 TIP3     918      TIP3     H2       HT       0.417000       1.00800           0
     21471 TIP3     919      TIP3     OH2      OT      -0.834000       15.9994           0
     21472 TIP3     919      TIP3     H1       HT       0.417000       1.00800           0
     21473 TIP3     919      TIP3     H2       HT       0.417000       1.00800           0
     21474 TIP3     920      TIP3     OH2      OT      -0.834000       15.9994           0
     21475 TIP3     920      TIP3     H1       HT       0.417000       1.00800           0
     21476 TIP3     920      TIP3     H2       HT       0.417000       1.00800           0
     21477 TIP3     921      TIP3     OH2      OT      -0.834000       15.9994           0
     21478 TIP3     921      TIP3     H1       HT       0.417000       1.00800           0
     21479 TIP3     921      TIP3     H2       HT       0.417000       1.00800           0
     21480 TIP3     922      TIP3     OH2      OT      -0.834000       15.9994           0
     21481 TIP3     922      TIP3     H1       HT       0.417000       1.00800           0
     21482 TIP3     922      TIP3     H2       HT       0.417000       1.00800           0
     21483 TIP3     923      TIP3     OH2      OT      -0.834000       15.9994           0
     21484 TIP3     923      TIP3     H1       HT       0.417000       1.00800           0
     21485 TIP3     923      TIP3     H2       HT       0.417000       1.00800           0
     21486 TIP3     924      TIP3     OH2      OT      -0.834000       15.9994           0
     21487 TIP3     924      TIP3     H1       HT       0.417000       1.00800           0
     21488 TIP3     924      TIP3     H2       HT       0.417000       1.00800           0
     21489 TIP3     925      TIP3     OH2      OT      -0.834000       15.9994           0
     21490 TIP3     925      TIP3     H1       HT       0.417000       1.00800           0
     21491 TIP3     925      TIP3     H2       HT       0.417000       1.00800           0
     21492 TIP3     926      TIP3     OH2      OT      -0.834000       15.9994           0
     21493 TIP3     926      TIP3     H1       HT       0.417000       1.00800           0
     21494 TIP3     926      TIP3     H2       HT       0.417000       1.00800           0
     21495 TIP3     927      TIP3     OH2      OT      -0.834000       15.9994           0
     21496 TIP3     927      TIP3     H1       HT       0.417000       1.00800           0
     21497 TIP3     927      TIP3     H2       HT       0.417000       1.00800           0
     21498 TIP3     928      TIP3     OH2      OT      -0.834000       15.9994           0
     21499 TIP3     928      TIP3     H1       HT       0.417000       1.00800           0
     21500 TIP3     928      TIP3     H2       HT       0.417000       1.00800           0
     21501 TIP3     929      TIP3     OH2      OT      -0.834000       15.9994           0
     21502 TIP3     929      TIP3     H1       HT       0.417000       1.00800           0
     21503 TIP3     929      TIP3     H2       HT       0.417000       1.00800           0
     21504 TIP3     930      TIP3     OH2      OT      -0.834000       15.9994           0
     21505 TIP3     930      TIP3     H1       HT       0.417000       1.00800           0
     21506 TIP3     930      TIP3     H2       HT       0.417000       1.00800           0
     21507 TIP3     931      TIP3     OH2      OT      -0.834000       15.9994           0
     21508 TIP3     931      TIP3     H1       HT       0.417000       1.00800           0
     21509 TIP3     931      TIP3     H2       HT       0.417000       1.00800           0
     21510 TIP3     932      TIP3     OH2      OT      -0.834000       15.9994           0
     21511 TIP3     932      TIP3     H1       HT       0.417000       1.00800           0
     21512 TIP3     932      TIP3     H2       HT       0.417000       1.00800           0
     21513 TIP3     933      TIP3     OH2      OT      -0.834000       15.9994           0
     21514 TIP3     933      TIP3     H1       HT       0.417000       1.00800           0
     21515 TIP3     933      TIP3     H2       HT       0.417000       1.00800           0
     21516 TIP3     934      TIP3     OH2      OT      -0.834000       15.9994           0
     21517 TIP3     934      TIP3     H1       HT       0.417000       1.00800           0
     21518 TIP3     934      TIP3     H2       HT       0.417000       1.00800           0
     21519 TIP3     935      TIP3     OH2      OT      -0.834000       15.9994           0
     21520 TIP3     935      TIP3     H1       HT       0.417000       1.00800           0
     21521 TIP3     935      TIP3     H2       HT       0.417000       1.00800           0
     21522 TIP3     936      TIP3     OH2      OT      -0.834000       15.9994           0
     21523 TIP3     936      TIP3     H1       HT       0.417000       1.00800           0
     21524 TIP3     936      TIP3     H2       HT       0.417000       1.00800           0
     21525 TIP3     937      TIP3     OH2      OT      -0.834000       15.9994           0
     21526 TIP3     937      TIP3     H1       HT       0.417000       1.00800           0
     21527 TIP3     937      TIP3     H2       HT       0.417000       1.00800           0
     21528 TIP3     938      TIP3     OH2      OT      -0.834000       15.9994           0
     21529 TIP3     938      TIP3     H1       HT       0.417000       1.00800           0
     21530 TIP3     938      TIP3     H2       HT       0.417000       1.00800           0
     21531 TIP3     939      TIP3     OH2      OT      -0.834000       15.9994           0
     21532 TIP3     939      TIP3     H1       HT       0.417000       1.00800           0
     21533 TIP3     939      TIP3     H2       HT       0.417000       1.00800           0
     21534 TIP3     940      TIP3     OH2      OT      -0.834000       15.9994           0
     21535 TIP3     940      TIP3     H1       HT       0.417000       1.00800           0
     21536 TIP3     940      TIP3     H2       HT       0.417000       1.00800           0
     21537 TIP3     941      TIP3     OH2      OT      -0.834000       15.9994           0
     21538 TIP3     941      TIP3     H1       HT       0.417000       1.00800           0
     21539 TIP3     941      TIP3     H2       HT       0.417000       1.00800           0
     21540 TIP3     942      TIP3     OH2      OT      -0.834000       15.9994           0
     21541 TIP3     942      TIP3     H1       HT       0.417000       1.00800           0
     21542 TIP3     942      TIP3     H2       HT       0.417000       1.00800           0
     21543 TIP3     943      TIP3     OH2      OT      -0.834000       15.9994           0
     21544 TIP3     943      TIP3     H1       HT       0.417000       1.00800           0
     21545 TIP3     943      TIP3     H2       HT       0.417000       1.00800           0
     21546 TIP3     944      TIP3     OH2      OT      -0.834000       15.9994           0
     21547 TIP3     944      TIP3     H1       HT       0.417000       1.00800           0
     21548 TIP3     944      TIP3     H2       HT       0.417000       1.00800           0
     21549 TIP3     945      TIP3     OH2      OT      -0.834000       15.9994           0
     21550 TIP3     945      TIP3     H1       HT       0.417000       1.00800           0
     21551 TIP3     945      TIP3     H2       HT       0.417000       1.00800           0
     21552 TIP3     946      TIP3     OH2      OT      -0.834000       15.9994           0
     21553 TIP3     946      TIP3     H1       HT       0.417000       1.00800           0
     21554 TIP3     946      TIP3     H2       HT       0.417000       1.00800           0
     21555 TIP3     947      TIP3     OH2      OT      -0.834000       15.9994           0
     21556 TIP3     947      TIP3     H1       HT       0.417000       1.00800           0
     21557 TIP3     947      TIP3     H2       HT       0.417000       1.00800           0
     21558 TIP3     948      TIP3     OH2      OT      -0.834000       15.9994           0
     21559 TIP3     948      TIP3     H1       HT       0.417000       1.00800           0
     21560 TIP3     948      TIP3     H2       HT       0.417000       1.00800           0
     21561 TIP3     949      TIP3     OH2      OT      -0.834000       15.9994           0
     21562 TIP3     949      TIP3     H1       HT       0.417000       1.00800           0
     21563 TIP3     949      TIP3     H2       HT       0.417000       1.00800           0
     21564 TIP3     950      TIP3     OH2      OT      -0.834000       15.9994           0
     21565 TIP3     950      TIP3     H1       HT       0.417000       1.00800           0
     21566 TIP3     950      TIP3     H2       HT       0.417000       1.00800           0
     21567 TIP3     951      TIP3     OH2      OT      -0.834000       15.9994           0
     21568 TIP3     951      TIP3     H1       HT       0.417000       1.00800           0
     21569 TIP3     951      TIP3     H2       HT       0.417000       1.00800           0
     21570 TIP3     952      TIP3     OH2      OT      -0.834000       15.9994           0
     21571 TIP3     952      TIP3     H1       HT       0.417000       1.00800           0
     21572 TIP3     952      TIP3     H2       HT       0.417000       1.00800           0
     21573 TIP3     953      TIP3     OH2      OT      -0.834000       15.9994           0
     21574 TIP3     953      TIP3     H1       HT       0.417000       1.00800           0
     21575 TIP3     953      TIP3     H2       HT       0.417000       1.00800           0
     21576 TIP3     954      TIP3     OH2      OT      -0.834000       15.9994           0
     21577 TIP3     954      TIP3     H1       HT       0.417000       1.00800           0
     21578 TIP3     954      TIP3     H2       HT       0.417000       1.00800           0
     21579 TIP3     955      TIP3     OH2      OT      -0.834000       15.9994           0
     21580 TIP3     955      TIP3     H1       HT       0.417000       1.00800           0
     21581 TIP3     955      TIP3     H2       HT       0.417000       1.00800           0
     21582 TIP3     956      TIP3     OH2      OT      -0.834000       15.9994           0
     21583 TIP3     956      TIP3     H1       HT       0.417000       1.00800           0
     21584 TIP3     956      TIP3     H2       HT       0.417000       1.00800           0
     21585 TIP3     957      TIP3     OH2      OT      -0.834000       15.9994           0
     21586 TIP3     957      TIP3     H1       HT       0.417000       1.00800           0
     21587 TIP3     957      TIP3     H2       HT       0.417000       1.00800           0
     21588 TIP3     958      TIP3     OH2      OT      -0.834000       15.9994           0
     21589 TIP3     958      TIP3     H1       HT       0.417000       1.00800           0
     21590 TIP3     958      TIP3     H2       HT       0.417000       1.00800           0
     21591 TIP3     959      TIP3     OH2      OT      -0.834000       15.9994           0
     21592 TIP3     959      TIP3     H1       HT       0.417000       1.00800           0
     21593 TIP3     959      TIP3     H2       HT       0.417000       1.00800           0
     21594 TIP3     960      TIP3     OH2      OT      -0.834000       15.9994           0
     21595 TIP3     960      TIP3     H1       HT       0.417000       1.00800           0
     21596 TIP3     960      TIP3     H2       HT       0.417000       1.00800           0
     21597 TIP3     961      TIP3     OH2      OT      -0.834000       15.9994           0
     21598 TIP3     961      TIP3     H1       HT       0.417000       1.00800           0
     21599 TIP3     961      TIP3     H2       HT       0.417000       1.00800           0
     21600 TIP3     962      TIP3     OH2      OT      -0.834000       15.9994           0
     21601 TIP3     962      TIP3     H1       HT       0.417000       1.00800           0
     21602 TIP3     962      TIP3     H2       HT       0.417000       1.00800           0
     21603 TIP3     963      TIP3     OH2      OT      -0.834000       15.9994           0
     21604 TIP3     963      TIP3     H1       HT       0.417000       1.00800           0
     21605 TIP3     963      TIP3     H2       HT       0.417000       1.00800           0
     21606 TIP3     964      TIP3     OH2      OT      -0.834000       15.9994           0
     21607 TIP3     964      TIP3     H1       HT       0.417000       1.00800           0
     21608 TIP3     964      TIP3     H2       HT       0.417000       1.00800           0
     21609 TIP3     965      TIP3     OH2      OT      -0.834000       15.9994           0
     21610 TIP3     965      TIP3     H1       HT       0.417000       1.00800           0
     21611 TIP3     965      TIP3     H2       HT       0.417000       1.00800           0
     21612 TIP3     966      TIP3     OH2      OT      -0.834000       15.9994           0
     21613 TIP3     966      TIP3     H1       HT       0.417000       1.00800           0
     21614 TIP3     966      TIP3     H2       HT       0.417000       1.00800           0
     21615 TIP3     967      TIP3     OH2      OT      -0.834000       15.9994           0
     21616 TIP3     967      TIP3     H1       HT       0.417000       1.00800           0
     21617 TIP3     967      TIP3     H2       HT       0.417000       1.00800           0
     21618 TIP3     968      TIP3     OH2      OT      -0.834000       15.9994           0
     21619 TIP3     968      TIP3     H1       HT       0.417000       1.00800           0
     21620 TIP3     968      TIP3     H2       HT       0.417000       1.00800           0
     21621 TIP3     969      TIP3     OH2      OT      -0.834000       15.9994           0
     21622 TIP3     969      TIP3     H1       HT       0.417000       1.00800           0
     21623 TIP3     969      TIP3     H2       HT       0.417000       1.00800           0
     21624 TIP3     970      TIP3     OH2      OT      -0.834000       15.9994           0
     21625 TIP3     970      TIP3     H1       HT       0.417000       1.00800           0
     21626 TIP3     970      TIP3     H2       HT       0.417000       1.00800           0
     21627 TIP3     971      TIP3     OH2      OT      -0.834000       15.9994           0
     21628 TIP3     971      TIP3     H1       HT       0.417000       1.00800           0
     21629 TIP3     971      TIP3     H2       HT       0.417000       1.00800           0
     21630 TIP3     972      TIP3     OH2      OT      -0.834000       15.9994           0
     21631 TIP3     972      TIP3     H1       HT       0.417000       1.00800           0
     21632 TIP3     972      TIP3     H2       HT       0.417000       1.00800           0
     21633 TIP3     973      TIP3     OH2      OT      -0.834000       15.9994           0
     21634 TIP3     973      TIP3     H1       HT       0.417000       1.00800           0
     21635 TIP3     973      TIP3     H2       HT       0.417000       1.00800           0
     21636 TIP3     974      TIP3     OH2      OT      -0.834000       15.9994           0
     21637 TIP3     974      TIP3     H1       HT       0.417000       1.00800           0
     21638 TIP3     974      TIP3     H2       HT       0.417000       1.00800           0
     21639 TIP3     975      TIP3     OH2      OT      -0.834000       15.9994           0
     21640 TIP3     975      TIP3     H1       HT       0.417000       1.00800           0
     21641 TIP3     975      TIP3     H2       HT       0.417000       1.00800           0
     21642 TIP3     976      TIP3     OH2      OT      -0.834000       15.9994           0
     21643 TIP3     976      TIP3     H1       HT       0.417000       1.00800           0
     21644 TIP3     976      TIP3     H2       HT       0.417000       1.00800           0
     21645 TIP3     977      TIP3     OH2      OT      -0.834000       15.9994           0
     21646 TIP3     977      TIP3     H1       HT       0.417000       1.00800           0
     21647 TIP3     977      TIP3     H2       HT       0.417000       1.00800           0
     21648 TIP3     978      TIP3     OH2      OT      -0.834000       15.9994           0
     21649 TIP3     978      TIP3     H1       HT       0.417000       1.00800           0
     21650 TIP3     978      TIP3     H2       HT       0.417000       1.00800           0
     21651 TIP3     979      TIP3     OH2      OT      -0.834000       15.9994           0
     21652 TIP3     979      TIP3     H1       HT       0.417000       1.00800           0
     21653 TIP3     979      TIP3     H2       HT       0.417000       1.00800           0
     21654 TIP3     980      TIP3     OH2      OT      -0.834000       15.9994           0
     21655 TIP3     980      TIP3     H1       HT       0.417000       1.00800           0
     21656 TIP3     980      TIP3     H2       HT       0.417000       1.00800           0
     21657 TIP3     981      TIP3     OH2      OT      -0.834000       15.9994           0
     21658 TIP3     981      TIP3     H1       HT       0.417000       1.00800           0
     21659 TIP3     981      TIP3     H2       HT       0.417000       1.00800           0
     21660 TIP3     982      TIP3     OH2      OT      -0.834000       15.9994           0
     21661 TIP3     982      TIP3     H1       HT       0.417000       1.00800           0
     21662 TIP3     982      TIP3     H2       HT       0.417000       1.00800           0
     21663 TIP3     983      TIP3     OH2      OT      -0.834000       15.9994           0
     21664 TIP3     983      TIP3     H1       HT       0.417000       1.00800           0
     21665 TIP3     983      TIP3     H2       HT       0.417000       1.00800           0
     21666 TIP3     984      TIP3     OH2      OT      -0.834000       15.9994           0
     21667 TIP3     984      TIP3     H1       HT       0.417000       1.00800           0
     21668 TIP3     984      TIP3     H2       HT       0.417000       1.00800           0
     21669 TIP3     985      TIP3     OH2      OT      -0.834000       15.9994           0
     21670 TIP3     985      TIP3     H1       HT       0.417000       1.00800           0
     21671 TIP3     985      TIP3     H2       HT       0.417000       1.00800           0
     21672 TIP3     986      TIP3     OH2      OT      -0.834000       15.9994           0
     21673 TIP3     986      TIP3     H1       HT       0.417000       1.00800           0
     21674 TIP3     986      TIP3     H2       HT       0.417000       1.00800           0
     21675 TIP3     987      TIP3     OH2      OT      -0.834000       15.9994           0
     21676 TIP3     987      TIP3     H1       HT       0.417000       1.00800           0
     21677 TIP3     987      TIP3     H2       HT       0.417000       1.00800           0
     21678 TIP3     988      TIP3     OH2      OT      -0.834000       15.9994           0
     21679 TIP3     988      TIP3     H1       HT       0.417000       1.00800           0
     21680 TIP3     988      TIP3     H2       HT       0.417000       1.00800           0
     21681 TIP3     989      TIP3     OH2      OT      -0.834000       15.9994           0
     21682 TIP3     989      TIP3     H1       HT       0.417000       1.00800           0
     21683 TIP3     989      TIP3     H2       HT       0.417000       1.00800           0
     21684 TIP3     990      TIP3     OH2      OT      -0.834000       15.9994           0
     21685 TIP3     990      TIP3     H1       HT       0.417000       1.00800           0
     21686 TIP3     990      TIP3     H2       HT       0.417000       1.00800           0
     21687 TIP3     991      TIP3     OH2      OT      -0.834000       15.9994           0
     21688 TIP3     991      TIP3     H1       HT       0.417000       1.00800           0
     21689 TIP3     991      TIP3     H2       HT       0.417000       1.00800           0
     21690 TIP3     992      TIP3     OH2      OT      -0.834000       15.9994           0
     21691 TIP3     992      TIP3     H1       HT       0.417000       1.00800           0
     21692 TIP3     992      TIP3     H2       HT       0.417000       1.00800           0
     21693 TIP3     993      TIP3     OH2      OT      -0.834000       15.9994           0
     21694 TIP3     993      TIP3     H1       HT       0.417000       1.00800           0
     21695 TIP3     993      TIP3     H2       HT       0.417000       1.00800           0
     21696 TIP3     994      TIP3     OH2      OT      -0.834000       15.9994           0
     21697 TIP3     994      TIP3     H1       HT       0.417000       1.00800           0
     21698 TIP3     994      TIP3     H2       HT       0.417000       1.00800           0
     21699 TIP3     995      TIP3     OH2      OT      -0.834000       15.9994           0
     21700 TIP3     995      TIP3     H1       HT       0.417000       1.00800           0
     21701 TIP3     995      TIP3     H2       HT       0.417000       1.00800           0
     21702 TIP3     996      TIP3     OH2      OT      -0.834000       15.9994           0
     21703 TIP3     996      TIP3     H1       HT       0.417000       1.00800           0
     21704 TIP3     996      TIP3     H2       HT       0.417000       1.00800           0
     21705 TIP3     997      TIP3     OH2      OT      -0.834000       15.9994           0
     21706 TIP3     997      TIP3     H1       HT       0.417000       1.00800           0
     21707 TIP3     997      TIP3     H2       HT       0.417000       1.00800           0
     21708 TIP3     998      TIP3     OH2      OT      -0.834000       15.9994           0
     21709 TIP3     998      TIP3     H1       HT       0.417000       1.00800           0
     21710 TIP3     998      TIP3     H2       HT       0.417000       1.00800           0
     21711 TIP3     999      TIP3     OH2      OT      -0.834000       15.9994           0
     21712 TIP3     999      TIP3     H1       HT       0.417000       1.00800           0
     21713 TIP3     999      TIP3     H2       HT       0.417000       1.00800           0
     21714 TIP3     1000     TIP3     OH2      OT      -0.834000       15.9994           0
     21715 TIP3     1000     TIP3     H1       HT       0.417000       1.00800           0
     21716 TIP3     1000     TIP3     H2       HT       0.417000       1.00800           0
     21717 TIP3     1001     TIP3     OH2      OT      -0.834000       15.9994           0
     21718 TIP3     1001     TIP3     H1       HT       0.417000       1.00800           0
     21719 TIP3     1001     TIP3     H2       HT       0.417000       1.00800           0
     21720 TIP3     1002     TIP3     OH2      OT      -0.834000       15.9994           0
     21721 TIP3     1002     TIP3     H1       HT       0.417000       1.00800           0
     21722 TIP3     1002     TIP3     H2       HT       0.417000       1.00800           0
     21723 TIP3     1003     TIP3     OH2      OT      -0.834000       15.9994           0
     21724 TIP3     1003     TIP3     H1       HT       0.417000       1.00800           0
     21725 TIP3     1003     TIP3     H2       HT       0.417000       1.00800           0
     21726 TIP3     1004     TIP3     OH2      OT      -0.834000       15.9994           0
     21727 TIP3     1004     TIP3     H1       HT       0.417000       1.00800           0
     21728 TIP3     1004     TIP3     H2       HT       0.417000       1.00800           0
     21729 TIP3     1005     TIP3     OH2      OT      -0.834000       15.9994           0
     21730 TIP3     1005     TIP3     H1       HT       0.417000       1.00800           0
     21731 TIP3     1005     TIP3     H2       HT       0.417000       1.00800           0
     21732 TIP3     1006     TIP3     OH2      OT      -0.834000       15.9994           0
     21733 TIP3     1006     TIP3     H1       HT       0.417000       1.00800           0
     21734 TIP3     1006     TIP3     H2       HT       0.417000       1.00800           0
     21735 TIP3     1007     TIP3     OH2      OT      -0.834000       15.9994           0
     21736 TIP3     1007     TIP3     H1       HT       0.417000       1.00800           0
     21737 TIP3     1007     TIP3     H2       HT       0.417000       1.00800           0
     21738 TIP3     1008     TIP3     OH2      OT      -0.834000       15.9994           0
     21739 TIP3     1008     TIP3     H1       HT       0.417000       1.00800           0
     21740 TIP3     1008     TIP3     H2       HT       0.417000       1.00800           0
     21741 TIP3     1009     TIP3     OH2      OT      -0.834000       15.9994           0
     21742 TIP3     1009     TIP3     H1       HT       0.417000       1.00800           0
     21743 TIP3     1009     TIP3     H2       HT       0.417000       1.00800           0
     21744 TIP3     1010     TIP3     OH2      OT      -0.834000       15.9994           0
     21745 TIP3     1010     TIP3     H1       HT       0.417000       1.00800           0
     21746 TIP3     1010     TIP3     H2       HT       0.417000       1.00800           0
     21747 TIP3     1011     TIP3     OH2      OT      -0.834000       15.9994           0
     21748 TIP3     1011     TIP3     H1       HT       0.417000       1.00800           0
     21749 TIP3     1011     TIP3     H2       HT       0.417000       1.00800           0
     21750 TIP3     1012     TIP3     OH2      OT      -0.834000       15.9994           0
     21751 TIP3     1012     TIP3     H1       HT       0.417000       1.00800           0
     21752 TIP3     1012     TIP3     H2       HT       0.417000       1.00800           0
     21753 TIP3     1013     TIP3     OH2      OT      -0.834000       15.9994           0
     21754 TIP3     1013     TIP3     H1       HT       0.417000       1.00800           0
     21755 TIP3     1013     TIP3     H2       HT       0.417000       1.00800           0
     21756 TIP3     1014     TIP3     OH2      OT      -0.834000       15.9994           0
     21757 TIP3     1014     TIP3     H1       HT       0.417000       1.00800           0
     21758 TIP3     1014     TIP3     H2       HT       0.417000       1.00800           0
     21759 TIP3     1015     TIP3     OH2      OT      -0.834000       15.9994           0
     21760 TIP3     1015     TIP3     H1       HT       0.417000       1.00800           0
     21761 TIP3     1015     TIP3     H2       HT       0.417000       1.00800           0
     21762 TIP3     1016     TIP3     OH2      OT      -0.834000       15.9994           0
     21763 TIP3     1016     TIP3     H1       HT       0.417000       1.00800           0
     21764 TIP3     1016     TIP3     H2       HT       0.417000       1.00800           0
     21765 TIP3     1017     TIP3     OH2      OT      -0.834000       15.9994           0
     21766 TIP3     1017     TIP3     H1       HT       0.417000       1.00800           0
     21767 TIP3     1017     TIP3     H2       HT       0.417000       1.00800           0
     21768 TIP3     1018     TIP3     OH2      OT      -0.834000       15.9994           0
     21769 TIP3     1018     TIP3     H1       HT       0.417000       1.00800           0
     21770 TIP3     1018     TIP3     H2       HT       0.417000       1.00800           0
     21771 TIP3     1019     TIP3     OH2      OT      -0.834000       15.9994           0
     21772 TIP3     1019     TIP3     H1       HT       0.417000       1.00800           0
     21773 TIP3     1019     TIP3     H2       HT       0.417000       1.00800           0
     21774 TIP3     1020     TIP3     OH2      OT      -0.834000       15.9994           0
     21775 TIP3     1020     TIP3     H1       HT       0.417000       1.00800           0
     21776 TIP3     1020     TIP3     H2       HT       0.417000       1.00800           0
     21777 TIP3     1021     TIP3     OH2      OT      -0.834000       15.9994           0
     21778 TIP3     1021     TIP3     H1       HT       0.417000       1.00800           0
     21779 TIP3     1021     TIP3     H2       HT       0.417000       1.00800           0
     21780 TIP3     1022     TIP3     OH2      OT      -0.834000       15.9994           0
     21781 TIP3     1022     TIP3     H1       HT       0.417000       1.00800           0
     21782 TIP3     1022     TIP3     H2       HT       0.417000       1.00800           0
     21783 TIP3     1023     TIP3     OH2      OT      -0.834000       15.9994           0
     21784 TIP3     1023     TIP3     H1       HT       0.417000       1.00800           0
     21785 TIP3     1023     TIP3     H2       HT       0.417000       1.00800           0
     21786 TIP3     1024     TIP3     OH2      OT      -0.834000       15.9994           0
     21787 TIP3     1024     TIP3     H1       HT       0.417000       1.00800           0
     21788 TIP3     1024     TIP3     H2       HT       0.417000       1.00800           0
     21789 TIP3     1025     TIP3     OH2      OT      -0.834000       15.9994           0
     21790 TIP3     1025     TIP3     H1       HT       0.417000       1.00800           0
     21791 TIP3     1025     TIP3     H2       HT       0.417000       1.00800           0
     21792 TIP3     1026     TIP3     OH2      OT      -0.834000       15.9994           0
     21793 TIP3     1026     TIP3     H1       HT       0.417000       1.00800           0
     21794 TIP3     1026     TIP3     H2       HT       0.417000       1.00800           0
     21795 TIP3     1027     TIP3     OH2      OT      -0.834000       15.9994           0
     21796 TIP3     1027     TIP3     H1       HT       0.417000       1.00800           0
     21797 TIP3     1027     TIP3     H2       HT       0.417000       1.00800           0
     21798 TIP3     1028     TIP3     OH2      OT      -0.834000       15.9994           0
     21799 TIP3     1028     TIP3     H1       HT       0.417000       1.00800           0
     21800 TIP3     1028     TIP3     H2       HT       0.417000       1.00800           0
     21801 TIP3     1029     TIP3     OH2      OT      -0.834000       15.9994           0
     21802 TIP3     1029     TIP3     H1       HT       0.417000       1.00800           0
     21803 TIP3     1029     TIP3     H2       HT       0.417000       1.00800           0
     21804 TIP3     1030     TIP3     OH2      OT      -0.834000       15.9994           0
     21805 TIP3     1030     TIP3     H1       HT       0.417000       1.00800           0
     21806 TIP3     1030     TIP3     H2       HT       0.417000       1.00800           0
     21807 TIP3     1031     TIP3     OH2      OT      -0.834000       15.9994           0
     21808 TIP3     1031     TIP3     H1       HT       0.417000       1.00800           0
     21809 TIP3     1031     TIP3     H2       HT       0.417000       1.00800           0
     21810 TIP3     1032     TIP3     OH2      OT      -0.834000       15.9994           0
     21811 TIP3     1032     TIP3     H1       HT       0.417000       1.00800           0
     21812 TIP3     1032     TIP3     H2       HT       0.417000       1.00800           0
     21813 TIP3     1033     TIP3     OH2      OT      -0.834000       15.9994           0
     21814 TIP3     1033     TIP3     H1       HT       0.417000       1.00800           0
     21815 TIP3     1033     TIP3     H2       HT       0.417000       1.00800           0
     21816 TIP3     1034     TIP3     OH2      OT      -0.834000       15.9994           0
     21817 TIP3     1034     TIP3     H1       HT       0.417000       1.00800           0
     21818 TIP3     1034     TIP3     H2       HT       0.417000       1.00800           0
     21819 TIP3     1035     TIP3     OH2      OT      -0.834000       15.9994           0
     21820 TIP3     1035     TIP3     H1       HT       0.417000       1.00800           0
     21821 TIP3     1035     TIP3     H2       HT       0.417000       1.00800           0
     21822 TIP3     1036     TIP3     OH2      OT      -0.834000       15.9994           0
     21823 TIP3     1036     TIP3     H1       HT       0.417000       1.00800           0
     21824 TIP3     1036     TIP3     H2       HT       0.417000       1.00800           0
     21825 TIP3     1037     TIP3     OH2      OT      -0.834000       15.9994           0
     21826 TIP3     1037     TIP3     H1       HT       0.417000       1.00800           0
     21827 TIP3     1037     TIP3     H2       HT       0.417000       1.00800           0
     21828 TIP3     1038     TIP3     OH2      OT      -0.834000       15.9994           0
     21829 TIP3     1038     TIP3     H1       HT       0.417000       1.00800           0
     21830 TIP3     1038     TIP3     H2       HT       0.417000       1.00800           0
     21831 TIP3     1039     TIP3     OH2      OT      -0.834000       15.9994           0
     21832 TIP3     1039     TIP3     H1       HT       0.417000       1.00800           0
     21833 TIP3     1039     TIP3     H2       HT       0.417000       1.00800           0
     21834 TIP3     1040     TIP3     OH2      OT      -0.834000       15.9994           0
     21835 TIP3     1040     TIP3     H1       HT       0.417000       1.00800           0
     21836 TIP3     1040     TIP3     H2       HT       0.417000       1.00800           0
     21837 TIP3     1041     TIP3     OH2      OT      -0.834000       15.9994           0
     21838 TIP3     1041     TIP3     H1       HT       0.417000       1.00800           0
     21839 TIP3     1041     TIP3     H2       HT       0.417000       1.00800           0
     21840 TIP3     1042     TIP3     OH2      OT      -0.834000       15.9994           0
     21841 TIP3     1042     TIP3     H1       HT       0.417000       1.00800           0
     21842 TIP3     1042     TIP3     H2       HT       0.417000       1.00800           0
     21843 TIP3     1043     TIP3     OH2      OT      -0.834000       15.9994           0
     21844 TIP3     1043     TIP3     H1       HT       0.417000       1.00800           0
     21845 TIP3     1043     TIP3     H2       HT       0.417000       1.00800           0
     21846 TIP3     1044     TIP3     OH2      OT      -0.834000       15.9994           0
     21847 TIP3     1044     TIP3     H1       HT       0.417000       1.00800           0
     21848 TIP3     1044     TIP3     H2       HT       0.417000       1.00800           0
     21849 TIP3     1045     TIP3     OH2      OT      -0.834000       15.9994           0
     21850 TIP3     1045     TIP3     H1       HT       0.417000       1.00800           0
     21851 TIP3     1045     TIP3     H2       HT       0.417000       1.00800           0
     21852 TIP3     1046     TIP3     OH2      OT      -0.834000       15.9994           0
     21853 TIP3     1046     TIP3     H1       HT       0.417000       1.00800           0
     21854 TIP3     1046     TIP3     H2       HT       0.417000       1.00800           0
     21855 TIP3     1047     TIP3     OH2      OT      -0.834000       15.9994           0
     21856 TIP3     1047     TIP3     H1       HT       0.417000       1.00800           0
     21857 TIP3     1047     TIP3     H2       HT       0.417000       1.00800           0
     21858 TIP3     1048     TIP3     OH2      OT      -0.834000       15.9994           0
     21859 TIP3     1048     TIP3     H1       HT       0.417000       1.00800           0
     21860 TIP3     1048     TIP3     H2       HT       0.417000       1.00800           0
     21861 TIP3     1049     TIP3     OH2      OT      -0.834000       15.9994           0
     21862 TIP3     1049     TIP3     H1       HT       0.417000       1.00800           0
     21863 TIP3     1049     TIP3     H2       HT       0.417000       1.00800           0
     21864 TIP3     1050     TIP3     OH2      OT      -0.834000       15.9994           0
     21865 TIP3     1050     TIP3     H1       HT       0.417000       1.00800           0
     21866 TIP3     1050     TIP3     H2       HT       0.417000       1.00800           0
     21867 TIP3     1051     TIP3     OH2      OT      -0.834000       15.9994           0
     21868 TIP3     1051     TIP3     H1       HT       0.417000       1.00800           0
     21869 TIP3     1051     TIP3     H2       HT       0.417000       1.00800           0
     21870 TIP3     1052     TIP3     OH2      OT      -0.834000       15.9994           0
     21871 TIP3     1052     TIP3     H1       HT       0.417000       1.00800           0
     21872 TIP3     1052     TIP3     H2       HT       0.417000       1.00800           0
     21873 TIP3     1053     TIP3     OH2      OT      -0.834000       15.9994           0
     21874 TIP3     1053     TIP3     H1       HT       0.417000       1.00800           0
     21875 TIP3     1053     TIP3     H2       HT       0.417000       1.00800           0
     21876 TIP3     1054     TIP3     OH2      OT      -0.834000       15.9994           0
     21877 TIP3     1054     TIP3     H1       HT       0.417000       1.00800           0
     21878 TIP3     1054     TIP3     H2       HT       0.417000       1.00800           0
     21879 TIP3     1055     TIP3     OH2      OT      -0.834000       15.9994           0
     21880 TIP3     1055     TIP3     H1       HT       0.417000       1.00800           0
     21881 TIP3     1055     TIP3     H2       HT       0.417000       1.00800           0
     21882 TIP3     1056     TIP3     OH2      OT      -0.834000       15.9994           0
     21883 TIP3     1056     TIP3     H1       HT       0.417000       1.00800           0
     21884 TIP3     1056     TIP3     H2       HT       0.417000       1.00800           0
     21885 TIP3     1057     TIP3     OH2      OT      -0.834000       15.9994           0
     21886 TIP3     1057     TIP3     H1       HT       0.417000       1.00800           0
     21887 TIP3     1057     TIP3     H2       HT       0.417000       1.00800           0
     21888 TIP3     1058     TIP3     OH2      OT      -0.834000       15.9994           0
     21889 TIP3     1058     TIP3     H1       HT       0.417000       1.00800           0
     21890 TIP3     1058     TIP3     H2       HT       0.417000       1.00800           0
     21891 TIP3     1059     TIP3     OH2      OT      -0.834000       15.9994           0
     21892 TIP3     1059     TIP3     H1       HT       0.417000       1.00800           0
     21893 TIP3     1059     TIP3     H2       HT       0.417000       1.00800           0
     21894 TIP3     1060     TIP3     OH2      OT      -0.834000       15.9994           0
     21895 TIP3     1060     TIP3     H1       HT       0.417000       1.00800           0
     21896 TIP3     1060     TIP3     H2       HT       0.417000       1.00800           0
     21897 TIP3     1061     TIP3     OH2      OT      -0.834000       15.9994           0
     21898 TIP3     1061     TIP3     H1       HT       0.417000       1.00800           0
     21899 TIP3     1061     TIP3     H2       HT       0.417000       1.00800           0
     21900 TIP3     1062     TIP3     OH2      OT      -0.834000       15.9994           0
     21901 TIP3     1062     TIP3     H1       HT       0.417000       1.00800           0
     21902 TIP3     1062     TIP3     H2       HT       0.417000       1.00800           0
     21903 TIP3     1063     TIP3     OH2      OT      -0.834000       15.9994           0
     21904 TIP3     1063     TIP3     H1       HT       0.417000       1.00800           0
     21905 TIP3     1063     TIP3     H2       HT       0.417000       1.00800           0
     21906 TIP3     1064     TIP3     OH2      OT      -0.834000       15.9994           0
     21907 TIP3     1064     TIP3     H1       HT       0.417000       1.00800           0
     21908 TIP3     1064     TIP3     H2       HT       0.417000       1.00800           0
     21909 TIP3     1065     TIP3     OH2      OT      -0.834000       15.9994           0
     21910 TIP3     1065     TIP3     H1       HT       0.417000       1.00800           0
     21911 TIP3     1065     TIP3     H2       HT       0.417000       1.00800           0
     21912 TIP3     1066     TIP3     OH2      OT      -0.834000       15.9994           0
     21913 TIP3     1066     TIP3     H1       HT       0.417000       1.00800           0
     21914 TIP3     1066     TIP3     H2       HT       0.417000       1.00800           0
     21915 TIP3     1067     TIP3     OH2      OT      -0.834000       15.9994           0
     21916 TIP3     1067     TIP3     H1       HT       0.417000       1.00800           0
     21917 TIP3     1067     TIP3     H2       HT       0.417000       1.00800           0
     21918 TIP3     1068     TIP3     OH2      OT      -0.834000       15.9994           0
     21919 TIP3     1068     TIP3     H1       HT       0.417000       1.00800           0
     21920 TIP3     1068     TIP3     H2       HT       0.417000       1.00800           0
     21921 TIP3     1069     TIP3     OH2      OT      -0.834000       15.9994           0
     21922 TIP3     1069     TIP3     H1       HT       0.417000       1.00800           0
     21923 TIP3     1069     TIP3     H2       HT       0.417000       1.00800           0
     21924 TIP3     1070     TIP3     OH2      OT      -0.834000       15.9994           0
     21925 TIP3     1070     TIP3     H1       HT       0.417000       1.00800           0
     21926 TIP3     1070     TIP3     H2       HT       0.417000       1.00800           0
     21927 TIP3     1071     TIP3     OH2      OT      -0.834000       15.9994           0
     21928 TIP3     1071     TIP3     H1       HT       0.417000       1.00800           0
     21929 TIP3     1071     TIP3     H2       HT       0.417000       1.00800           0
     21930 TIP3     1072     TIP3     OH2      OT      -0.834000       15.9994           0
     21931 TIP3     1072     TIP3     H1       HT       0.417000       1.00800           0
     21932 TIP3     1072     TIP3     H2       HT       0.417000       1.00800           0
     21933 TIP3     1073     TIP3     OH2      OT      -0.834000       15.9994           0
     21934 TIP3     1073     TIP3     H1       HT       0.417000       1.00800           0
     21935 TIP3     1073     TIP3     H2       HT       0.417000       1.00800           0
     21936 TIP3     1074     TIP3     OH2      OT      -0.834000       15.9994           0
     21937 TIP3     1074     TIP3     H1       HT       0.417000       1.00800           0
     21938 TIP3     1074     TIP3     H2       HT       0.417000       1.00800           0
     21939 TIP3     1075     TIP3     OH2      OT      -0.834000       15.9994           0
     21940 TIP3     1075     TIP3     H1       HT       0.417000       1.00800           0
     21941 TIP3     1075     TIP3     H2       HT       0.417000       1.00800           0
     21942 TIP3     1076     TIP3     OH2      OT      -0.834000       15.9994           0
     21943 TIP3     1076     TIP3     H1       HT       0.417000       1.00800           0
     21944 TIP3     1076     TIP3     H2       HT       0.417000       1.00800           0
     21945 TIP3     1077     TIP3     OH2      OT      -0.834000       15.9994           0
     21946 TIP3     1077     TIP3     H1       HT       0.417000       1.00800           0
     21947 TIP3     1077     TIP3     H2       HT       0.417000       1.00800           0
     21948 TIP3     1078     TIP3     OH2      OT      -0.834000       15.9994           0
     21949 TIP3     1078     TIP3     H1       HT       0.417000       1.00800           0
     21950 TIP3     1078     TIP3     H2       HT       0.417000       1.00800           0
     21951 TIP3     1079     TIP3     OH2      OT      -0.834000       15.9994           0
     21952 TIP3     1079     TIP3     H1       HT       0.417000       1.00800           0
     21953 TIP3     1079     TIP3     H2       HT       0.417000       1.00800           0
     21954 TIP3     1080     TIP3     OH2      OT      -0.834000       15.9994           0
     21955 TIP3     1080     TIP3     H1       HT       0.417000       1.00800           0
     21956 TIP3     1080     TIP3     H2       HT       0.417000       1.00800           0
     21957 TIP3     1081     TIP3     OH2      OT      -0.834000       15.9994           0
     21958 TIP3     1081     TIP3     H1       HT       0.417000       1.00800           0
     21959 TIP3     1081     TIP3     H2       HT       0.417000       1.00800           0
     21960 TIP3     1082     TIP3     OH2      OT      -0.834000       15.9994           0
     21961 TIP3     1082     TIP3     H1       HT       0.417000       1.00800           0
     21962 TIP3     1082     TIP3     H2       HT       0.417000       1.00800           0
     21963 TIP3     1083     TIP3     OH2      OT      -0.834000       15.9994           0
     21964 TIP3     1083     TIP3     H1       HT       0.417000       1.00800           0
     21965 TIP3     1083     TIP3     H2       HT       0.417000       1.00800           0
     21966 TIP3     1084     TIP3     OH2      OT      -0.834000       15.9994           0
     21967 TIP3     1084     TIP3     H1       HT       0.417000       1.00800           0
     21968 TIP3     1084     TIP3     H2       HT       0.417000       1.00800           0
     21969 TIP3     1085     TIP3     OH2      OT      -0.834000       15.9994           0
     21970 TIP3     1085     TIP3     H1       HT       0.417000       1.00800           0
     21971 TIP3     1085     TIP3     H2       HT       0.417000       1.00800           0
     21972 TIP3     1086     TIP3     OH2      OT      -0.834000       15.9994           0
     21973 TIP3     1086     TIP3     H1       HT       0.417000       1.00800           0
     21974 TIP3     1086     TIP3     H2       HT       0.417000       1.00800           0
     21975 TIP3     1087     TIP3     OH2      OT      -0.834000       15.9994           0
     21976 TIP3     1087     TIP3     H1       HT       0.417000       1.00800           0
     21977 TIP3     1087     TIP3     H2       HT       0.417000       1.00800           0
     21978 TIP3     1088     TIP3     OH2      OT      -0.834000       15.9994           0
     21979 TIP3     1088     TIP3     H1       HT       0.417000       1.00800           0
     21980 TIP3     1088     TIP3     H2       HT       0.417000       1.00800           0
     21981 TIP3     1089     TIP3     OH2      OT      -0.834000       15.9994           0
     21982 TIP3     1089     TIP3     H1       HT       0.417000       1.00800           0
     21983 TIP3     1089     TIP3     H2       HT       0.417000       1.00800           0
     21984 TIP3     1090     TIP3     OH2      OT      -0.834000       15.9994           0
     21985 TIP3     1090     TIP3     H1       HT       0.417000       1.00800           0
     21986 TIP3     1090     TIP3     H2       HT       0.417000       1.00800           0
     21987 TIP3     1091     TIP3     OH2      OT      -0.834000       15.9994           0
     21988 TIP3     1091     TIP3     H1       HT       0.417000       1.00800           0
     21989 TIP3     1091     TIP3     H2       HT       0.417000       1.00800           0
     21990 TIP3     1092     TIP3     OH2      OT      -0.834000       15.9994           0
     21991 TIP3     1092     TIP3     H1       HT       0.417000       1.00800           0
     21992 TIP3     1092     TIP3     H2       HT       0.417000       1.00800           0
     21993 TIP3     1093     TIP3     OH2      OT      -0.834000       15.9994           0
     21994 TIP3     1093     TIP3     H1       HT       0.417000       1.00800           0
     21995 TIP3     1093     TIP3     H2       HT       0.417000       1.00800           0
     21996 TIP3     1094     TIP3     OH2      OT      -0.834000       15.9994           0
     21997 TIP3     1094     TIP3     H1       HT       0.417000       1.00800           0
     21998 TIP3     1094     TIP3     H2       HT       0.417000       1.00800           0
     21999 TIP3     1095     TIP3     OH2      OT      -0.834000       15.9994           0
     22000 TIP3     1095     TIP3     H1       HT       0.417000       1.00800           0
     22001 TIP3     1095     TIP3     H2       HT       0.417000       1.00800           0
     22002 TIP3     1096     TIP3     OH2      OT      -0.834000       15.9994           0
     22003 TIP3     1096     TIP3     H1       HT       0.417000       1.00800           0
     22004 TIP3     1096     TIP3     H2       HT       0.417000       1.00800           0
     22005 TIP3     1097     TIP3     OH2      OT      -0.834000       15.9994           0
     22006 TIP3     1097     TIP3     H1       HT       0.417000       1.00800           0
     22007 TIP3     1097     TIP3     H2       HT       0.417000       1.00800           0
     22008 TIP3     1098     TIP3     OH2      OT      -0.834000       15.9994           0
     22009 TIP3     1098     TIP3     H1       HT       0.417000       1.00800           0
     22010 TIP3     1098     TIP3     H2       HT       0.417000       1.00800           0
     22011 TIP3     1099     TIP3     OH2      OT      -0.834000       15.9994           0
     22012 TIP3     1099     TIP3     H1       HT       0.417000       1.00800           0
     22013 TIP3     1099     TIP3     H2       HT       0.417000       1.00800           0
     22014 TIP3     1100     TIP3     OH2      OT      -0.834000       15.9994           0
     22015 TIP3     1100     TIP3     H1       HT       0.417000       1.00800           0
     22016 TIP3     1100     TIP3     H2       HT       0.417000       1.00800           0
     22017 TIP3     1101     TIP3     OH2      OT      -0.834000       15.9994           0
     22018 TIP3     1101     TIP3     H1       HT       0.417000       1.00800           0
     22019 TIP3     1101     TIP3     H2       HT       0.417000       1.00800           0
     22020 TIP3     1102     TIP3     OH2      OT      -0.834000       15.9994           0
     22021 TIP3     1102     TIP3     H1       HT       0.417000       1.00800           0
     22022 TIP3     1102     TIP3     H2       HT       0.417000       1.00800           0
     22023 TIP3     1103     TIP3     OH2      OT      -0.834000       15.9994           0
     22024 TIP3     1103     TIP3     H1       HT       0.417000       1.00800           0
     22025 TIP3     1103     TIP3     H2       HT       0.417000       1.00800           0
     22026 TIP3     1104     TIP3     OH2      OT      -0.834000       15.9994           0
     22027 TIP3     1104     TIP3     H1       HT       0.417000       1.00800           0
     22028 TIP3     1104     TIP3     H2       HT       0.417000       1.00800           0
     22029 TIP3     1105     TIP3     OH2      OT      -0.834000       15.9994           0
     22030 TIP3     1105     TIP3     H1       HT       0.417000       1.00800           0
     22031 TIP3     1105     TIP3     H2       HT       0.417000       1.00800           0
     22032 TIP3     1106     TIP3     OH2      OT      -0.834000       15.9994           0
     22033 TIP3     1106     TIP3     H1       HT       0.417000       1.00800           0
     22034 TIP3     1106     TIP3     H2       HT       0.417000       1.00800           0
     22035 TIP3     1107     TIP3     OH2      OT      -0.834000       15.9994           0
     22036 TIP3     1107     TIP3     H1       HT       0.417000       1.00800           0
     22037 TIP3     1107     TIP3     H2       HT       0.417000       1.00800           0
     22038 TIP3     1108     TIP3     OH2      OT      -0.834000       15.9994           0
     22039 TIP3     1108     TIP3     H1       HT       0.417000       1.00800           0
     22040 TIP3     1108     TIP3     H2       HT       0.417000       1.00800           0
     22041 TIP3     1109     TIP3     OH2      OT      -0.834000       15.9994           0
     22042 TIP3     1109     TIP3     H1       HT       0.417000       1.00800           0
     22043 TIP3     1109     TIP3     H2       HT       0.417000       1.00800           0
     22044 TIP3     1110     TIP3     OH2      OT      -0.834000       15.9994           0
     22045 TIP3     1110     TIP3     H1       HT       0.417000       1.00800           0
     22046 TIP3     1110     TIP3     H2       HT       0.417000       1.00800           0
     22047 TIP3     1111     TIP3     OH2      OT      -0.834000       15.9994           0
     22048 TIP3     1111     TIP3     H1       HT       0.417000       1.00800           0
     22049 TIP3     1111     TIP3     H2       HT       0.417000       1.00800           0
     22050 TIP3     1112     TIP3     OH2      OT      -0.834000       15.9994           0
     22051 TIP3     1112     TIP3     H1       HT       0.417000       1.00800           0
     22052 TIP3     1112     TIP3     H2       HT       0.417000       1.00800           0
     22053 TIP3     1113     TIP3     OH2      OT      -0.834000       15.9994           0
     22054 TIP3     1113     TIP3     H1       HT       0.417000       1.00800           0
     22055 TIP3     1113     TIP3     H2       HT       0.417000       1.00800           0
     22056 TIP3     1114     TIP3     OH2      OT      -0.834000       15.9994           0
     22057 TIP3     1114     TIP3     H1       HT       0.417000       1.00800           0
     22058 TIP3     1114     TIP3     H2       HT       0.417000       1.00800           0
     22059 TIP3     1115     TIP3     OH2      OT      -0.834000       15.9994           0
     22060 TIP3     1115     TIP3     H1       HT       0.417000       1.00800           0
     22061 TIP3     1115     TIP3     H2       HT       0.417000       1.00800           0
     22062 TIP3     1116     TIP3     OH2      OT      -0.834000       15.9994           0
     22063 TIP3     1116     TIP3     H1       HT       0.417000       1.00800           0
     22064 TIP3     1116     TIP3     H2       HT       0.417000       1.00800           0
     22065 TIP3     1117     TIP3     OH2      OT      -0.834000       15.9994           0
     22066 TIP3     1117     TIP3     H1       HT       0.417000       1.00800           0
     22067 TIP3     1117     TIP3     H2       HT       0.417000       1.00800           0
     22068 TIP3     1118     TIP3     OH2      OT      -0.834000       15.9994           0
     22069 TIP3     1118     TIP3     H1       HT       0.417000       1.00800           0
     22070 TIP3     1118     TIP3     H2       HT       0.417000       1.00800           0
     22071 TIP3     1119     TIP3     OH2      OT      -0.834000       15.9994           0
     22072 TIP3     1119     TIP3     H1       HT       0.417000       1.00800           0
     22073 TIP3     1119     TIP3     H2       HT       0.417000       1.00800           0
     22074 TIP3     1120     TIP3     OH2      OT      -0.834000       15.9994           0
     22075 TIP3     1120     TIP3     H1       HT       0.417000       1.00800           0
     22076 TIP3     1120     TIP3     H2       HT       0.417000       1.00800           0
     22077 TIP3     1121     TIP3     OH2      OT      -0.834000       15.9994           0
     22078 TIP3     1121     TIP3     H1       HT       0.417000       1.00800           0
     22079 TIP3     1121     TIP3     H2       HT       0.417000       1.00800           0
     22080 TIP3     1122     TIP3     OH2      OT      -0.834000       15.9994           0
     22081 TIP3     1122     TIP3     H1       HT       0.417000       1.00800           0
     22082 TIP3     1122     TIP3     H2       HT       0.417000       1.00800           0
     22083 TIP3     1123     TIP3     OH2      OT      -0.834000       15.9994           0
     22084 TIP3     1123     TIP3     H1       HT       0.417000       1.00800           0
     22085 TIP3     1123     TIP3     H2       HT       0.417000       1.00800           0
     22086 TIP3     1124     TIP3     OH2      OT      -0.834000       15.9994           0
     22087 TIP3     1124     TIP3     H1       HT       0.417000       1.00800           0
     22088 TIP3     1124     TIP3     H2       HT       0.417000       1.00800           0
     22089 TIP3     1125     TIP3     OH2      OT      -0.834000       15.9994           0
     22090 TIP3     1125     TIP3     H1       HT       0.417000       1.00800           0
     22091 TIP3     1125     TIP3     H2       HT       0.417000       1.00800           0
     22092 TIP3     1126     TIP3     OH2      OT      -0.834000       15.9994           0
     22093 TIP3     1126     TIP3     H1       HT       0.417000       1.00800           0
     22094 TIP3     1126     TIP3     H2       HT       0.417000       1.00800           0
     22095 TIP3     1127     TIP3     OH2      OT      -0.834000       15.9994           0
     22096 TIP3     1127     TIP3     H1       HT       0.417000       1.00800           0
     22097 TIP3     1127     TIP3     H2       HT       0.417000       1.00800           0
     22098 TIP3     1128     TIP3     OH2      OT      -0.834000       15.9994           0
     22099 TIP3     1128     TIP3     H1       HT       0.417000       1.00800           0
     22100 TIP3     1128     TIP3     H2       HT       0.417000       1.00800           0
     22101 TIP3     1129     TIP3     OH2      OT      -0.834000       15.9994           0
     22102 TIP3     1129     TIP3     H1       HT       0.417000       1.00800           0
     22103 TIP3     1129     TIP3     H2       HT       0.417000       1.00800           0
     22104 TIP3     1130     TIP3     OH2      OT      -0.834000       15.9994           0
     22105 TIP3     1130     TIP3     H1       HT       0.417000       1.00800           0
     22106 TIP3     1130     TIP3     H2       HT       0.417000       1.00800           0
     22107 TIP3     1131     TIP3     OH2      OT      -0.834000       15.9994           0
     22108 TIP3     1131     TIP3     H1       HT       0.417000       1.00800           0
     22109 TIP3     1131     TIP3     H2       HT       0.417000       1.00800           0
     22110 TIP3     1132     TIP3     OH2      OT      -0.834000       15.9994           0
     22111 TIP3     1132     TIP3     H1       HT       0.417000       1.00800           0
     22112 TIP3     1132     TIP3     H2       HT       0.417000       1.00800           0
     22113 TIP3     1133     TIP3     OH2      OT      -0.834000       15.9994           0
     22114 TIP3     1133     TIP3     H1       HT       0.417000       1.00800           0
     22115 TIP3     1133     TIP3     H2       HT       0.417000       1.00800           0
     22116 TIP3     1134     TIP3     OH2      OT      -0.834000       15.9994           0
     22117 TIP3     1134     TIP3     H1       HT       0.417000       1.00800           0
     22118 TIP3     1134     TIP3     H2       HT       0.417000       1.00800           0
     22119 TIP3     1135     TIP3     OH2      OT      -0.834000       15.9994           0
     22120 TIP3     1135     TIP3     H1       HT       0.417000       1.00800           0
     22121 TIP3     1135     TIP3     H2       HT       0.417000       1.00800           0
     22122 TIP3     1136     TIP3     OH2      OT      -0.834000       15.9994           0
     22123 TIP3     1136     TIP3     H1       HT       0.417000       1.00800           0
     22124 TIP3     1136     TIP3     H2       HT       0.417000       1.00800           0
     22125 TIP3     1137     TIP3     OH2      OT      -0.834000       15.9994           0
     22126 TIP3     1137     TIP3     H1       HT       0.417000       1.00800           0
     22127 TIP3     1137     TIP3     H2       HT       0.417000       1.00800           0
     22128 TIP3     1138     TIP3     OH2      OT      -0.834000       15.9994           0
     22129 TIP3     1138     TIP3     H1       HT       0.417000       1.00800           0
     22130 TIP3     1138     TIP3     H2       HT       0.417000       1.00800           0
     22131 TIP3     1139     TIP3     OH2      OT      -0.834000       15.9994           0
     22132 TIP3     1139     TIP3     H1       HT       0.417000       1.00800           0
     22133 TIP3     1139     TIP3     H2       HT       0.417000       1.00800           0
     22134 TIP3     1140     TIP3     OH2      OT      -0.834000       15.9994           0
     22135 TIP3     1140     TIP3     H1       HT       0.417000       1.00800           0
     22136 TIP3     1140     TIP3     H2       HT       0.417000       1.00800           0
     22137 TIP3     1141     TIP3     OH2      OT      -0.834000       15.9994           0
     22138 TIP3     1141     TIP3     H1       HT       0.417000       1.00800           0
     22139 TIP3     1141     TIP3     H2       HT       0.417000       1.00800           0
     22140 TIP3     1142     TIP3     OH2      OT      -0.834000       15.9994           0
     22141 TIP3     1142     TIP3     H1       HT       0.417000       1.00800           0
     22142 TIP3     1142     TIP3     H2       HT       0.417000       1.00800           0
     22143 TIP3     1143     TIP3     OH2      OT      -0.834000       15.9994           0
     22144 TIP3     1143     TIP3     H1       HT       0.417000       1.00800           0
     22145 TIP3     1143     TIP3     H2       HT       0.417000       1.00800           0
     22146 TIP3     1144     TIP3     OH2      OT      -0.834000       15.9994           0
     22147 TIP3     1144     TIP3     H1       HT       0.417000       1.00800           0
     22148 TIP3     1144     TIP3     H2       HT       0.417000       1.00800           0
     22149 TIP3     1145     TIP3     OH2      OT      -0.834000       15.9994           0
     22150 TIP3     1145     TIP3     H1       HT       0.417000       1.00800           0
     22151 TIP3     1145     TIP3     H2       HT       0.417000       1.00800           0
     22152 TIP3     1146     TIP3     OH2      OT      -0.834000       15.9994           0
     22153 TIP3     1146     TIP3     H1       HT       0.417000       1.00800           0
     22154 TIP3     1146     TIP3     H2       HT       0.417000       1.00800           0
     22155 TIP3     1147     TIP3     OH2      OT      -0.834000       15.9994           0
     22156 TIP3     1147     TIP3     H1       HT       0.417000       1.00800           0
     22157 TIP3     1147     TIP3     H2       HT       0.417000       1.00800           0
     22158 TIP3     1148     TIP3     OH2      OT      -0.834000       15.9994           0
     22159 TIP3     1148     TIP3     H1       HT       0.417000       1.00800           0
     22160 TIP3     1148     TIP3     H2       HT       0.417000       1.00800           0
     22161 TIP3     1149     TIP3     OH2      OT      -0.834000       15.9994           0
     22162 TIP3     1149     TIP3     H1       HT       0.417000       1.00800           0
     22163 TIP3     1149     TIP3     H2       HT       0.417000       1.00800           0
     22164 TIP3     1150     TIP3     OH2      OT      -0.834000       15.9994           0
     22165 TIP3     1150     TIP3     H1       HT       0.417000       1.00800           0
     22166 TIP3     1150     TIP3     H2       HT       0.417000       1.00800           0
     22167 TIP3     1151     TIP3     OH2      OT      -0.834000       15.9994           0
     22168 TIP3     1151     TIP3     H1       HT       0.417000       1.00800           0
     22169 TIP3     1151     TIP3     H2       HT       0.417000       1.00800           0
     22170 TIP3     1152     TIP3     OH2      OT      -0.834000       15.9994           0
     22171 TIP3     1152     TIP3     H1       HT       0.417000       1.00800           0
     22172 TIP3     1152     TIP3     H2       HT       0.417000       1.00800           0
     22173 TIP3     1153     TIP3     OH2      OT      -0.834000       15.9994           0
     22174 TIP3     1153     TIP3     H1       HT       0.417000       1.00800           0
     22175 TIP3     1153     TIP3     H2       HT       0.417000       1.00800           0
     22176 TIP3     1154     TIP3     OH2      OT      -0.834000       15.9994           0
     22177 TIP3     1154     TIP3     H1       HT       0.417000       1.00800           0
     22178 TIP3     1154     TIP3     H2       HT       0.417000       1.00800           0
     22179 TIP3     1155     TIP3     OH2      OT      -0.834000       15.9994           0
     22180 TIP3     1155     TIP3     H1       HT       0.417000       1.00800           0
     22181 TIP3     1155     TIP3     H2       HT       0.417000       1.00800           0
     22182 TIP3     1156     TIP3     OH2      OT      -0.834000       15.9994           0
     22183 TIP3     1156     TIP3     H1       HT       0.417000       1.00800           0
     22184 TIP3     1156     TIP3     H2       HT       0.417000       1.00800           0
     22185 TIP3     1157     TIP3     OH2      OT      -0.834000       15.9994           0
     22186 TIP3     1157     TIP3     H1       HT       0.417000       1.00800           0
     22187 TIP3     1157     TIP3     H2       HT       0.417000       1.00800           0
     22188 TIP3     1158     TIP3     OH2      OT      -0.834000       15.9994           0
     22189 TIP3     1158     TIP3     H1       HT       0.417000       1.00800           0
     22190 TIP3     1158     TIP3     H2       HT       0.417000       1.00800           0
     22191 TIP3     1159     TIP3     OH2      OT      -0.834000       15.9994           0
     22192 TIP3     1159     TIP3     H1       HT       0.417000       1.00800           0
     22193 TIP3     1159     TIP3     H2       HT       0.417000       1.00800           0
     22194 TIP3     1160     TIP3     OH2      OT      -0.834000       15.9994           0
     22195 TIP3     1160     TIP3     H1       HT       0.417000       1.00800           0
     22196 TIP3     1160     TIP3     H2       HT       0.417000       1.00800           0
     22197 TIP3     1161     TIP3     OH2      OT      -0.834000       15.9994           0
     22198 TIP3     1161     TIP3     H1       HT       0.417000       1.00800           0
     22199 TIP3     1161     TIP3     H2       HT       0.417000       1.00800           0
     22200 TIP3     1162     TIP3     OH2      OT      -0.834000       15.9994           0
     22201 TIP3     1162     TIP3     H1       HT       0.417000       1.00800           0
     22202 TIP3     1162     TIP3     H2       HT       0.417000       1.00800           0
     22203 TIP3     1163     TIP3     OH2      OT      -0.834000       15.9994           0
     22204 TIP3     1163     TIP3     H1       HT       0.417000       1.00800           0
     22205 TIP3     1163     TIP3     H2       HT       0.417000       1.00800           0
     22206 TIP3     1164     TIP3     OH2      OT      -0.834000       15.9994           0
     22207 TIP3     1164     TIP3     H1       HT       0.417000       1.00800           0
     22208 TIP3     1164     TIP3     H2       HT       0.417000       1.00800           0
     22209 TIP3     1165     TIP3     OH2      OT      -0.834000       15.9994           0
     22210 TIP3     1165     TIP3     H1       HT       0.417000       1.00800           0
     22211 TIP3     1165     TIP3     H2       HT       0.417000       1.00800           0
     22212 TIP3     1166     TIP3     OH2      OT      -0.834000       15.9994           0
     22213 TIP3     1166     TIP3     H1       HT       0.417000       1.00800           0
     22214 TIP3     1166     TIP3     H2       HT       0.417000       1.00800           0
     22215 TIP3     1167     TIP3     OH2      OT      -0.834000       15.9994           0
     22216 TIP3     1167     TIP3     H1       HT       0.417000       1.00800           0
     22217 TIP3     1167     TIP3     H2       HT       0.417000       1.00800           0
     22218 TIP3     1168     TIP3     OH2      OT      -0.834000       15.9994           0
     22219 TIP3     1168     TIP3     H1       HT       0.417000       1.00800           0
     22220 TIP3     1168     TIP3     H2       HT       0.417000       1.00800           0
     22221 TIP3     1169     TIP3     OH2      OT      -0.834000       15.9994           0
     22222 TIP3     1169     TIP3     H1       HT       0.417000       1.00800           0
     22223 TIP3     1169     TIP3     H2       HT       0.417000       1.00800           0
     22224 TIP3     1170     TIP3     OH2      OT      -0.834000       15.9994           0
     22225 TIP3     1170     TIP3     H1       HT       0.417000       1.00800           0
     22226 TIP3     1170     TIP3     H2       HT       0.417000       1.00800           0
     22227 TIP3     1171     TIP3     OH2      OT      -0.834000       15.9994           0
     22228 TIP3     1171     TIP3     H1       HT       0.417000       1.00800           0
     22229 TIP3     1171     TIP3     H2       HT       0.417000       1.00800           0
     22230 TIP3     1172     TIP3     OH2      OT      -0.834000       15.9994           0
     22231 TIP3     1172     TIP3     H1       HT       0.417000       1.00800           0
     22232 TIP3     1172     TIP3     H2       HT       0.417000       1.00800           0
     22233 TIP3     1173     TIP3     OH2      OT      -0.834000       15.9994           0
     22234 TIP3     1173     TIP3     H1       HT       0.417000       1.00800           0
     22235 TIP3     1173     TIP3     H2       HT       0.417000       1.00800           0
     22236 TIP3     1174     TIP3     OH2      OT      -0.834000       15.9994           0
     22237 TIP3     1174     TIP3     H1       HT       0.417000       1.00800           0
     22238 TIP3     1174     TIP3     H2       HT       0.417000       1.00800           0
     22239 TIP3     1175     TIP3     OH2      OT      -0.834000       15.9994           0
     22240 TIP3     1175     TIP3     H1       HT       0.417000       1.00800           0
     22241 TIP3     1175     TIP3     H2       HT       0.417000       1.00800           0
     22242 TIP3     1176     TIP3     OH2      OT      -0.834000       15.9994           0
     22243 TIP3     1176     TIP3     H1       HT       0.417000       1.00800           0
     22244 TIP3     1176     TIP3     H2       HT       0.417000       1.00800           0
     22245 TIP3     1177     TIP3     OH2      OT      -0.834000       15.9994           0
     22246 TIP3     1177     TIP3     H1       HT       0.417000       1.00800           0
     22247 TIP3     1177     TIP3     H2       HT       0.417000       1.00800           0
     22248 TIP3     1178     TIP3     OH2      OT      -0.834000       15.9994           0
     22249 TIP3     1178     TIP3     H1       HT       0.417000       1.00800           0
     22250 TIP3     1178     TIP3     H2       HT       0.417000       1.00800           0
     22251 TIP3     1179     TIP3     OH2      OT      -0.834000       15.9994           0
     22252 TIP3     1179     TIP3     H1       HT       0.417000       1.00800           0
     22253 TIP3     1179     TIP3     H2       HT       0.417000       1.00800           0
     22254 TIP3     1180     TIP3     OH2      OT      -0.834000       15.9994           0
     22255 TIP3     1180     TIP3     H1       HT       0.417000       1.00800           0
     22256 TIP3     1180     TIP3     H2       HT       0.417000       1.00800           0
     22257 TIP3     1181     TIP3     OH2      OT      -0.834000       15.9994           0
     22258 TIP3     1181     TIP3     H1       HT       0.417000       1.00800           0
     22259 TIP3     1181     TIP3     H2       HT       0.417000       1.00800           0
     22260 TIP3     1182     TIP3     OH2      OT      -0.834000       15.9994           0
     22261 TIP3     1182     TIP3     H1       HT       0.417000       1.00800           0
     22262 TIP3     1182     TIP3     H2       HT       0.417000       1.00800           0
     22263 TIP3     1183     TIP3     OH2      OT      -0.834000       15.9994           0
     22264 TIP3     1183     TIP3     H1       HT       0.417000       1.00800           0
     22265 TIP3     1183     TIP3     H2       HT       0.417000       1.00800           0
     22266 TIP3     1184     TIP3     OH2      OT      -0.834000       15.9994           0
     22267 TIP3     1184     TIP3     H1       HT       0.417000       1.00800           0
     22268 TIP3     1184     TIP3     H2       HT       0.417000       1.00800           0
     22269 TIP3     1185     TIP3     OH2      OT      -0.834000       15.9994           0
     22270 TIP3     1185     TIP3     H1       HT       0.417000       1.00800           0
     22271 TIP3     1185     TIP3     H2       HT       0.417000       1.00800           0
     22272 TIP3     1186     TIP3     OH2      OT      -0.834000       15.9994           0
     22273 TIP3     1186     TIP3     H1       HT       0.417000       1.00800           0
     22274 TIP3     1186     TIP3     H2       HT       0.417000       1.00800           0
     22275 TIP3     1187     TIP3     OH2      OT      -0.834000       15.9994           0
     22276 TIP3     1187     TIP3     H1       HT       0.417000       1.00800           0
     22277 TIP3     1187     TIP3     H2       HT       0.417000       1.00800           0
     22278 TIP3     1188     TIP3     OH2      OT      -0.834000       15.9994           0
     22279 TIP3     1188     TIP3     H1       HT       0.417000       1.00800           0
     22280 TIP3     1188     TIP3     H2       HT       0.417000       1.00800           0
     22281 TIP3     1189     TIP3     OH2      OT      -0.834000       15.9994           0
     22282 TIP3     1189     TIP3     H1       HT       0.417000       1.00800           0
     22283 TIP3     1189     TIP3     H2       HT       0.417000       1.00800           0
     22284 TIP3     1190     TIP3     OH2      OT      -0.834000       15.9994           0
     22285 TIP3     1190     TIP3     H1       HT       0.417000       1.00800           0
     22286 TIP3     1190     TIP3     H2       HT       0.417000       1.00800           0
     22287 TIP3     1191     TIP3     OH2      OT      -0.834000       15.9994           0
     22288 TIP3     1191     TIP3     H1       HT       0.417000       1.00800           0
     22289 TIP3     1191     TIP3     H2       HT       0.417000       1.00800           0
     22290 TIP3     1192     TIP3     OH2      OT      -0.834000       15.9994           0
     22291 TIP3     1192     TIP3     H1       HT       0.417000       1.00800           0
     22292 TIP3     1192     TIP3     H2       HT       0.417000       1.00800           0
     22293 TIP3     1193     TIP3     OH2      OT      -0.834000       15.9994           0
     22294 TIP3     1193     TIP3     H1       HT       0.417000       1.00800           0
     22295 TIP3     1193     TIP3     H2       HT       0.417000       1.00800           0
     22296 TIP3     1194     TIP3     OH2      OT      -0.834000       15.9994           0
     22297 TIP3     1194     TIP3     H1       HT       0.417000       1.00800           0
     22298 TIP3     1194     TIP3     H2       HT       0.417000       1.00800           0
     22299 TIP3     1195     TIP3     OH2      OT      -0.834000       15.9994           0
     22300 TIP3     1195     TIP3     H1       HT       0.417000       1.00800           0
     22301 TIP3     1195     TIP3     H2       HT       0.417000       1.00800           0
     22302 TIP3     1196     TIP3     OH2      OT      -0.834000       15.9994           0
     22303 TIP3     1196     TIP3     H1       HT       0.417000       1.00800           0
     22304 TIP3     1196     TIP3     H2       HT       0.417000       1.00800           0
     22305 TIP3     1197     TIP3     OH2      OT      -0.834000       15.9994           0
     22306 TIP3     1197     TIP3     H1       HT       0.417000       1.00800           0
     22307 TIP3     1197     TIP3     H2       HT       0.417000       1.00800           0
     22308 TIP3     1198     TIP3     OH2      OT      -0.834000       15.9994           0
     22309 TIP3     1198     TIP3     H1       HT       0.417000       1.00800           0
     22310 TIP3     1198     TIP3     H2       HT       0.417000       1.00800           0
     22311 TIP3     1199     TIP3     OH2      OT      -0.834000       15.9994           0
     22312 TIP3     1199     TIP3     H1       HT       0.417000       1.00800           0
     22313 TIP3     1199     TIP3     H2       HT       0.417000       1.00800           0
     22314 TIP3     1200     TIP3     OH2      OT      -0.834000       15.9994           0
     22315 TIP3     1200     TIP3     H1       HT       0.417000       1.00800           0
     22316 TIP3     1200     TIP3     H2       HT       0.417000       1.00800           0
     22317 TIP3     1201     TIP3     OH2      OT      -0.834000       15.9994           0
     22318 TIP3     1201     TIP3     H1       HT       0.417000       1.00800           0
     22319 TIP3     1201     TIP3     H2       HT       0.417000       1.00800           0
     22320 TIP3     1202     TIP3     OH2      OT      -0.834000       15.9994           0
     22321 TIP3     1202     TIP3     H1       HT       0.417000       1.00800           0
     22322 TIP3     1202     TIP3     H2       HT       0.417000       1.00800           0
     22323 TIP3     1203     TIP3     OH2      OT      -0.834000       15.9994           0
     22324 TIP3     1203     TIP3     H1       HT       0.417000       1.00800           0
     22325 TIP3     1203     TIP3     H2       HT       0.417000       1.00800           0
     22326 TIP3     1204     TIP3     OH2      OT      -0.834000       15.9994           0
     22327 TIP3     1204     TIP3     H1       HT       0.417000       1.00800           0
     22328 TIP3     1204     TIP3     H2       HT       0.417000       1.00800           0
     22329 TIP3     1205     TIP3     OH2      OT      -0.834000       15.9994           0
     22330 TIP3     1205     TIP3     H1       HT       0.417000       1.00800           0
     22331 TIP3     1205     TIP3     H2       HT       0.417000       1.00800           0
     22332 TIP3     1206     TIP3     OH2      OT      -0.834000       15.9994           0
     22333 TIP3     1206     TIP3     H1       HT       0.417000       1.00800           0
     22334 TIP3     1206     TIP3     H2       HT       0.417000       1.00800           0
     22335 TIP3     1207     TIP3     OH2      OT      -0.834000       15.9994           0
     22336 TIP3     1207     TIP3     H1       HT       0.417000       1.00800           0
     22337 TIP3     1207     TIP3     H2       HT       0.417000       1.00800           0
     22338 TIP3     1208     TIP3     OH2      OT      -0.834000       15.9994           0
     22339 TIP3     1208     TIP3     H1       HT       0.417000       1.00800           0
     22340 TIP3     1208     TIP3     H2       HT       0.417000       1.00800           0
     22341 TIP3     1209     TIP3     OH2      OT      -0.834000       15.9994           0
     22342 TIP3     1209     TIP3     H1       HT       0.417000       1.00800           0
     22343 TIP3     1209     TIP3     H2       HT       0.417000       1.00800           0
     22344 TIP3     1210     TIP3     OH2      OT      -0.834000       15.9994           0
     22345 TIP3     1210     TIP3     H1       HT       0.417000       1.00800           0
     22346 TIP3     1210     TIP3     H2       HT       0.417000       1.00800           0
     22347 TIP3     1211     TIP3     OH2      OT      -0.834000       15.9994           0
     22348 TIP3     1211     TIP3     H1       HT       0.417000       1.00800           0
     22349 TIP3     1211     TIP3     H2       HT       0.417000       1.00800           0
     22350 TIP3     1212     TIP3     OH2      OT      -0.834000       15.9994           0
     22351 TIP3     1212     TIP3     H1       HT       0.417000       1.00800           0
     22352 TIP3     1212     TIP3     H2       HT       0.417000       1.00800           0
     22353 TIP3     1213     TIP3     OH2      OT      -0.834000       15.9994           0
     22354 TIP3     1213     TIP3     H1       HT       0.417000       1.00800           0
     22355 TIP3     1213     TIP3     H2       HT       0.417000       1.00800           0
     22356 TIP3     1214     TIP3     OH2      OT      -0.834000       15.9994           0
     22357 TIP3     1214     TIP3     H1       HT       0.417000       1.00800           0
     22358 TIP3     1214     TIP3     H2       HT       0.417000       1.00800           0
     22359 TIP3     1215     TIP3     OH2      OT      -0.834000       15.9994           0
     22360 TIP3     1215     TIP3     H1       HT       0.417000       1.00800           0
     22361 TIP3     1215     TIP3     H2       HT       0.417000       1.00800           0
     22362 TIP3     1216     TIP3     OH2      OT      -0.834000       15.9994           0
     22363 TIP3     1216     TIP3     H1       HT       0.417000       1.00800           0
     22364 TIP3     1216     TIP3     H2       HT       0.417000       1.00800           0
     22365 TIP3     1217     TIP3     OH2      OT      -0.834000       15.9994           0
     22366 TIP3     1217     TIP3     H1       HT       0.417000       1.00800           0
     22367 TIP3     1217     TIP3     H2       HT       0.417000       1.00800           0
     22368 TIP3     1218     TIP3     OH2      OT      -0.834000       15.9994           0
     22369 TIP3     1218     TIP3     H1       HT       0.417000       1.00800           0
     22370 TIP3     1218     TIP3     H2       HT       0.417000       1.00800           0
     22371 TIP3     1219     TIP3     OH2      OT      -0.834000       15.9994           0
     22372 TIP3     1219     TIP3     H1       HT       0.417000       1.00800           0
     22373 TIP3     1219     TIP3     H2       HT       0.417000       1.00800           0
     22374 TIP3     1220     TIP3     OH2      OT      -0.834000       15.9994           0
     22375 TIP3     1220     TIP3     H1       HT       0.417000       1.00800           0
     22376 TIP3     1220     TIP3     H2       HT       0.417000       1.00800           0
     22377 TIP3     1221     TIP3     OH2      OT      -0.834000       15.9994           0
     22378 TIP3     1221     TIP3     H1       HT       0.417000       1.00800           0
     22379 TIP3     1221     TIP3     H2       HT       0.417000       1.00800           0
     22380 TIP3     1222     TIP3     OH2      OT      -0.834000       15.9994           0
     22381 TIP3     1222     TIP3     H1       HT       0.417000       1.00800           0
     22382 TIP3     1222     TIP3     H2       HT       0.417000       1.00800           0
     22383 TIP3     1223     TIP3     OH2      OT      -0.834000       15.9994           0
     22384 TIP3     1223     TIP3     H1       HT       0.417000       1.00800           0
     22385 TIP3     1223     TIP3     H2       HT       0.417000       1.00800           0
     22386 TIP3     1224     TIP3     OH2      OT      -0.834000       15.9994           0
     22387 TIP3     1224     TIP3     H1       HT       0.417000       1.00800           0
     22388 TIP3     1224     TIP3     H2       HT       0.417000       1.00800           0
     22389 TIP3     1225     TIP3     OH2      OT      -0.834000       15.9994           0
     22390 TIP3     1225     TIP3     H1       HT       0.417000       1.00800           0
     22391 TIP3     1225     TIP3     H2       HT       0.417000       1.00800           0
     22392 TIP3     1226     TIP3     OH2      OT      -0.834000       15.9994           0
     22393 TIP3     1226     TIP3     H1       HT       0.417000       1.00800           0
     22394 TIP3     1226     TIP3     H2       HT       0.417000       1.00800           0
     22395 TIP3     1227     TIP3     OH2      OT      -0.834000       15.9994           0
     22396 TIP3     1227     TIP3     H1       HT       0.417000       1.00800           0
     22397 TIP3     1227     TIP3     H2       HT       0.417000       1.00800           0
     22398 TIP3     1228     TIP3     OH2      OT      -0.834000       15.9994           0
     22399 TIP3     1228     TIP3     H1       HT       0.417000       1.00800           0
     22400 TIP3     1228     TIP3     H2       HT       0.417000       1.00800           0
     22401 TIP3     1229     TIP3     OH2      OT      -0.834000       15.9994           0
     22402 TIP3     1229     TIP3     H1       HT       0.417000       1.00800           0
     22403 TIP3     1229     TIP3     H2       HT       0.417000       1.00800           0
     22404 TIP3     1230     TIP3     OH2      OT      -0.834000       15.9994           0
     22405 TIP3     1230     TIP3     H1       HT       0.417000       1.00800           0
     22406 TIP3     1230     TIP3     H2       HT       0.417000       1.00800           0
     22407 TIP3     1231     TIP3     OH2      OT      -0.834000       15.9994           0
     22408 TIP3     1231     TIP3     H1       HT       0.417000       1.00800           0
     22409 TIP3     1231     TIP3     H2       HT       0.417000       1.00800           0
     22410 TIP3     1232     TIP3     OH2      OT      -0.834000       15.9994           0
     22411 TIP3     1232     TIP3     H1       HT       0.417000       1.00800           0
     22412 TIP3     1232     TIP3     H2       HT       0.417000       1.00800           0
     22413 TIP3     1233     TIP3     OH2      OT      -0.834000       15.9994           0
     22414 TIP3     1233     TIP3     H1       HT       0.417000       1.00800           0
     22415 TIP3     1233     TIP3     H2       HT       0.417000       1.00800           0
     22416 TIP3     1234     TIP3     OH2      OT      -0.834000       15.9994           0
     22417 TIP3     1234     TIP3     H1       HT       0.417000       1.00800           0
     22418 TIP3     1234     TIP3     H2       HT       0.417000       1.00800           0
     22419 TIP3     1235     TIP3     OH2      OT      -0.834000       15.9994           0
     22420 TIP3     1235     TIP3     H1       HT       0.417000       1.00800           0
     22421 TIP3     1235     TIP3     H2       HT       0.417000       1.00800           0
     22422 TIP3     1236     TIP3     OH2      OT      -0.834000       15.9994           0
     22423 TIP3     1236     TIP3     H1       HT       0.417000       1.00800           0
     22424 TIP3     1236     TIP3     H2       HT       0.417000       1.00800           0
     22425 TIP3     1237     TIP3     OH2      OT      -0.834000       15.9994           0
     22426 TIP3     1237     TIP3     H1       HT       0.417000       1.00800           0
     22427 TIP3     1237     TIP3     H2       HT       0.417000       1.00800           0
     22428 TIP3     1238     TIP3     OH2      OT      -0.834000       15.9994           0
     22429 TIP3     1238     TIP3     H1       HT       0.417000       1.00800           0
     22430 TIP3     1238     TIP3     H2       HT       0.417000       1.00800           0
     22431 TIP3     1239     TIP3     OH2      OT      -0.834000       15.9994           0
     22432 TIP3     1239     TIP3     H1       HT       0.417000       1.00800           0
     22433 TIP3     1239     TIP3     H2       HT       0.417000       1.00800           0
     22434 TIP3     1240     TIP3     OH2      OT      -0.834000       15.9994           0
     22435 TIP3     1240     TIP3     H1       HT       0.417000       1.00800           0
     22436 TIP3     1240     TIP3     H2       HT       0.417000       1.00800           0
     22437 TIP3     1241     TIP3     OH2      OT      -0.834000       15.9994           0
     22438 TIP3     1241     TIP3     H1       HT       0.417000       1.00800           0
     22439 TIP3     1241     TIP3     H2       HT       0.417000       1.00800           0
     22440 TIP3     1242     TIP3     OH2      OT      -0.834000       15.9994           0
     22441 TIP3     1242     TIP3     H1       HT       0.417000       1.00800           0
     22442 TIP3     1242     TIP3     H2       HT       0.417000       1.00800           0
     22443 TIP3     1243     TIP3     OH2      OT      -0.834000       15.9994           0
     22444 TIP3     1243     TIP3     H1       HT       0.417000       1.00800           0
     22445 TIP3     1243     TIP3     H2       HT       0.417000       1.00800           0
     22446 TIP3     1244     TIP3     OH2      OT      -0.834000       15.9994           0
     22447 TIP3     1244     TIP3     H1       HT       0.417000       1.00800           0
     22448 TIP3     1244     TIP3     H2       HT       0.417000       1.00800           0
     22449 TIP3     1245     TIP3     OH2      OT      -0.834000       15.9994           0
     22450 TIP3     1245     TIP3     H1       HT       0.417000       1.00800           0
     22451 TIP3     1245     TIP3     H2       HT       0.417000       1.00800           0
     22452 TIP3     1246     TIP3     OH2      OT      -0.834000       15.9994           0
     22453 TIP3     1246     TIP3     H1       HT       0.417000       1.00800           0
     22454 TIP3     1246     TIP3     H2       HT       0.417000       1.00800           0
     22455 TIP3     1247     TIP3     OH2      OT      -0.834000       15.9994           0
     22456 TIP3     1247     TIP3     H1       HT       0.417000       1.00800           0
     22457 TIP3     1247     TIP3     H2       HT       0.417000       1.00800           0
     22458 TIP3     1248     TIP3     OH2      OT      -0.834000       15.9994           0
     22459 TIP3     1248     TIP3     H1       HT       0.417000       1.00800           0
     22460 TIP3     1248     TIP3     H2       HT       0.417000       1.00800           0
     22461 TIP3     1249     TIP3     OH2      OT      -0.834000       15.9994           0
     22462 TIP3     1249     TIP3     H1       HT       0.417000       1.00800           0
     22463 TIP3     1249     TIP3     H2       HT       0.417000       1.00800           0
     22464 TIP3     1250     TIP3     OH2      OT      -0.834000       15.9994           0
     22465 TIP3     1250     TIP3     H1       HT       0.417000       1.00800           0
     22466 TIP3     1250     TIP3     H2       HT       0.417000       1.00800           0
     22467 TIP3     1251     TIP3     OH2      OT      -0.834000       15.9994           0
     22468 TIP3     1251     TIP3     H1       HT       0.417000       1.00800           0
     22469 TIP3     1251     TIP3     H2       HT       0.417000       1.00800           0
     22470 TIP3     1252     TIP3     OH2      OT      -0.834000       15.9994           0
     22471 TIP3     1252     TIP3     H1       HT       0.417000       1.00800           0
     22472 TIP3     1252     TIP3     H2       HT       0.417000       1.00800           0
     22473 TIP3     1253     TIP3     OH2      OT      -0.834000       15.9994           0
     22474 TIP3     1253     TIP3     H1       HT       0.417000       1.00800           0
     22475 TIP3     1253     TIP3     H2       HT       0.417000       1.00800           0
     22476 TIP3     1254     TIP3     OH2      OT      -0.834000       15.9994           0
     22477 TIP3     1254     TIP3     H1       HT       0.417000       1.00800           0
     22478 TIP3     1254     TIP3     H2       HT       0.417000       1.00800           0
     22479 TIP3     1255     TIP3     OH2      OT      -0.834000       15.9994           0
     22480 TIP3     1255     TIP3     H1       HT       0.417000       1.00800           0
     22481 TIP3     1255     TIP3     H2       HT       0.417000       1.00800           0
     22482 TIP3     1256     TIP3     OH2      OT      -0.834000       15.9994           0
     22483 TIP3     1256     TIP3     H1       HT       0.417000       1.00800           0
     22484 TIP3     1256     TIP3     H2       HT       0.417000       1.00800           0
     22485 TIP3     1257     TIP3     OH2      OT      -0.834000       15.9994           0
     22486 TIP3     1257     TIP3     H1       HT       0.417000       1.00800           0
     22487 TIP3     1257     TIP3     H2       HT       0.417000       1.00800           0
     22488 TIP3     1258     TIP3     OH2      OT      -0.834000       15.9994           0
     22489 TIP3     1258     TIP3     H1       HT       0.417000       1.00800           0
     22490 TIP3     1258     TIP3     H2       HT       0.417000       1.00800           0
     22491 TIP3     1259     TIP3     OH2      OT      -0.834000       15.9994           0
     22492 TIP3     1259     TIP3     H1       HT       0.417000       1.00800           0
     22493 TIP3     1259     TIP3     H2       HT       0.417000       1.00800           0
     22494 TIP3     1260     TIP3     OH2      OT      -0.834000       15.9994           0
     22495 TIP3     1260     TIP3     H1       HT       0.417000       1.00800           0
     22496 TIP3     1260     TIP3     H2       HT       0.417000       1.00800           0
     22497 TIP3     1261     TIP3     OH2      OT      -0.834000       15.9994           0
     22498 TIP3     1261     TIP3     H1       HT       0.417000       1.00800           0
     22499 TIP3     1261     TIP3     H2       HT       0.417000       1.00800           0
     22500 TIP3     1262     TIP3     OH2      OT      -0.834000       15.9994           0
     22501 TIP3     1262     TIP3     H1       HT       0.417000       1.00800           0
     22502 TIP3     1262     TIP3     H2       HT       0.417000       1.00800           0
     22503 TIP3     1263     TIP3     OH2      OT      -0.834000       15.9994           0
     22504 TIP3     1263     TIP3     H1       HT       0.417000       1.00800           0
     22505 TIP3     1263     TIP3     H2       HT       0.417000       1.00800           0
     22506 TIP3     1264     TIP3     OH2      OT      -0.834000       15.9994           0
     22507 TIP3     1264     TIP3     H1       HT       0.417000       1.00800           0
     22508 TIP3     1264     TIP3     H2       HT       0.417000       1.00800           0
     22509 TIP3     1265     TIP3     OH2      OT      -0.834000       15.9994           0
     22510 TIP3     1265     TIP3     H1       HT       0.417000       1.00800           0
     22511 TIP3     1265     TIP3     H2       HT       0.417000       1.00800           0
     22512 TIP3     1266     TIP3     OH2      OT      -0.834000       15.9994           0
     22513 TIP3     1266     TIP3     H1       HT       0.417000       1.00800           0
     22514 TIP3     1266     TIP3     H2       HT       0.417000       1.00800           0
     22515 TIP3     1267     TIP3     OH2      OT      -0.834000       15.9994           0
     22516 TIP3     1267     TIP3     H1       HT       0.417000       1.00800           0
     22517 TIP3     1267     TIP3     H2       HT       0.417000       1.00800           0
     22518 TIP3     1268     TIP3     OH2      OT      -0.834000       15.9994           0
     22519 TIP3     1268     TIP3     H1       HT       0.417000       1.00800           0
     22520 TIP3     1268     TIP3     H2       HT       0.417000       1.00800           0
     22521 TIP3     1269     TIP3     OH2      OT      -0.834000       15.9994           0
     22522 TIP3     1269     TIP3     H1       HT       0.417000       1.00800           0
     22523 TIP3     1269     TIP3     H2       HT       0.417000       1.00800           0
     22524 TIP3     1270     TIP3     OH2      OT      -0.834000       15.9994           0
     22525 TIP3     1270     TIP3     H1       HT       0.417000       1.00800           0
     22526 TIP3     1270     TIP3     H2       HT       0.417000       1.00800           0
     22527 TIP3     1271     TIP3     OH2      OT      -0.834000       15.9994           0
     22528 TIP3     1271     TIP3     H1       HT       0.417000       1.00800           0
     22529 TIP3     1271     TIP3     H2       HT       0.417000       1.00800           0
     22530 TIP3     1272     TIP3     OH2      OT      -0.834000       15.9994           0
     22531 TIP3     1272     TIP3     H1       HT       0.417000       1.00800           0
     22532 TIP3     1272     TIP3     H2       HT       0.417000       1.00800           0
     22533 TIP3     1273     TIP3     OH2      OT      -0.834000       15.9994           0
     22534 TIP3     1273     TIP3     H1       HT       0.417000       1.00800           0
     22535 TIP3     1273     TIP3     H2       HT       0.417000       1.00800           0
     22536 TIP3     1274     TIP3     OH2      OT      -0.834000       15.9994           0
     22537 TIP3     1274     TIP3     H1       HT       0.417000       1.00800           0
     22538 TIP3     1274     TIP3     H2       HT       0.417000       1.00800           0
     22539 TIP3     1275     TIP3     OH2      OT      -0.834000       15.9994           0
     22540 TIP3     1275     TIP3     H1       HT       0.417000       1.00800           0
     22541 TIP3     1275     TIP3     H2       HT       0.417000       1.00800           0
     22542 TIP3     1276     TIP3     OH2      OT      -0.834000       15.9994           0
     22543 TIP3     1276     TIP3     H1       HT       0.417000       1.00800           0
     22544 TIP3     1276     TIP3     H2       HT       0.417000       1.00800           0
     22545 TIP3     1277     TIP3     OH2      OT      -0.834000       15.9994           0
     22546 TIP3     1277     TIP3     H1       HT       0.417000       1.00800           0
     22547 TIP3     1277     TIP3     H2       HT       0.417000       1.00800           0
     22548 TIP3     1278     TIP3     OH2      OT      -0.834000       15.9994           0
     22549 TIP3     1278     TIP3     H1       HT       0.417000       1.00800           0
     22550 TIP3     1278     TIP3     H2       HT       0.417000       1.00800           0
     22551 TIP3     1279     TIP3     OH2      OT      -0.834000       15.9994           0
     22552 TIP3     1279     TIP3     H1       HT       0.417000       1.00800           0
     22553 TIP3     1279     TIP3     H2       HT       0.417000       1.00800           0
     22554 TIP3     1280     TIP3     OH2      OT      -0.834000       15.9994           0
     22555 TIP3     1280     TIP3     H1       HT       0.417000       1.00800           0
     22556 TIP3     1280     TIP3     H2       HT       0.417000       1.00800           0
     22557 TIP3     1281     TIP3     OH2      OT      -0.834000       15.9994           0
     22558 TIP3     1281     TIP3     H1       HT       0.417000       1.00800           0
     22559 TIP3     1281     TIP3     H2       HT       0.417000       1.00800           0
     22560 TIP3     1282     TIP3     OH2      OT      -0.834000       15.9994           0
     22561 TIP3     1282     TIP3     H1       HT       0.417000       1.00800           0
     22562 TIP3     1282     TIP3     H2       HT       0.417000       1.00800           0
     22563 TIP3     1283     TIP3     OH2      OT      -0.834000       15.9994           0
     22564 TIP3     1283     TIP3     H1       HT       0.417000       1.00800           0
     22565 TIP3     1283     TIP3     H2       HT       0.417000       1.00800           0
     22566 TIP3     1284     TIP3     OH2      OT      -0.834000       15.9994           0
     22567 TIP3     1284     TIP3     H1       HT       0.417000       1.00800           0
     22568 TIP3     1284     TIP3     H2       HT       0.417000       1.00800           0
     22569 TIP3     1285     TIP3     OH2      OT      -0.834000       15.9994           0
     22570 TIP3     1285     TIP3     H1       HT       0.417000       1.00800           0
     22571 TIP3     1285     TIP3     H2       HT       0.417000       1.00800           0
     22572 TIP3     1286     TIP3     OH2      OT      -0.834000       15.9994           0
     22573 TIP3     1286     TIP3     H1       HT       0.417000       1.00800           0
     22574 TIP3     1286     TIP3     H2       HT       0.417000       1.00800           0
     22575 TIP3     1287     TIP3     OH2      OT      -0.834000       15.9994           0
     22576 TIP3     1287     TIP3     H1       HT       0.417000       1.00800           0
     22577 TIP3     1287     TIP3     H2       HT       0.417000       1.00800           0
     22578 TIP3     1288     TIP3     OH2      OT      -0.834000       15.9994           0
     22579 TIP3     1288     TIP3     H1       HT       0.417000       1.00800           0
     22580 TIP3     1288     TIP3     H2       HT       0.417000       1.00800           0
     22581 TIP3     1289     TIP3     OH2      OT      -0.834000       15.9994           0
     22582 TIP3     1289     TIP3     H1       HT       0.417000       1.00800           0
     22583 TIP3     1289     TIP3     H2       HT       0.417000       1.00800           0
     22584 TIP3     1290     TIP3     OH2      OT      -0.834000       15.9994           0
     22585 TIP3     1290     TIP3     H1       HT       0.417000       1.00800           0
     22586 TIP3     1290     TIP3     H2       HT       0.417000       1.00800           0
     22587 TIP3     1291     TIP3     OH2      OT      -0.834000       15.9994           0
     22588 TIP3     1291     TIP3     H1       HT       0.417000       1.00800           0
     22589 TIP3     1291     TIP3     H2       HT       0.417000       1.00800           0
     22590 TIP3     1292     TIP3     OH2      OT      -0.834000       15.9994           0
     22591 TIP3     1292     TIP3     H1       HT       0.417000       1.00800           0
     22592 TIP3     1292     TIP3     H2       HT       0.417000       1.00800           0
     22593 TIP3     1293     TIP3     OH2      OT      -0.834000       15.9994           0
     22594 TIP3     1293     TIP3     H1       HT       0.417000       1.00800           0
     22595 TIP3     1293     TIP3     H2       HT       0.417000       1.00800           0
     22596 TIP3     1294     TIP3     OH2      OT      -0.834000       15.9994           0
     22597 TIP3     1294     TIP3     H1       HT       0.417000       1.00800           0
     22598 TIP3     1294     TIP3     H2       HT       0.417000       1.00800           0
     22599 TIP3     1295     TIP3     OH2      OT      -0.834000       15.9994           0
     22600 TIP3     1295     TIP3     H1       HT       0.417000       1.00800           0
     22601 TIP3     1295     TIP3     H2       HT       0.417000       1.00800           0
     22602 TIP3     1296     TIP3     OH2      OT      -0.834000       15.9994           0
     22603 TIP3     1296     TIP3     H1       HT       0.417000       1.00800           0
     22604 TIP3     1296     TIP3     H2       HT       0.417000       1.00800           0
     22605 TIP3     1297     TIP3     OH2      OT      -0.834000       15.9994           0
     22606 TIP3     1297     TIP3     H1       HT       0.417000       1.00800           0
     22607 TIP3     1297     TIP3     H2       HT       0.417000       1.00800           0
     22608 TIP3     1298     TIP3     OH2      OT      -0.834000       15.9994           0
     22609 TIP3     1298     TIP3     H1       HT       0.417000       1.00800           0
     22610 TIP3     1298     TIP3     H2       HT       0.417000       1.00800           0
     22611 TIP3     1299     TIP3     OH2      OT      -0.834000       15.9994           0
     22612 TIP3     1299     TIP3     H1       HT       0.417000       1.00800           0
     22613 TIP3     1299     TIP3     H2       HT       0.417000       1.00800           0
     22614 TIP3     1300     TIP3     OH2      OT      -0.834000       15.9994           0
     22615 TIP3     1300     TIP3     H1       HT       0.417000       1.00800           0
     22616 TIP3     1300     TIP3     H2       HT       0.417000       1.00800           0
     22617 TIP3     1301     TIP3     OH2      OT      -0.834000       15.9994           0
     22618 TIP3     1301     TIP3     H1       HT       0.417000       1.00800           0
     22619 TIP3     1301     TIP3     H2       HT       0.417000       1.00800           0
     22620 TIP3     1302     TIP3     OH2      OT      -0.834000       15.9994           0
     22621 TIP3     1302     TIP3     H1       HT       0.417000       1.00800           0
     22622 TIP3     1302     TIP3     H2       HT       0.417000       1.00800           0
     22623 TIP3     1303     TIP3     OH2      OT      -0.834000       15.9994           0
     22624 TIP3     1303     TIP3     H1       HT       0.417000       1.00800           0
     22625 TIP3     1303     TIP3     H2       HT       0.417000       1.00800           0
     22626 TIP3     1304     TIP3     OH2      OT      -0.834000       15.9994           0
     22627 TIP3     1304     TIP3     H1       HT       0.417000       1.00800           0
     22628 TIP3     1304     TIP3     H2       HT       0.417000       1.00800           0
     22629 TIP3     1305     TIP3     OH2      OT      -0.834000       15.9994           0
     22630 TIP3     1305     TIP3     H1       HT       0.417000       1.00800           0
     22631 TIP3     1305     TIP3     H2       HT       0.417000       1.00800           0
     22632 TIP3     1306     TIP3     OH2      OT      -0.834000       15.9994           0
     22633 TIP3     1306     TIP3     H1       HT       0.417000       1.00800           0
     22634 TIP3     1306     TIP3     H2       HT       0.417000       1.00800           0
     22635 TIP3     1307     TIP3     OH2      OT      -0.834000       15.9994           0
     22636 TIP3     1307     TIP3     H1       HT       0.417000       1.00800           0
     22637 TIP3     1307     TIP3     H2       HT       0.417000       1.00800           0
     22638 TIP3     1308     TIP3     OH2      OT      -0.834000       15.9994           0
     22639 TIP3     1308     TIP3     H1       HT       0.417000       1.00800           0
     22640 TIP3     1308     TIP3     H2       HT       0.417000       1.00800           0
     22641 TIP3     1309     TIP3     OH2      OT      -0.834000       15.9994           0
     22642 TIP3     1309     TIP3     H1       HT       0.417000       1.00800           0
     22643 TIP3     1309     TIP3     H2       HT       0.417000       1.00800           0
     22644 TIP3     1310     TIP3     OH2      OT      -0.834000       15.9994           0
     22645 TIP3     1310     TIP3     H1       HT       0.417000       1.00800           0
     22646 TIP3     1310     TIP3     H2       HT       0.417000       1.00800           0
     22647 TIP3     1311     TIP3     OH2      OT      -0.834000       15.9994           0
     22648 TIP3     1311     TIP3     H1       HT       0.417000       1.00800           0
     22649 TIP3     1311     TIP3     H2       HT       0.417000       1.00800           0
     22650 TIP3     1312     TIP3     OH2      OT      -0.834000       15.9994           0
     22651 TIP3     1312     TIP3     H1       HT       0.417000       1.00800           0
     22652 TIP3     1312     TIP3     H2       HT       0.417000       1.00800           0
     22653 TIP3     1313     TIP3     OH2      OT      -0.834000       15.9994           0
     22654 TIP3     1313     TIP3     H1       HT       0.417000       1.00800           0
     22655 TIP3     1313     TIP3     H2       HT       0.417000       1.00800           0
     22656 TIP3     1314     TIP3     OH2      OT      -0.834000       15.9994           0
     22657 TIP3     1314     TIP3     H1       HT       0.417000       1.00800           0
     22658 TIP3     1314     TIP3     H2       HT       0.417000       1.00800           0
     22659 TIP3     1315     TIP3     OH2      OT      -0.834000       15.9994           0
     22660 TIP3     1315     TIP3     H1       HT       0.417000       1.00800           0
     22661 TIP3     1315     TIP3     H2       HT       0.417000       1.00800           0
     22662 TIP3     1316     TIP3     OH2      OT      -0.834000       15.9994           0
     22663 TIP3     1316     TIP3     H1       HT       0.417000       1.00800           0
     22664 TIP3     1316     TIP3     H2       HT       0.417000       1.00800           0
     22665 TIP3     1317     TIP3     OH2      OT      -0.834000       15.9994           0
     22666 TIP3     1317     TIP3     H1       HT       0.417000       1.00800           0
     22667 TIP3     1317     TIP3     H2       HT       0.417000       1.00800           0
     22668 TIP3     1318     TIP3     OH2      OT      -0.834000       15.9994           0
     22669 TIP3     1318     TIP3     H1       HT       0.417000       1.00800           0
     22670 TIP3     1318     TIP3     H2       HT       0.417000       1.00800           0
     22671 TIP3     1319     TIP3     OH2      OT      -0.834000       15.9994           0
     22672 TIP3     1319     TIP3     H1       HT       0.417000       1.00800           0
     22673 TIP3     1319     TIP3     H2       HT       0.417000       1.00800           0
     22674 TIP3     1320     TIP3     OH2      OT      -0.834000       15.9994           0
     22675 TIP3     1320     TIP3     H1       HT       0.417000       1.00800           0
     22676 TIP3     1320     TIP3     H2       HT       0.417000       1.00800           0
     22677 TIP3     1321     TIP3     OH2      OT      -0.834000       15.9994           0
     22678 TIP3     1321     TIP3     H1       HT       0.417000       1.00800           0
     22679 TIP3     1321     TIP3     H2       HT       0.417000       1.00800           0
     22680 TIP3     1322     TIP3     OH2      OT      -0.834000       15.9994           0
     22681 TIP3     1322     TIP3     H1       HT       0.417000       1.00800           0
     22682 TIP3     1322     TIP3     H2       HT       0.417000       1.00800           0
     22683 TIP3     1323     TIP3     OH2      OT      -0.834000       15.9994           0
     22684 TIP3     1323     TIP3     H1       HT       0.417000       1.00800           0
     22685 TIP3     1323     TIP3     H2       HT       0.417000       1.00800           0
     22686 TIP3     1324     TIP3     OH2      OT      -0.834000       15.9994           0
     22687 TIP3     1324     TIP3     H1       HT       0.417000       1.00800           0
     22688 TIP3     1324     TIP3     H2       HT       0.417000       1.00800           0
     22689 TIP3     1325     TIP3     OH2      OT      -0.834000       15.9994           0
     22690 TIP3     1325     TIP3     H1       HT       0.417000       1.00800           0
     22691 TIP3     1325     TIP3     H2       HT       0.417000       1.00800           0
     22692 TIP3     1326     TIP3     OH2      OT      -0.834000       15.9994           0
     22693 TIP3     1326     TIP3     H1       HT       0.417000       1.00800           0
     22694 TIP3     1326     TIP3     H2       HT       0.417000       1.00800           0
     22695 TIP3     1327     TIP3     OH2      OT      -0.834000       15.9994           0
     22696 TIP3     1327     TIP3     H1       HT       0.417000       1.00800           0
     22697 TIP3     1327     TIP3     H2       HT       0.417000       1.00800           0
     22698 TIP3     1328     TIP3     OH2      OT      -0.834000       15.9994           0
     22699 TIP3     1328     TIP3     H1       HT       0.417000       1.00800           0
     22700 TIP3     1328     TIP3     H2       HT       0.417000       1.00800           0
     22701 TIP3     1329     TIP3     OH2      OT      -0.834000       15.9994           0
     22702 TIP3     1329     TIP3     H1       HT       0.417000       1.00800           0
     22703 TIP3     1329     TIP3     H2       HT       0.417000       1.00800           0
     22704 TIP3     1330     TIP3     OH2      OT      -0.834000       15.9994           0
     22705 TIP3     1330     TIP3     H1       HT       0.417000       1.00800           0
     22706 TIP3     1330     TIP3     H2       HT       0.417000       1.00800           0
     22707 TIP3     1331     TIP3     OH2      OT      -0.834000       15.9994           0
     22708 TIP3     1331     TIP3     H1       HT       0.417000       1.00800           0
     22709 TIP3     1331     TIP3     H2       HT       0.417000       1.00800           0
     22710 TIP3     1332     TIP3     OH2      OT      -0.834000       15.9994           0
     22711 TIP3     1332     TIP3     H1       HT       0.417000       1.00800           0
     22712 TIP3     1332     TIP3     H2       HT       0.417000       1.00800           0
     22713 TIP3     1333     TIP3     OH2      OT      -0.834000       15.9994           0
     22714 TIP3     1333     TIP3     H1       HT       0.417000       1.00800           0
     22715 TIP3     1333     TIP3     H2       HT       0.417000       1.00800           0
     22716 TIP3     1334     TIP3     OH2      OT      -0.834000       15.9994           0
     22717 TIP3     1334     TIP3     H1       HT       0.417000       1.00800           0
     22718 TIP3     1334     TIP3     H2       HT       0.417000       1.00800           0
     22719 TIP3     1335     TIP3     OH2      OT      -0.834000       15.9994           0
     22720 TIP3     1335     TIP3     H1       HT       0.417000       1.00800           0
     22721 TIP3     1335     TIP3     H2       HT       0.417000       1.00800           0
     22722 TIP3     1336     TIP3     OH2      OT      -0.834000       15.9994           0
     22723 TIP3     1336     TIP3     H1       HT       0.417000       1.00800           0
     22724 TIP3     1336     TIP3     H2       HT       0.417000       1.00800           0
     22725 TIP3     1337     TIP3     OH2      OT      -0.834000       15.9994           0
     22726 TIP3     1337     TIP3     H1       HT       0.417000       1.00800           0
     22727 TIP3     1337     TIP3     H2       HT       0.417000       1.00800           0
     22728 TIP3     1338     TIP3     OH2      OT      -0.834000       15.9994           0
     22729 TIP3     1338     TIP3     H1       HT       0.417000       1.00800           0
     22730 TIP3     1338     TIP3     H2       HT       0.417000       1.00800           0
     22731 TIP3     1339     TIP3     OH2      OT      -0.834000       15.9994           0
     22732 TIP3     1339     TIP3     H1       HT       0.417000       1.00800           0
     22733 TIP3     1339     TIP3     H2       HT       0.417000       1.00800           0
     22734 TIP3     1340     TIP3     OH2      OT      -0.834000       15.9994           0
     22735 TIP3     1340     TIP3     H1       HT       0.417000       1.00800           0
     22736 TIP3     1340     TIP3     H2       HT       0.417000       1.00800           0
     22737 TIP3     1341     TIP3     OH2      OT      -0.834000       15.9994           0
     22738 TIP3     1341     TIP3     H1       HT       0.417000       1.00800           0
     22739 TIP3     1341     TIP3     H2       HT       0.417000       1.00800           0
     22740 TIP3     1342     TIP3     OH2      OT      -0.834000       15.9994           0
     22741 TIP3     1342     TIP3     H1       HT       0.417000       1.00800           0
     22742 TIP3     1342     TIP3     H2       HT       0.417000       1.00800           0
     22743 TIP3     1343     TIP3     OH2      OT      -0.834000       15.9994           0
     22744 TIP3     1343     TIP3     H1       HT       0.417000       1.00800           0
     22745 TIP3     1343     TIP3     H2       HT       0.417000       1.00800           0
     22746 TIP3     1344     TIP3     OH2      OT      -0.834000       15.9994           0
     22747 TIP3     1344     TIP3     H1       HT       0.417000       1.00800           0
     22748 TIP3     1344     TIP3     H2       HT       0.417000       1.00800           0
     22749 TIP3     1345     TIP3     OH2      OT      -0.834000       15.9994           0
     22750 TIP3     1345     TIP3     H1       HT       0.417000       1.00800           0
     22751 TIP3     1345     TIP3     H2       HT       0.417000       1.00800           0
     22752 TIP3     1346     TIP3     OH2      OT      -0.834000       15.9994           0
     22753 TIP3     1346     TIP3     H1       HT       0.417000       1.00800           0
     22754 TIP3     1346     TIP3     H2       HT       0.417000       1.00800           0
     22755 TIP3     1347     TIP3     OH2      OT      -0.834000       15.9994           0
     22756 TIP3     1347     TIP3     H1       HT       0.417000       1.00800           0
     22757 TIP3     1347     TIP3     H2       HT       0.417000       1.00800           0
     22758 TIP3     1348     TIP3     OH2      OT      -0.834000       15.9994           0
     22759 TIP3     1348     TIP3     H1       HT       0.417000       1.00800           0
     22760 TIP3     1348     TIP3     H2       HT       0.417000       1.00800           0
     22761 TIP3     1349     TIP3     OH2      OT      -0.834000       15.9994           0
     22762 TIP3     1349     TIP3     H1       HT       0.417000       1.00800           0
     22763 TIP3     1349     TIP3     H2       HT       0.417000       1.00800           0
     22764 TIP3     1350     TIP3     OH2      OT      -0.834000       15.9994           0
     22765 TIP3     1350     TIP3     H1       HT       0.417000       1.00800           0
     22766 TIP3     1350     TIP3     H2       HT       0.417000       1.00800           0
     22767 TIP3     1351     TIP3     OH2      OT      -0.834000       15.9994           0
     22768 TIP3     1351     TIP3     H1       HT       0.417000       1.00800           0
     22769 TIP3     1351     TIP3     H2       HT       0.417000       1.00800           0
     22770 TIP3     1352     TIP3     OH2      OT      -0.834000       15.9994           0
     22771 TIP3     1352     TIP3     H1       HT       0.417000       1.00800           0
     22772 TIP3     1352     TIP3     H2       HT       0.417000       1.00800           0
     22773 TIP3     1353     TIP3     OH2      OT      -0.834000       15.9994           0
     22774 TIP3     1353     TIP3     H1       HT       0.417000       1.00800           0
     22775 TIP3     1353     TIP3     H2       HT       0.417000       1.00800           0
     22776 TIP3     1354     TIP3     OH2      OT      -0.834000       15.9994           0
     22777 TIP3     1354     TIP3     H1       HT       0.417000       1.00800           0
     22778 TIP3     1354     TIP3     H2       HT       0.417000       1.00800           0
     22779 TIP3     1355     TIP3     OH2      OT      -0.834000       15.9994           0
     22780 TIP3     1355     TIP3     H1       HT       0.417000       1.00800           0
     22781 TIP3     1355     TIP3     H2       HT       0.417000       1.00800           0
     22782 TIP3     1356     TIP3     OH2      OT      -0.834000       15.9994           0
     22783 TIP3     1356     TIP3     H1       HT       0.417000       1.00800           0
     22784 TIP3     1356     TIP3     H2       HT       0.417000       1.00800           0
     22785 TIP3     1357     TIP3     OH2      OT      -0.834000       15.9994           0
     22786 TIP3     1357     TIP3     H1       HT       0.417000       1.00800           0
     22787 TIP3     1357     TIP3     H2       HT       0.417000       1.00800           0
     22788 TIP3     1358     TIP3     OH2      OT      -0.834000       15.9994           0
     22789 TIP3     1358     TIP3     H1       HT       0.417000       1.00800           0
     22790 TIP3     1358     TIP3     H2       HT       0.417000       1.00800           0
     22791 TIP3     1359     TIP3     OH2      OT      -0.834000       15.9994           0
     22792 TIP3     1359     TIP3     H1       HT       0.417000       1.00800           0
     22793 TIP3     1359     TIP3     H2       HT       0.417000       1.00800           0
     22794 TIP3     1360     TIP3     OH2      OT      -0.834000       15.9994           0
     22795 TIP3     1360     TIP3     H1       HT       0.417000       1.00800           0
     22796 TIP3     1360     TIP3     H2       HT       0.417000       1.00800           0
     22797 TIP3     1361     TIP3     OH2      OT      -0.834000       15.9994           0
     22798 TIP3     1361     TIP3     H1       HT       0.417000       1.00800           0
     22799 TIP3     1361     TIP3     H2       HT       0.417000       1.00800           0
     22800 TIP3     1362     TIP3     OH2      OT      -0.834000       15.9994           0
     22801 TIP3     1362     TIP3     H1       HT       0.417000       1.00800           0
     22802 TIP3     1362     TIP3     H2       HT       0.417000       1.00800           0
     22803 TIP3     1363     TIP3     OH2      OT      -0.834000       15.9994           0
     22804 TIP3     1363     TIP3     H1       HT       0.417000       1.00800           0
     22805 TIP3     1363     TIP3     H2       HT       0.417000       1.00800           0
     22806 TIP3     1364     TIP3     OH2      OT      -0.834000       15.9994           0
     22807 TIP3     1364     TIP3     H1       HT       0.417000       1.00800           0
     22808 TIP3     1364     TIP3     H2       HT       0.417000       1.00800           0
     22809 TIP3     1365     TIP3     OH2      OT      -0.834000       15.9994           0
     22810 TIP3     1365     TIP3     H1       HT       0.417000       1.00800           0
     22811 TIP3     1365     TIP3     H2       HT       0.417000       1.00800           0
     22812 TIP3     1366     TIP3     OH2      OT      -0.834000       15.9994           0
     22813 TIP3     1366     TIP3     H1       HT       0.417000       1.00800           0
     22814 TIP3     1366     TIP3     H2       HT       0.417000       1.00800           0
     22815 TIP3     1367     TIP3     OH2      OT      -0.834000       15.9994           0
     22816 TIP3     1367     TIP3     H1       HT       0.417000       1.00800           0
     22817 TIP3     1367     TIP3     H2       HT       0.417000       1.00800           0
     22818 TIP3     1368     TIP3     OH2      OT      -0.834000       15.9994           0
     22819 TIP3     1368     TIP3     H1       HT       0.417000       1.00800           0
     22820 TIP3     1368     TIP3     H2       HT       0.417000       1.00800           0
     22821 TIP3     1369     TIP3     OH2      OT      -0.834000       15.9994           0
     22822 TIP3     1369     TIP3     H1       HT       0.417000       1.00800           0
     22823 TIP3     1369     TIP3     H2       HT       0.417000       1.00800           0
     22824 TIP3     1370     TIP3     OH2      OT      -0.834000       15.9994           0
     22825 TIP3     1370     TIP3     H1       HT       0.417000       1.00800           0
     22826 TIP3     1370     TIP3     H2       HT       0.417000       1.00800           0
     22827 TIP3     1371     TIP3     OH2      OT      -0.834000       15.9994           0
     22828 TIP3     1371     TIP3     H1       HT       0.417000       1.00800           0
     22829 TIP3     1371     TIP3     H2       HT       0.417000       1.00800           0
     22830 TIP3     1372     TIP3     OH2      OT      -0.834000       15.9994           0
     22831 TIP3     1372     TIP3     H1       HT       0.417000       1.00800           0
     22832 TIP3     1372     TIP3     H2       HT       0.417000       1.00800           0
     22833 TIP3     1373     TIP3     OH2      OT      -0.834000       15.9994           0
     22834 TIP3     1373     TIP3     H1       HT       0.417000       1.00800           0
     22835 TIP3     1373     TIP3     H2       HT       0.417000       1.00800           0
     22836 TIP3     1374     TIP3     OH2      OT      -0.834000       15.9994           0
     22837 TIP3     1374     TIP3     H1       HT       0.417000       1.00800           0
     22838 TIP3     1374     TIP3     H2       HT       0.417000       1.00800           0
     22839 TIP3     1375     TIP3     OH2      OT      -0.834000       15.9994           0
     22840 TIP3     1375     TIP3     H1       HT       0.417000       1.00800           0
     22841 TIP3     1375     TIP3     H2       HT       0.417000       1.00800           0
     22842 TIP3     1376     TIP3     OH2      OT      -0.834000       15.9994           0
     22843 TIP3     1376     TIP3     H1       HT       0.417000       1.00800           0
     22844 TIP3     1376     TIP3     H2       HT       0.417000       1.00800           0
     22845 TIP3     1377     TIP3     OH2      OT      -0.834000       15.9994           0
     22846 TIP3     1377     TIP3     H1       HT       0.417000       1.00800           0
     22847 TIP3     1377     TIP3     H2       HT       0.417000       1.00800           0
     22848 TIP3     1378     TIP3     OH2      OT      -0.834000       15.9994           0
     22849 TIP3     1378     TIP3     H1       HT       0.417000       1.00800           0
     22850 TIP3     1378     TIP3     H2       HT       0.417000       1.00800           0
     22851 TIP3     1379     TIP3     OH2      OT      -0.834000       15.9994           0
     22852 TIP3     1379     TIP3     H1       HT       0.417000       1.00800           0
     22853 TIP3     1379     TIP3     H2       HT       0.417000       1.00800           0
     22854 TIP3     1380     TIP3     OH2      OT      -0.834000       15.9994           0
     22855 TIP3     1380     TIP3     H1       HT       0.417000       1.00800           0
     22856 TIP3     1380     TIP3     H2       HT       0.417000       1.00800           0
     22857 TIP3     1381     TIP3     OH2      OT      -0.834000       15.9994           0
     22858 TIP3     1381     TIP3     H1       HT       0.417000       1.00800           0
     22859 TIP3     1381     TIP3     H2       HT       0.417000       1.00800           0
     22860 TIP3     1382     TIP3     OH2      OT      -0.834000       15.9994           0
     22861 TIP3     1382     TIP3     H1       HT       0.417000       1.00800           0
     22862 TIP3     1382     TIP3     H2       HT       0.417000       1.00800           0
     22863 TIP3     1383     TIP3     OH2      OT      -0.834000       15.9994           0
     22864 TIP3     1383     TIP3     H1       HT       0.417000       1.00800           0
     22865 TIP3     1383     TIP3     H2       HT       0.417000       1.00800           0
     22866 TIP3     1384     TIP3     OH2      OT      -0.834000       15.9994           0
     22867 TIP3     1384     TIP3     H1       HT       0.417000       1.00800           0
     22868 TIP3     1384     TIP3     H2       HT       0.417000       1.00800           0
     22869 TIP3     1385     TIP3     OH2      OT      -0.834000       15.9994           0
     22870 TIP3     1385     TIP3     H1       HT       0.417000       1.00800           0
     22871 TIP3     1385     TIP3     H2       HT       0.417000       1.00800           0
     22872 TIP3     1386     TIP3     OH2      OT      -0.834000       15.9994           0
     22873 TIP3     1386     TIP3     H1       HT       0.417000       1.00800           0
     22874 TIP3     1386     TIP3     H2       HT       0.417000       1.00800           0
     22875 TIP3     1387     TIP3     OH2      OT      -0.834000       15.9994           0
     22876 TIP3     1387     TIP3     H1       HT       0.417000       1.00800           0
     22877 TIP3     1387     TIP3     H2       HT       0.417000       1.00800           0
     22878 TIP3     1388     TIP3     OH2      OT      -0.834000       15.9994           0
     22879 TIP3     1388     TIP3     H1       HT       0.417000       1.00800           0
     22880 TIP3     1388     TIP3     H2       HT       0.417000       1.00800           0
     22881 TIP3     1389     TIP3     OH2      OT      -0.834000       15.9994           0
     22882 TIP3     1389     TIP3     H1       HT       0.417000       1.00800           0
     22883 TIP3     1389     TIP3     H2       HT       0.417000       1.00800           0
     22884 TIP3     1390     TIP3     OH2      OT      -0.834000       15.9994           0
     22885 TIP3     1390     TIP3     H1       HT       0.417000       1.00800           0
     22886 TIP3     1390     TIP3     H2       HT       0.417000       1.00800           0
     22887 TIP3     1391     TIP3     OH2      OT      -0.834000       15.9994           0
     22888 TIP3     1391     TIP3     H1       HT       0.417000       1.00800           0
     22889 TIP3     1391     TIP3     H2       HT       0.417000       1.00800           0
     22890 TIP3     1392     TIP3     OH2      OT      -0.834000       15.9994           0
     22891 TIP3     1392     TIP3     H1       HT       0.417000       1.00800           0
     22892 TIP3     1392     TIP3     H2       HT       0.417000       1.00800           0
     22893 TIP3     1393     TIP3     OH2      OT      -0.834000       15.9994           0
     22894 TIP3     1393     TIP3     H1       HT       0.417000       1.00800           0
     22895 TIP3     1393     TIP3     H2       HT       0.417000       1.00800           0
     22896 TIP3     1394     TIP3     OH2      OT      -0.834000       15.9994           0
     22897 TIP3     1394     TIP3     H1       HT       0.417000       1.00800           0
     22898 TIP3     1394     TIP3     H2       HT       0.417000       1.00800           0
     22899 TIP3     1395     TIP3     OH2      OT      -0.834000       15.9994           0
     22900 TIP3     1395     TIP3     H1       HT       0.417000       1.00800           0
     22901 TIP3     1395     TIP3     H2       HT       0.417000       1.00800           0
     22902 TIP3     1396     TIP3     OH2      OT      -0.834000       15.9994           0
     22903 TIP3     1396     TIP3     H1       HT       0.417000       1.00800           0
     22904 TIP3     1396     TIP3     H2       HT       0.417000       1.00800           0
     22905 TIP3     1397     TIP3     OH2      OT      -0.834000       15.9994           0
     22906 TIP3     1397     TIP3     H1       HT       0.417000       1.00800           0
     22907 TIP3     1397     TIP3     H2       HT       0.417000       1.00800           0
     22908 TIP3     1398     TIP3     OH2      OT      -0.834000       15.9994           0
     22909 TIP3     1398     TIP3     H1       HT       0.417000       1.00800           0
     22910 TIP3     1398     TIP3     H2       HT       0.417000       1.00800           0
     22911 TIP3     1399     TIP3     OH2      OT      -0.834000       15.9994           0
     22912 TIP3     1399     TIP3     H1       HT       0.417000       1.00800           0
     22913 TIP3     1399     TIP3     H2       HT       0.417000       1.00800           0
     22914 TIP3     1400     TIP3     OH2      OT      -0.834000       15.9994           0
     22915 TIP3     1400     TIP3     H1       HT       0.417000       1.00800           0
     22916 TIP3     1400     TIP3     H2       HT       0.417000       1.00800           0
     22917 TIP3     1401     TIP3     OH2      OT      -0.834000       15.9994           0
     22918 TIP3     1401     TIP3     H1       HT       0.417000       1.00800           0
     22919 TIP3     1401     TIP3     H2       HT       0.417000       1.00800           0
     22920 TIP3     1402     TIP3     OH2      OT      -0.834000       15.9994           0
     22921 TIP3     1402     TIP3     H1       HT       0.417000       1.00800           0
     22922 TIP3     1402     TIP3     H2       HT       0.417000       1.00800           0
     22923 TIP3     1403     TIP3     OH2      OT      -0.834000       15.9994           0
     22924 TIP3     1403     TIP3     H1       HT       0.417000       1.00800           0
     22925 TIP3     1403     TIP3     H2       HT       0.417000       1.00800           0
     22926 TIP3     1404     TIP3     OH2      OT      -0.834000       15.9994           0
     22927 TIP3     1404     TIP3     H1       HT       0.417000       1.00800           0
     22928 TIP3     1404     TIP3     H2       HT       0.417000       1.00800           0
     22929 TIP3     1405     TIP3     OH2      OT      -0.834000       15.9994           0
     22930 TIP3     1405     TIP3     H1       HT       0.417000       1.00800           0
     22931 TIP3     1405     TIP3     H2       HT       0.417000       1.00800           0
     22932 TIP3     1406     TIP3     OH2      OT      -0.834000       15.9994           0
     22933 TIP3     1406     TIP3     H1       HT       0.417000       1.00800           0
     22934 TIP3     1406     TIP3     H2       HT       0.417000       1.00800           0
     22935 TIP3     1407     TIP3     OH2      OT      -0.834000       15.9994           0
     22936 TIP3     1407     TIP3     H1       HT       0.417000       1.00800           0
     22937 TIP3     1407     TIP3     H2       HT       0.417000       1.00800           0
     22938 TIP3     1408     TIP3     OH2      OT      -0.834000       15.9994           0
     22939 TIP3     1408     TIP3     H1       HT       0.417000       1.00800           0
     22940 TIP3     1408     TIP3     H2       HT       0.417000       1.00800           0
     22941 TIP3     1409     TIP3     OH2      OT      -0.834000       15.9994           0
     22942 TIP3     1409     TIP3     H1       HT       0.417000       1.00800           0
     22943 TIP3     1409     TIP3     H2       HT       0.417000       1.00800           0
     22944 TIP3     1410     TIP3     OH2      OT      -0.834000       15.9994           0
     22945 TIP3     1410     TIP3     H1       HT       0.417000       1.00800           0
     22946 TIP3     1410     TIP3     H2       HT       0.417000       1.00800           0
     22947 TIP3     1411     TIP3     OH2      OT      -0.834000       15.9994           0
     22948 TIP3     1411     TIP3     H1       HT       0.417000       1.00800           0
     22949 TIP3     1411     TIP3     H2       HT       0.417000       1.00800           0
     22950 TIP3     1412     TIP3     OH2      OT      -0.834000       15.9994           0
     22951 TIP3     1412     TIP3     H1       HT       0.417000       1.00800           0
     22952 TIP3     1412     TIP3     H2       HT       0.417000       1.00800           0
     22953 TIP3     1413     TIP3     OH2      OT      -0.834000       15.9994           0
     22954 TIP3     1413     TIP3     H1       HT       0.417000       1.00800           0
     22955 TIP3     1413     TIP3     H2       HT       0.417000       1.00800           0
     22956 TIP3     1414     TIP3     OH2      OT      -0.834000       15.9994           0
     22957 TIP3     1414     TIP3     H1       HT       0.417000       1.00800           0
     22958 TIP3     1414     TIP3     H2       HT       0.417000       1.00800           0
     22959 TIP3     1415     TIP3     OH2      OT      -0.834000       15.9994           0
     22960 TIP3     1415     TIP3     H1       HT       0.417000       1.00800           0
     22961 TIP3     1415     TIP3     H2       HT       0.417000       1.00800           0
     22962 TIP3     1416     TIP3     OH2      OT      -0.834000       15.9994           0
     22963 TIP3     1416     TIP3     H1       HT       0.417000       1.00800           0
     22964 TIP3     1416     TIP3     H2       HT       0.417000       1.00800           0
     22965 TIP3     1417     TIP3     OH2      OT      -0.834000       15.9994           0
     22966 TIP3     1417     TIP3     H1       HT       0.417000       1.00800           0
     22967 TIP3     1417     TIP3     H2       HT       0.417000       1.00800           0
     22968 TIP3     1418     TIP3     OH2      OT      -0.834000       15.9994           0
     22969 TIP3     1418     TIP3     H1       HT       0.417000       1.00800           0
     22970 TIP3     1418     TIP3     H2       HT       0.417000       1.00800           0
     22971 TIP3     1419     TIP3     OH2      OT      -0.834000       15.9994           0
     22972 TIP3     1419     TIP3     H1       HT       0.417000       1.00800           0
     22973 TIP3     1419     TIP3     H2       HT       0.417000       1.00800           0
     22974 TIP3     1420     TIP3     OH2      OT      -0.834000       15.9994           0
     22975 TIP3     1420     TIP3     H1       HT       0.417000       1.00800           0
     22976 TIP3     1420     TIP3     H2       HT       0.417000       1.00800           0
     22977 TIP3     1421     TIP3     OH2      OT      -0.834000       15.9994           0
     22978 TIP3     1421     TIP3     H1       HT       0.417000       1.00800           0
     22979 TIP3     1421     TIP3     H2       HT       0.417000       1.00800           0
     22980 TIP3     1422     TIP3     OH2      OT      -0.834000       15.9994           0
     22981 TIP3     1422     TIP3     H1       HT       0.417000       1.00800           0
     22982 TIP3     1422     TIP3     H2       HT       0.417000       1.00800           0
     22983 TIP3     1423     TIP3     OH2      OT      -0.834000       15.9994           0
     22984 TIP3     1423     TIP3     H1       HT       0.417000       1.00800           0
     22985 TIP3     1423     TIP3     H2       HT       0.417000       1.00800           0
     22986 TIP3     1424     TIP3     OH2      OT      -0.834000       15.9994           0
     22987 TIP3     1424     TIP3     H1       HT       0.417000       1.00800           0
     22988 TIP3     1424     TIP3     H2       HT       0.417000       1.00800           0
     22989 TIP3     1425     TIP3     OH2      OT      -0.834000       15.9994           0
     22990 TIP3     1425     TIP3     H1       HT       0.417000       1.00800           0
     22991 TIP3     1425     TIP3     H2       HT       0.417000       1.00800           0
     22992 TIP3     1426     TIP3     OH2      OT      -0.834000       15.9994           0
     22993 TIP3     1426     TIP3     H1       HT       0.417000       1.00800           0
     22994 TIP3     1426     TIP3     H2       HT       0.417000       1.00800           0
     22995 TIP3     1427     TIP3     OH2      OT      -0.834000       15.9994           0
     22996 TIP3     1427     TIP3     H1       HT       0.417000       1.00800           0
     22997 TIP3     1427     TIP3     H2       HT       0.417000       1.00800           0
     22998 TIP3     1428     TIP3     OH2      OT      -0.834000       15.9994           0
     22999 TIP3     1428     TIP3     H1       HT       0.417000       1.00800           0
     23000 TIP3     1428     TIP3     H2       HT       0.417000       1.00800           0
     23001 TIP3     1429     TIP3     OH2      OT      -0.834000       15.9994           0
     23002 TIP3     1429     TIP3     H1       HT       0.417000       1.00800           0
     23003 TIP3     1429     TIP3     H2       HT       0.417000       1.00800           0
     23004 TIP3     1430     TIP3     OH2      OT      -0.834000       15.9994           0
     23005 TIP3     1430     TIP3     H1       HT       0.417000       1.00800           0
     23006 TIP3     1430     TIP3     H2       HT       0.417000       1.00800           0
     23007 TIP3     1431     TIP3     OH2      OT      -0.834000       15.9994           0
     23008 TIP3     1431     TIP3     H1       HT       0.417000       1.00800           0
     23009 TIP3     1431     TIP3     H2       HT       0.417000       1.00800           0
     23010 TIP3     1432     TIP3     OH2      OT      -0.834000       15.9994           0
     23011 TIP3     1432     TIP3     H1       HT       0.417000       1.00800           0
     23012 TIP3     1432     TIP3     H2       HT       0.417000       1.00800           0
     23013 TIP3     1433     TIP3     OH2      OT      -0.834000       15.9994           0
     23014 TIP3     1433     TIP3     H1       HT       0.417000       1.00800           0
     23015 TIP3     1433     TIP3     H2       HT       0.417000       1.00800           0
     23016 TIP3     1434     TIP3     OH2      OT      -0.834000       15.9994           0
     23017 TIP3     1434     TIP3     H1       HT       0.417000       1.00800           0
     23018 TIP3     1434     TIP3     H2       HT       0.417000       1.00800           0
     23019 TIP3     1435     TIP3     OH2      OT      -0.834000       15.9994           0
     23020 TIP3     1435     TIP3     H1       HT       0.417000       1.00800           0
     23021 TIP3     1435     TIP3     H2       HT       0.417000       1.00800           0
     23022 TIP3     1436     TIP3     OH2      OT      -0.834000       15.9994           0
     23023 TIP3     1436     TIP3     H1       HT       0.417000       1.00800           0
     23024 TIP3     1436     TIP3     H2       HT       0.417000       1.00800           0
     23025 TIP3     1437     TIP3     OH2      OT      -0.834000       15.9994           0
     23026 TIP3     1437     TIP3     H1       HT       0.417000       1.00800           0
     23027 TIP3     1437     TIP3     H2       HT       0.417000       1.00800           0
     23028 TIP3     1438     TIP3     OH2      OT      -0.834000       15.9994           0
     23029 TIP3     1438     TIP3     H1       HT       0.417000       1.00800           0
     23030 TIP3     1438     TIP3     H2       HT       0.417000       1.00800           0
     23031 TIP3     1439     TIP3     OH2      OT      -0.834000       15.9994           0
     23032 TIP3     1439     TIP3     H1       HT       0.417000       1.00800           0
     23033 TIP3     1439     TIP3     H2       HT       0.417000       1.00800           0
     23034 TIP3     1440     TIP3     OH2      OT      -0.834000       15.9994           0
     23035 TIP3     1440     TIP3     H1       HT       0.417000       1.00800           0
     23036 TIP3     1440     TIP3     H2       HT       0.417000       1.00800           0
     23037 TIP3     1441     TIP3     OH2      OT      -0.834000       15.9994           0
     23038 TIP3     1441     TIP3     H1       HT       0.417000       1.00800           0
     23039 TIP3     1441     TIP3     H2       HT       0.417000       1.00800           0
     23040 TIP3     1442     TIP3     OH2      OT      -0.834000       15.9994           0
     23041 TIP3     1442     TIP3     H1       HT       0.417000       1.00800           0
     23042 TIP3     1442     TIP3     H2       HT       0.417000       1.00800           0
     23043 TIP3     1443     TIP3     OH2      OT      -0.834000       15.9994           0
     23044 TIP3     1443     TIP3     H1       HT       0.417000       1.00800           0
     23045 TIP3     1443     TIP3     H2       HT       0.417000       1.00800           0
     23046 TIP3     1444     TIP3     OH2      OT      -0.834000       15.9994           0
     23047 TIP3     1444     TIP3     H1       HT       0.417000       1.00800           0
     23048 TIP3     1444     TIP3     H2       HT       0.417000       1.00800           0
     23049 TIP3     1445     TIP3     OH2      OT      -0.834000       15.9994           0
     23050 TIP3     1445     TIP3     H1       HT       0.417000       1.00800           0
     23051 TIP3     1445     TIP3     H2       HT       0.417000       1.00800           0
     23052 TIP3     1446     TIP3     OH2      OT      -0.834000       15.9994           0
     23053 TIP3     1446     TIP3     H1       HT       0.417000       1.00800           0
     23054 TIP3     1446     TIP3     H2       HT       0.417000       1.00800           0
     23055 TIP3     1447     TIP3     OH2      OT      -0.834000       15.9994           0
     23056 TIP3     1447     TIP3     H1       HT       0.417000       1.00800           0
     23057 TIP3     1447     TIP3     H2       HT       0.417000       1.00800           0
     23058 TIP3     1448     TIP3     OH2      OT      -0.834000       15.9994           0
     23059 TIP3     1448     TIP3     H1       HT       0.417000       1.00800           0
     23060 TIP3     1448     TIP3     H2       HT       0.417000       1.00800           0
     23061 TIP3     1449     TIP3     OH2      OT      -0.834000       15.9994           0
     23062 TIP3     1449     TIP3     H1       HT       0.417000       1.00800           0
     23063 TIP3     1449     TIP3     H2       HT       0.417000       1.00800           0
     23064 TIP3     1450     TIP3     OH2      OT      -0.834000       15.9994           0
     23065 TIP3     1450     TIP3     H1       HT       0.417000       1.00800           0
     23066 TIP3     1450     TIP3     H2       HT       0.417000       1.00800           0
     23067 TIP3     1451     TIP3     OH2      OT      -0.834000       15.9994           0
     23068 TIP3     1451     TIP3     H1       HT       0.417000       1.00800           0
     23069 TIP3     1451     TIP3     H2       HT       0.417000       1.00800           0
     23070 TIP3     1452     TIP3     OH2      OT      -0.834000       15.9994           0
     23071 TIP3     1452     TIP3     H1       HT       0.417000       1.00800           0
     23072 TIP3     1452     TIP3     H2       HT       0.417000       1.00800           0
     23073 TIP3     1453     TIP3     OH2      OT      -0.834000       15.9994           0
     23074 TIP3     1453     TIP3     H1       HT       0.417000       1.00800           0
     23075 TIP3     1453     TIP3     H2       HT       0.417000       1.00800           0
     23076 TIP3     1454     TIP3     OH2      OT      -0.834000       15.9994           0
     23077 TIP3     1454     TIP3     H1       HT       0.417000       1.00800           0
     23078 TIP3     1454     TIP3     H2       HT       0.417000       1.00800           0
     23079 TIP3     1455     TIP3     OH2      OT      -0.834000       15.9994           0
     23080 TIP3     1455     TIP3     H1       HT       0.417000       1.00800           0
     23081 TIP3     1455     TIP3     H2       HT       0.417000       1.00800           0
     23082 TIP3     1456     TIP3     OH2      OT      -0.834000       15.9994           0
     23083 TIP3     1456     TIP3     H1       HT       0.417000       1.00800           0
     23084 TIP3     1456     TIP3     H2       HT       0.417000       1.00800           0
     23085 TIP3     1457     TIP3     OH2      OT      -0.834000       15.9994           0
     23086 TIP3     1457     TIP3     H1       HT       0.417000       1.00800           0
     23087 TIP3     1457     TIP3     H2       HT       0.417000       1.00800           0
     23088 TIP3     1458     TIP3     OH2      OT      -0.834000       15.9994           0
     23089 TIP3     1458     TIP3     H1       HT       0.417000       1.00800           0
     23090 TIP3     1458     TIP3     H2       HT       0.417000       1.00800           0
     23091 TIP3     1459     TIP3     OH2      OT      -0.834000       15.9994           0
     23092 TIP3     1459     TIP3     H1       HT       0.417000       1.00800           0
     23093 TIP3     1459     TIP3     H2       HT       0.417000       1.00800           0
     23094 TIP3     1460     TIP3     OH2      OT      -0.834000       15.9994           0
     23095 TIP3     1460     TIP3     H1       HT       0.417000       1.00800           0
     23096 TIP3     1460     TIP3     H2       HT       0.417000       1.00800           0
     23097 TIP3     1461     TIP3     OH2      OT      -0.834000       15.9994           0
     23098 TIP3     1461     TIP3     H1       HT       0.417000       1.00800           0
     23099 TIP3     1461     TIP3     H2       HT       0.417000       1.00800           0
     23100 TIP3     1462     TIP3     OH2      OT      -0.834000       15.9994           0
     23101 TIP3     1462     TIP3     H1       HT       0.417000       1.00800           0
     23102 TIP3     1462     TIP3     H2       HT       0.417000       1.00800           0
     23103 TIP3     1463     TIP3     OH2      OT      -0.834000       15.9994           0
     23104 TIP3     1463     TIP3     H1       HT       0.417000       1.00800           0
     23105 TIP3     1463     TIP3     H2       HT       0.417000       1.00800           0
     23106 TIP3     1464     TIP3     OH2      OT      -0.834000       15.9994           0
     23107 TIP3     1464     TIP3     H1       HT       0.417000       1.00800           0
     23108 TIP3     1464     TIP3     H2       HT       0.417000       1.00800           0
     23109 TIP3     1465     TIP3     OH2      OT      -0.834000       15.9994           0
     23110 TIP3     1465     TIP3     H1       HT       0.417000       1.00800           0
     23111 TIP3     1465     TIP3     H2       HT       0.417000       1.00800           0
     23112 TIP3     1466     TIP3     OH2      OT      -0.834000       15.9994           0
     23113 TIP3     1466     TIP3     H1       HT       0.417000       1.00800           0
     23114 TIP3     1466     TIP3     H2       HT       0.417000       1.00800           0
     23115 TIP3     1467     TIP3     OH2      OT      -0.834000       15.9994           0
     23116 TIP3     1467     TIP3     H1       HT       0.417000       1.00800           0
     23117 TIP3     1467     TIP3     H2       HT       0.417000       1.00800           0
     23118 TIP3     1468     TIP3     OH2      OT      -0.834000       15.9994           0
     23119 TIP3     1468     TIP3     H1       HT       0.417000       1.00800           0
     23120 TIP3     1468     TIP3     H2       HT       0.417000       1.00800           0
     23121 TIP3     1469     TIP3     OH2      OT      -0.834000       15.9994           0
     23122 TIP3     1469     TIP3     H1       HT       0.417000       1.00800           0
     23123 TIP3     1469     TIP3     H2       HT       0.417000       1.00800           0
     23124 TIP3     1470     TIP3     OH2      OT      -0.834000       15.9994           0
     23125 TIP3     1470     TIP3     H1       HT       0.417000       1.00800           0
     23126 TIP3     1470     TIP3     H2       HT       0.417000       1.00800           0
     23127 TIP3     1471     TIP3     OH2      OT      -0.834000       15.9994           0
     23128 TIP3     1471     TIP3     H1       HT       0.417000       1.00800           0
     23129 TIP3     1471     TIP3     H2       HT       0.417000       1.00800           0
     23130 TIP3     1472     TIP3     OH2      OT      -0.834000       15.9994           0
     23131 TIP3     1472     TIP3     H1       HT       0.417000       1.00800           0
     23132 TIP3     1472     TIP3     H2       HT       0.417000       1.00800           0
     23133 TIP3     1473     TIP3     OH2      OT      -0.834000       15.9994           0
     23134 TIP3     1473     TIP3     H1       HT       0.417000       1.00800           0
     23135 TIP3     1473     TIP3     H2       HT       0.417000       1.00800           0
     23136 TIP3     1474     TIP3     OH2      OT      -0.834000       15.9994           0
     23137 TIP3     1474     TIP3     H1       HT       0.417000       1.00800           0
     23138 TIP3     1474     TIP3     H2       HT       0.417000       1.00800           0
     23139 TIP3     1475     TIP3     OH2      OT      -0.834000       15.9994           0
     23140 TIP3     1475     TIP3     H1       HT       0.417000       1.00800           0
     23141 TIP3     1475     TIP3     H2       HT       0.417000       1.00800           0
     23142 TIP3     1476     TIP3     OH2      OT      -0.834000       15.9994           0
     23143 TIP3     1476     TIP3     H1       HT       0.417000       1.00800           0
     23144 TIP3     1476     TIP3     H2       HT       0.417000       1.00800           0
     23145 TIP3     1477     TIP3     OH2      OT      -0.834000       15.9994           0
     23146 TIP3     1477     TIP3     H1       HT       0.417000       1.00800           0
     23147 TIP3     1477     TIP3     H2       HT       0.417000       1.00800           0
     23148 TIP3     1478     TIP3     OH2      OT      -0.834000       15.9994           0
     23149 TIP3     1478     TIP3     H1       HT       0.417000       1.00800           0
     23150 TIP3     1478     TIP3     H2       HT       0.417000       1.00800           0
     23151 TIP3     1479     TIP3     OH2      OT      -0.834000       15.9994           0
     23152 TIP3     1479     TIP3     H1       HT       0.417000       1.00800           0
     23153 TIP3     1479     TIP3     H2       HT       0.417000       1.00800           0
     23154 TIP3     1480     TIP3     OH2      OT      -0.834000       15.9994           0
     23155 TIP3     1480     TIP3     H1       HT       0.417000       1.00800           0
     23156 TIP3     1480     TIP3     H2       HT       0.417000       1.00800           0
     23157 TIP3     1481     TIP3     OH2      OT      -0.834000       15.9994           0
     23158 TIP3     1481     TIP3     H1       HT       0.417000       1.00800           0
     23159 TIP3     1481     TIP3     H2       HT       0.417000       1.00800           0
     23160 TIP3     1482     TIP3     OH2      OT      -0.834000       15.9994           0
     23161 TIP3     1482     TIP3     H1       HT       0.417000       1.00800           0
     23162 TIP3     1482     TIP3     H2       HT       0.417000       1.00800           0
     23163 TIP3     1483     TIP3     OH2      OT      -0.834000       15.9994           0
     23164 TIP3     1483     TIP3     H1       HT       0.417000       1.00800           0
     23165 TIP3     1483     TIP3     H2       HT       0.417000       1.00800           0
     23166 TIP3     1484     TIP3     OH2      OT      -0.834000       15.9994           0
     23167 TIP3     1484     TIP3     H1       HT       0.417000       1.00800           0
     23168 TIP3     1484     TIP3     H2       HT       0.417000       1.00800           0
     23169 TIP3     1485     TIP3     OH2      OT      -0.834000       15.9994           0
     23170 TIP3     1485     TIP3     H1       HT       0.417000       1.00800           0
     23171 TIP3     1485     TIP3     H2       HT       0.417000       1.00800           0
     23172 TIP3     1486     TIP3     OH2      OT      -0.834000       15.9994           0
     23173 TIP3     1486     TIP3     H1       HT       0.417000       1.00800           0
     23174 TIP3     1486     TIP3     H2       HT       0.417000       1.00800           0
     23175 TIP3     1487     TIP3     OH2      OT      -0.834000       15.9994           0
     23176 TIP3     1487     TIP3     H1       HT       0.417000       1.00800           0
     23177 TIP3     1487     TIP3     H2       HT       0.417000       1.00800           0
     23178 TIP3     1488     TIP3     OH2      OT      -0.834000       15.9994           0
     23179 TIP3     1488     TIP3     H1       HT       0.417000       1.00800           0
     23180 TIP3     1488     TIP3     H2       HT       0.417000       1.00800           0
     23181 TIP3     1489     TIP3     OH2      OT      -0.834000       15.9994           0
     23182 TIP3     1489     TIP3     H1       HT       0.417000       1.00800           0
     23183 TIP3     1489     TIP3     H2       HT       0.417000       1.00800           0
     23184 TIP3     1490     TIP3     OH2      OT      -0.834000       15.9994           0
     23185 TIP3     1490     TIP3     H1       HT       0.417000       1.00800           0
     23186 TIP3     1490     TIP3     H2       HT       0.417000       1.00800           0
     23187 TIP3     1491     TIP3     OH2      OT      -0.834000       15.9994           0
     23188 TIP3     1491     TIP3     H1       HT       0.417000       1.00800           0
     23189 TIP3     1491     TIP3     H2       HT       0.417000       1.00800           0
     23190 TIP3     1492     TIP3     OH2      OT      -0.834000       15.9994           0
     23191 TIP3     1492     TIP3     H1       HT       0.417000       1.00800           0
     23192 TIP3     1492     TIP3     H2       HT       0.417000       1.00800           0
     23193 TIP3     1493     TIP3     OH2      OT      -0.834000       15.9994           0
     23194 TIP3     1493     TIP3     H1       HT       0.417000       1.00800           0
     23195 TIP3     1493     TIP3     H2       HT       0.417000       1.00800           0
     23196 TIP3     1494     TIP3     OH2      OT      -0.834000       15.9994           0
     23197 TIP3     1494     TIP3     H1       HT       0.417000       1.00800           0
     23198 TIP3     1494     TIP3     H2       HT       0.417000       1.00800           0
     23199 TIP3     1495     TIP3     OH2      OT      -0.834000       15.9994           0
     23200 TIP3     1495     TIP3     H1       HT       0.417000       1.00800           0
     23201 TIP3     1495     TIP3     H2       HT       0.417000       1.00800           0
     23202 TIP3     1496     TIP3     OH2      OT      -0.834000       15.9994           0
     23203 TIP3     1496     TIP3     H1       HT       0.417000       1.00800           0
     23204 TIP3     1496     TIP3     H2       HT       0.417000       1.00800           0
     23205 TIP3     1497     TIP3     OH2      OT      -0.834000       15.9994           0
     23206 TIP3     1497     TIP3     H1       HT       0.417000       1.00800           0
     23207 TIP3     1497     TIP3     H2       HT       0.417000       1.00800           0
     23208 TIP3     1498     TIP3     OH2      OT      -0.834000       15.9994           0
     23209 TIP3     1498     TIP3     H1       HT       0.417000       1.00800           0
     23210 TIP3     1498     TIP3     H2       HT       0.417000       1.00800           0
     23211 TIP3     1499     TIP3     OH2      OT      -0.834000       15.9994           0
     23212 TIP3     1499     TIP3     H1       HT       0.417000       1.00800           0
     23213 TIP3     1499     TIP3     H2       HT       0.417000       1.00800           0
     23214 TIP3     1500     TIP3     OH2      OT      -0.834000       15.9994           0
     23215 TIP3     1500     TIP3     H1       HT       0.417000       1.00800           0
     23216 TIP3     1500     TIP3     H2       HT       0.417000       1.00800           0
     23217 TIP3     1501     TIP3     OH2      OT      -0.834000       15.9994           0
     23218 TIP3     1501     TIP3     H1       HT       0.417000       1.00800           0
     23219 TIP3     1501     TIP3     H2       HT       0.417000       1.00800           0
     23220 TIP3     1502     TIP3     OH2      OT      -0.834000       15.9994           0
     23221 TIP3     1502     TIP3     H1       HT       0.417000       1.00800           0
     23222 TIP3     1502     TIP3     H2       HT       0.417000       1.00800           0
     23223 TIP3     1503     TIP3     OH2      OT      -0.834000       15.9994           0
     23224 TIP3     1503     TIP3     H1       HT       0.417000       1.00800           0
     23225 TIP3     1503     TIP3     H2       HT       0.417000       1.00800           0
     23226 TIP3     1504     TIP3     OH2      OT      -0.834000       15.9994           0
     23227 TIP3     1504     TIP3     H1       HT       0.417000       1.00800           0
     23228 TIP3     1504     TIP3     H2       HT       0.417000       1.00800           0
     23229 TIP3     1505     TIP3     OH2      OT      -0.834000       15.9994           0
     23230 TIP3     1505     TIP3     H1       HT       0.417000       1.00800           0
     23231 TIP3     1505     TIP3     H2       HT       0.417000       1.00800           0
     23232 TIP3     1506     TIP3     OH2      OT      -0.834000       15.9994           0
     23233 TIP3     1506     TIP3     H1       HT       0.417000       1.00800           0
     23234 TIP3     1506     TIP3     H2       HT       0.417000       1.00800           0
     23235 TIP3     1507     TIP3     OH2      OT      -0.834000       15.9994           0
     23236 TIP3     1507     TIP3     H1       HT       0.417000       1.00800           0
     23237 TIP3     1507     TIP3     H2       HT       0.417000       1.00800           0
     23238 TIP3     1508     TIP3     OH2      OT      -0.834000       15.9994           0
     23239 TIP3     1508     TIP3     H1       HT       0.417000       1.00800           0
     23240 TIP3     1508     TIP3     H2       HT       0.417000       1.00800           0
     23241 TIP3     1509     TIP3     OH2      OT      -0.834000       15.9994           0
     23242 TIP3     1509     TIP3     H1       HT       0.417000       1.00800           0
     23243 TIP3     1509     TIP3     H2       HT       0.417000       1.00800           0
     23244 TIP3     1510     TIP3     OH2      OT      -0.834000       15.9994           0
     23245 TIP3     1510     TIP3     H1       HT       0.417000       1.00800           0
     23246 TIP3     1510     TIP3     H2       HT       0.417000       1.00800           0
     23247 TIP3     1511     TIP3     OH2      OT      -0.834000       15.9994           0
     23248 TIP3     1511     TIP3     H1       HT       0.417000       1.00800           0
     23249 TIP3     1511     TIP3     H2       HT       0.417000       1.00800           0
     23250 TIP3     1512     TIP3     OH2      OT      -0.834000       15.9994           0
     23251 TIP3     1512     TIP3     H1       HT       0.417000       1.00800           0
     23252 TIP3     1512     TIP3     H2       HT       0.417000       1.00800           0
     23253 TIP3     1513     TIP3     OH2      OT      -0.834000       15.9994           0
     23254 TIP3     1513     TIP3     H1       HT       0.417000       1.00800           0
     23255 TIP3     1513     TIP3     H2       HT       0.417000       1.00800           0
     23256 TIP3     1514     TIP3     OH2      OT      -0.834000       15.9994           0
     23257 TIP3     1514     TIP3     H1       HT       0.417000       1.00800           0
     23258 TIP3     1514     TIP3     H2       HT       0.417000       1.00800           0
     23259 TIP3     1515     TIP3     OH2      OT      -0.834000       15.9994           0
     23260 TIP3     1515     TIP3     H1       HT       0.417000       1.00800           0
     23261 TIP3     1515     TIP3     H2       HT       0.417000       1.00800           0
     23262 TIP3     1516     TIP3     OH2      OT      -0.834000       15.9994           0
     23263 TIP3     1516     TIP3     H1       HT       0.417000       1.00800           0
     23264 TIP3     1516     TIP3     H2       HT       0.417000       1.00800           0
     23265 TIP3     1517     TIP3     OH2      OT      -0.834000       15.9994           0
     23266 TIP3     1517     TIP3     H1       HT       0.417000       1.00800           0
     23267 TIP3     1517     TIP3     H2       HT       0.417000       1.00800           0
     23268 TIP3     1518     TIP3     OH2      OT      -0.834000       15.9994           0
     23269 TIP3     1518     TIP3     H1       HT       0.417000       1.00800           0
     23270 TIP3     1518     TIP3     H2       HT       0.417000       1.00800           0
     23271 TIP3     1519     TIP3     OH2      OT      -0.834000       15.9994           0
     23272 TIP3     1519     TIP3     H1       HT       0.417000       1.00800           0
     23273 TIP3     1519     TIP3     H2       HT       0.417000       1.00800           0
     23274 TIP3     1520     TIP3     OH2      OT      -0.834000       15.9994           0
     23275 TIP3     1520     TIP3     H1       HT       0.417000       1.00800           0
     23276 TIP3     1520     TIP3     H2       HT       0.417000       1.00800           0
     23277 TIP3     1521     TIP3     OH2      OT      -0.834000       15.9994           0
     23278 TIP3     1521     TIP3     H1       HT       0.417000       1.00800           0
     23279 TIP3     1521     TIP3     H2       HT       0.417000       1.00800           0
     23280 TIP3     1522     TIP3     OH2      OT      -0.834000       15.9994           0
     23281 TIP3     1522     TIP3     H1       HT       0.417000       1.00800           0
     23282 TIP3     1522     TIP3     H2       HT       0.417000       1.00800           0
     23283 TIP3     1523     TIP3     OH2      OT      -0.834000       15.9994           0
     23284 TIP3     1523     TIP3     H1       HT       0.417000       1.00800           0
     23285 TIP3     1523     TIP3     H2       HT       0.417000       1.00800           0
     23286 TIP3     1524     TIP3     OH2      OT      -0.834000       15.9994           0
     23287 TIP3     1524     TIP3     H1       HT       0.417000       1.00800           0
     23288 TIP3     1524     TIP3     H2       HT       0.417000       1.00800           0
     23289 TIP3     1525     TIP3     OH2      OT      -0.834000       15.9994           0
     23290 TIP3     1525     TIP3     H1       HT       0.417000       1.00800           0
     23291 TIP3     1525     TIP3     H2       HT       0.417000       1.00800           0
     23292 TIP3     1526     TIP3     OH2      OT      -0.834000       15.9994           0
     23293 TIP3     1526     TIP3     H1       HT       0.417000       1.00800           0
     23294 TIP3     1526     TIP3     H2       HT       0.417000       1.00800           0
     23295 TIP3     1527     TIP3     OH2      OT      -0.834000       15.9994           0
     23296 TIP3     1527     TIP3     H1       HT       0.417000       1.00800           0
     23297 TIP3     1527     TIP3     H2       HT       0.417000       1.00800           0
     23298 TIP3     1528     TIP3     OH2      OT      -0.834000       15.9994           0
     23299 TIP3     1528     TIP3     H1       HT       0.417000       1.00800           0
     23300 TIP3     1528     TIP3     H2       HT       0.417000       1.00800           0
     23301 TIP3     1529     TIP3     OH2      OT      -0.834000       15.9994           0
     23302 TIP3     1529     TIP3     H1       HT       0.417000       1.00800           0
     23303 TIP3     1529     TIP3     H2       HT       0.417000       1.00800           0
     23304 TIP3     1530     TIP3     OH2      OT      -0.834000       15.9994           0
     23305 TIP3     1530     TIP3     H1       HT       0.417000       1.00800           0
     23306 TIP3     1530     TIP3     H2       HT       0.417000       1.00800           0
     23307 TIP3     1531     TIP3     OH2      OT      -0.834000       15.9994           0
     23308 TIP3     1531     TIP3     H1       HT       0.417000       1.00800           0
     23309 TIP3     1531     TIP3     H2       HT       0.417000       1.00800           0
     23310 TIP3     1532     TIP3     OH2      OT      -0.834000       15.9994           0
     23311 TIP3     1532     TIP3     H1       HT       0.417000       1.00800           0
     23312 TIP3     1532     TIP3     H2       HT       0.417000       1.00800           0
     23313 TIP3     1533     TIP3     OH2      OT      -0.834000       15.9994           0
     23314 TIP3     1533     TIP3     H1       HT       0.417000       1.00800           0
     23315 TIP3     1533     TIP3     H2       HT       0.417000       1.00800           0
     23316 TIP3     1534     TIP3     OH2      OT      -0.834000       15.9994           0
     23317 TIP3     1534     TIP3     H1       HT       0.417000       1.00800           0
     23318 TIP3     1534     TIP3     H2       HT       0.417000       1.00800           0
     23319 TIP3     1535     TIP3     OH2      OT      -0.834000       15.9994           0
     23320 TIP3     1535     TIP3     H1       HT       0.417000       1.00800           0
     23321 TIP3     1535     TIP3     H2       HT       0.417000       1.00800           0
     23322 TIP3     1536     TIP3     OH2      OT      -0.834000       15.9994           0
     23323 TIP3     1536     TIP3     H1       HT       0.417000       1.00800           0
     23324 TIP3     1536     TIP3     H2       HT       0.417000       1.00800           0
     23325 TIP3     1537     TIP3     OH2      OT      -0.834000       15.9994           0
     23326 TIP3     1537     TIP3     H1       HT       0.417000       1.00800           0
     23327 TIP3     1537     TIP3     H2       HT       0.417000       1.00800           0
     23328 TIP3     1538     TIP3     OH2      OT      -0.834000       15.9994           0
     23329 TIP3     1538     TIP3     H1       HT       0.417000       1.00800           0
     23330 TIP3     1538     TIP3     H2       HT       0.417000       1.00800           0
     23331 TIP3     1539     TIP3     OH2      OT      -0.834000       15.9994           0
     23332 TIP3     1539     TIP3     H1       HT       0.417000       1.00800           0
     23333 TIP3     1539     TIP3     H2       HT       0.417000       1.00800           0
     23334 TIP3     1540     TIP3     OH2      OT      -0.834000       15.9994           0
     23335 TIP3     1540     TIP3     H1       HT       0.417000       1.00800           0
     23336 TIP3     1540     TIP3     H2       HT       0.417000       1.00800           0
     23337 TIP3     1541     TIP3     OH2      OT      -0.834000       15.9994           0
     23338 TIP3     1541     TIP3     H1       HT       0.417000       1.00800           0
     23339 TIP3     1541     TIP3     H2       HT       0.417000       1.00800           0
     23340 TIP3     1542     TIP3     OH2      OT      -0.834000       15.9994           0
     23341 TIP3     1542     TIP3     H1       HT       0.417000       1.00800           0
     23342 TIP3     1542     TIP3     H2       HT       0.417000       1.00800           0
     23343 TIP3     1543     TIP3     OH2      OT      -0.834000       15.9994           0
     23344 TIP3     1543     TIP3     H1       HT       0.417000       1.00800           0
     23345 TIP3     1543     TIP3     H2       HT       0.417000       1.00800           0
     23346 TIP3     1544     TIP3     OH2      OT      -0.834000       15.9994           0
     23347 TIP3     1544     TIP3     H1       HT       0.417000       1.00800           0
     23348 TIP3     1544     TIP3     H2       HT       0.417000       1.00800           0
     23349 TIP3     1545     TIP3     OH2      OT      -0.834000       15.9994           0
     23350 TIP3     1545     TIP3     H1       HT       0.417000       1.00800           0
     23351 TIP3     1545     TIP3     H2       HT       0.417000       1.00800           0
     23352 TIP3     1546     TIP3     OH2      OT      -0.834000       15.9994           0
     23353 TIP3     1546     TIP3     H1       HT       0.417000       1.00800           0
     23354 TIP3     1546     TIP3     H2       HT       0.417000       1.00800           0
     23355 TIP3     1547     TIP3     OH2      OT      -0.834000       15.9994           0
     23356 TIP3     1547     TIP3     H1       HT       0.417000       1.00800           0
     23357 TIP3     1547     TIP3     H2       HT       0.417000       1.00800           0
     23358 TIP3     1548     TIP3     OH2      OT      -0.834000       15.9994           0
     23359 TIP3     1548     TIP3     H1       HT       0.417000       1.00800           0
     23360 TIP3     1548     TIP3     H2       HT       0.417000       1.00800           0
     23361 TIP3     1549     TIP3     OH2      OT      -0.834000       15.9994           0
     23362 TIP3     1549     TIP3     H1       HT       0.417000       1.00800           0
     23363 TIP3     1549     TIP3     H2       HT       0.417000       1.00800           0
     23364 TIP3     1550     TIP3     OH2      OT      -0.834000       15.9994           0
     23365 TIP3     1550     TIP3     H1       HT       0.417000       1.00800           0
     23366 TIP3     1550     TIP3     H2       HT       0.417000       1.00800           0
     23367 TIP3     1551     TIP3     OH2      OT      -0.834000       15.9994           0
     23368 TIP3     1551     TIP3     H1       HT       0.417000       1.00800           0
     23369 TIP3     1551     TIP3     H2       HT       0.417000       1.00800           0
     23370 TIP3     1552     TIP3     OH2      OT      -0.834000       15.9994           0
     23371 TIP3     1552     TIP3     H1       HT       0.417000       1.00800           0
     23372 TIP3     1552     TIP3     H2       HT       0.417000       1.00800           0
     23373 TIP3     1553     TIP3     OH2      OT      -0.834000       15.9994           0
     23374 TIP3     1553     TIP3     H1       HT       0.417000       1.00800           0
     23375 TIP3     1553     TIP3     H2       HT       0.417000       1.00800           0
     23376 TIP3     1554     TIP3     OH2      OT      -0.834000       15.9994           0
     23377 TIP3     1554     TIP3     H1       HT       0.417000       1.00800           0
     23378 TIP3     1554     TIP3     H2       HT       0.417000       1.00800           0
     23379 TIP3     1555     TIP3     OH2      OT      -0.834000       15.9994           0
     23380 TIP3     1555     TIP3     H1       HT       0.417000       1.00800           0
     23381 TIP3     1555     TIP3     H2       HT       0.417000       1.00800           0
     23382 TIP3     1556     TIP3     OH2      OT      -0.834000       15.9994           0
     23383 TIP3     1556     TIP3     H1       HT       0.417000       1.00800           0
     23384 TIP3     1556     TIP3     H2       HT       0.417000       1.00800           0
     23385 TIP3     1557     TIP3     OH2      OT      -0.834000       15.9994           0
     23386 TIP3     1557     TIP3     H1       HT       0.417000       1.00800           0
     23387 TIP3     1557     TIP3     H2       HT       0.417000       1.00800           0
     23388 TIP3     1558     TIP3     OH2      OT      -0.834000       15.9994           0
     23389 TIP3     1558     TIP3     H1       HT       0.417000       1.00800           0
     23390 TIP3     1558     TIP3     H2       HT       0.417000       1.00800           0
     23391 TIP3     1559     TIP3     OH2      OT      -0.834000       15.9994           0
     23392 TIP3     1559     TIP3     H1       HT       0.417000       1.00800           0
     23393 TIP3     1559     TIP3     H2       HT       0.417000       1.00800           0
     23394 TIP3     1560     TIP3     OH2      OT      -0.834000       15.9994           0
     23395 TIP3     1560     TIP3     H1       HT       0.417000       1.00800           0
     23396 TIP3     1560     TIP3     H2       HT       0.417000       1.00800           0
     23397 TIP3     1561     TIP3     OH2      OT      -0.834000       15.9994           0
     23398 TIP3     1561     TIP3     H1       HT       0.417000       1.00800           0
     23399 TIP3     1561     TIP3     H2       HT       0.417000       1.00800           0
     23400 TIP3     1562     TIP3     OH2      OT      -0.834000       15.9994           0
     23401 TIP3     1562     TIP3     H1       HT       0.417000       1.00800           0
     23402 TIP3     1562     TIP3     H2       HT       0.417000       1.00800           0
     23403 TIP3     1563     TIP3     OH2      OT      -0.834000       15.9994           0
     23404 TIP3     1563     TIP3     H1       HT       0.417000       1.00800           0
     23405 TIP3     1563     TIP3     H2       HT       0.417000       1.00800           0
     23406 TIP3     1564     TIP3     OH2      OT      -0.834000       15.9994           0
     23407 TIP3     1564     TIP3     H1       HT       0.417000       1.00800           0
     23408 TIP3     1564     TIP3     H2       HT       0.417000       1.00800           0
     23409 TIP3     1565     TIP3     OH2      OT      -0.834000       15.9994           0
     23410 TIP3     1565     TIP3     H1       HT       0.417000       1.00800           0
     23411 TIP3     1565     TIP3     H2       HT       0.417000       1.00800           0
     23412 TIP3     1566     TIP3     OH2      OT      -0.834000       15.9994           0
     23413 TIP3     1566     TIP3     H1       HT       0.417000       1.00800           0
     23414 TIP3     1566     TIP3     H2       HT       0.417000       1.00800           0
     23415 TIP3     1567     TIP3     OH2      OT      -0.834000       15.9994           0
     23416 TIP3     1567     TIP3     H1       HT       0.417000       1.00800           0
     23417 TIP3     1567     TIP3     H2       HT       0.417000       1.00800           0
     23418 TIP3     1568     TIP3     OH2      OT      -0.834000       15.9994           0
     23419 TIP3     1568     TIP3     H1       HT       0.417000       1.00800           0
     23420 TIP3     1568     TIP3     H2       HT       0.417000       1.00800           0
     23421 TIP3     1569     TIP3     OH2      OT      -0.834000       15.9994           0
     23422 TIP3     1569     TIP3     H1       HT       0.417000       1.00800           0
     23423 TIP3     1569     TIP3     H2       HT       0.417000       1.00800           0
     23424 TIP3     1570     TIP3     OH2      OT      -0.834000       15.9994           0
     23425 TIP3     1570     TIP3     H1       HT       0.417000       1.00800           0
     23426 TIP3     1570     TIP3     H2       HT       0.417000       1.00800           0
     23427 TIP3     1571     TIP3     OH2      OT      -0.834000       15.9994           0
     23428 TIP3     1571     TIP3     H1       HT       0.417000       1.00800           0
     23429 TIP3     1571     TIP3     H2       HT       0.417000       1.00800           0
     23430 TIP3     1572     TIP3     OH2      OT      -0.834000       15.9994           0
     23431 TIP3     1572     TIP3     H1       HT       0.417000       1.00800           0
     23432 TIP3     1572     TIP3     H2       HT       0.417000       1.00800           0
     23433 TIP3     1573     TIP3     OH2      OT      -0.834000       15.9994           0
     23434 TIP3     1573     TIP3     H1       HT       0.417000       1.00800           0
     23435 TIP3     1573     TIP3     H2       HT       0.417000       1.00800           0
     23436 TIP3     1574     TIP3     OH2      OT      -0.834000       15.9994           0
     23437 TIP3     1574     TIP3     H1       HT       0.417000       1.00800           0
     23438 TIP3     1574     TIP3     H2       HT       0.417000       1.00800           0
     23439 TIP3     1575     TIP3     OH2      OT      -0.834000       15.9994           0
     23440 TIP3     1575     TIP3     H1       HT       0.417000       1.00800           0
     23441 TIP3     1575     TIP3     H2       HT       0.417000       1.00800           0
     23442 TIP3     1576     TIP3     OH2      OT      -0.834000       15.9994           0
     23443 TIP3     1576     TIP3     H1       HT       0.417000       1.00800           0
     23444 TIP3     1576     TIP3     H2       HT       0.417000       1.00800           0
     23445 TIP3     1577     TIP3     OH2      OT      -0.834000       15.9994           0
     23446 TIP3     1577     TIP3     H1       HT       0.417000       1.00800           0
     23447 TIP3     1577     TIP3     H2       HT       0.417000       1.00800           0
     23448 TIP3     1578     TIP3     OH2      OT      -0.834000       15.9994           0
     23449 TIP3     1578     TIP3     H1       HT       0.417000       1.00800           0
     23450 TIP3     1578     TIP3     H2       HT       0.417000       1.00800           0
     23451 TIP3     1579     TIP3     OH2      OT      -0.834000       15.9994           0
     23452 TIP3     1579     TIP3     H1       HT       0.417000       1.00800           0
     23453 TIP3     1579     TIP3     H2       HT       0.417000       1.00800           0
     23454 TIP3     1580     TIP3     OH2      OT      -0.834000       15.9994           0
     23455 TIP3     1580     TIP3     H1       HT       0.417000       1.00800           0
     23456 TIP3     1580     TIP3     H2       HT       0.417000       1.00800           0
     23457 TIP3     1581     TIP3     OH2      OT      -0.834000       15.9994           0
     23458 TIP3     1581     TIP3     H1       HT       0.417000       1.00800           0
     23459 TIP3     1581     TIP3     H2       HT       0.417000       1.00800           0
     23460 TIP3     1582     TIP3     OH2      OT      -0.834000       15.9994           0
     23461 TIP3     1582     TIP3     H1       HT       0.417000       1.00800           0
     23462 TIP3     1582     TIP3     H2       HT       0.417000       1.00800           0
     23463 TIP3     1583     TIP3     OH2      OT      -0.834000       15.9994           0
     23464 TIP3     1583     TIP3     H1       HT       0.417000       1.00800           0
     23465 TIP3     1583     TIP3     H2       HT       0.417000       1.00800           0
     23466 TIP3     1584     TIP3     OH2      OT      -0.834000       15.9994           0
     23467 TIP3     1584     TIP3     H1       HT       0.417000       1.00800           0
     23468 TIP3     1584     TIP3     H2       HT       0.417000       1.00800           0
     23469 TIP3     1585     TIP3     OH2      OT      -0.834000       15.9994           0
     23470 TIP3     1585     TIP3     H1       HT       0.417000       1.00800           0
     23471 TIP3     1585     TIP3     H2       HT       0.417000       1.00800           0
     23472 TIP3     1586     TIP3     OH2      OT      -0.834000       15.9994           0
     23473 TIP3     1586     TIP3     H1       HT       0.417000       1.00800           0
     23474 TIP3     1586     TIP3     H2       HT       0.417000       1.00800           0
     23475 TIP3     1587     TIP3     OH2      OT      -0.834000       15.9994           0
     23476 TIP3     1587     TIP3     H1       HT       0.417000       1.00800           0
     23477 TIP3     1587     TIP3     H2       HT       0.417000       1.00800           0
     23478 TIP3     1588     TIP3     OH2      OT      -0.834000       15.9994           0
     23479 TIP3     1588     TIP3     H1       HT       0.417000       1.00800           0
     23480 TIP3     1588     TIP3     H2       HT       0.417000       1.00800           0
     23481 TIP3     1589     TIP3     OH2      OT      -0.834000       15.9994           0
     23482 TIP3     1589     TIP3     H1       HT       0.417000       1.00800           0
     23483 TIP3     1589     TIP3     H2       HT       0.417000       1.00800           0
     23484 TIP3     1590     TIP3     OH2      OT      -0.834000       15.9994           0
     23485 TIP3     1590     TIP3     H1       HT       0.417000       1.00800           0
     23486 TIP3     1590     TIP3     H2       HT       0.417000       1.00800           0
     23487 TIP3     1591     TIP3     OH2      OT      -0.834000       15.9994           0
     23488 TIP3     1591     TIP3     H1       HT       0.417000       1.00800           0
     23489 TIP3     1591     TIP3     H2       HT       0.417000       1.00800           0
     23490 TIP3     1592     TIP3     OH2      OT      -0.834000       15.9994           0
     23491 TIP3     1592     TIP3     H1       HT       0.417000       1.00800           0
     23492 TIP3     1592     TIP3     H2       HT       0.417000       1.00800           0
     23493 TIP3     1593     TIP3     OH2      OT      -0.834000       15.9994           0
     23494 TIP3     1593     TIP3     H1       HT       0.417000       1.00800           0
     23495 TIP3     1593     TIP3     H2       HT       0.417000       1.00800           0
     23496 TIP3     1594     TIP3     OH2      OT      -0.834000       15.9994           0
     23497 TIP3     1594     TIP3     H1       HT       0.417000       1.00800           0
     23498 TIP3     1594     TIP3     H2       HT       0.417000       1.00800           0
     23499 TIP3     1595     TIP3     OH2      OT      -0.834000       15.9994           0
     23500 TIP3     1595     TIP3     H1       HT       0.417000       1.00800           0
     23501 TIP3     1595     TIP3     H2       HT       0.417000       1.00800           0
     23502 TIP3     1596     TIP3     OH2      OT      -0.834000       15.9994           0
     23503 TIP3     1596     TIP3     H1       HT       0.417000       1.00800           0
     23504 TIP3     1596     TIP3     H2       HT       0.417000       1.00800           0
     23505 TIP3     1597     TIP3     OH2      OT      -0.834000       15.9994           0
     23506 TIP3     1597     TIP3     H1       HT       0.417000       1.00800           0
     23507 TIP3     1597     TIP3     H2       HT       0.417000       1.00800           0
     23508 TIP3     1598     TIP3     OH2      OT      -0.834000       15.9994           0
     23509 TIP3     1598     TIP3     H1       HT       0.417000       1.00800           0
     23510 TIP3     1598     TIP3     H2       HT       0.417000       1.00800           0
     23511 TIP3     1599     TIP3     OH2      OT      -0.834000       15.9994           0
     23512 TIP3     1599     TIP3     H1       HT       0.417000       1.00800           0
     23513 TIP3     1599     TIP3     H2       HT       0.417000       1.00800           0
     23514 TIP3     1600     TIP3     OH2      OT      -0.834000       15.9994           0
     23515 TIP3     1600     TIP3     H1       HT       0.417000       1.00800           0
     23516 TIP3     1600     TIP3     H2       HT       0.417000       1.00800           0
     23517 TIP3     1601     TIP3     OH2      OT      -0.834000       15.9994           0
     23518 TIP3     1601     TIP3     H1       HT       0.417000       1.00800           0
     23519 TIP3     1601     TIP3     H2       HT       0.417000       1.00800           0
     23520 TIP3     1602     TIP3     OH2      OT      -0.834000       15.9994           0
     23521 TIP3     1602     TIP3     H1       HT       0.417000       1.00800           0
     23522 TIP3     1602     TIP3     H2       HT       0.417000       1.00800           0
     23523 TIP3     1603     TIP3     OH2      OT      -0.834000       15.9994           0
     23524 TIP3     1603     TIP3     H1       HT       0.417000       1.00800           0
     23525 TIP3     1603     TIP3     H2       HT       0.417000       1.00800           0
     23526 TIP3     1604     TIP3     OH2      OT      -0.834000       15.9994           0
     23527 TIP3     1604     TIP3     H1       HT       0.417000       1.00800           0
     23528 TIP3     1604     TIP3     H2       HT       0.417000       1.00800           0
     23529 TIP3     1605     TIP3     OH2      OT      -0.834000       15.9994           0
     23530 TIP3     1605     TIP3     H1       HT       0.417000       1.00800           0
     23531 TIP3     1605     TIP3     H2       HT       0.417000       1.00800           0
     23532 TIP3     1606     TIP3     OH2      OT      -0.834000       15.9994           0
     23533 TIP3     1606     TIP3     H1       HT       0.417000       1.00800           0
     23534 TIP3     1606     TIP3     H2       HT       0.417000       1.00800           0
     23535 TIP3     1607     TIP3     OH2      OT      -0.834000       15.9994           0
     23536 TIP3     1607     TIP3     H1       HT       0.417000       1.00800           0
     23537 TIP3     1607     TIP3     H2       HT       0.417000       1.00800           0
     23538 TIP3     1608     TIP3     OH2      OT      -0.834000       15.9994           0
     23539 TIP3     1608     TIP3     H1       HT       0.417000       1.00800           0
     23540 TIP3     1608     TIP3     H2       HT       0.417000       1.00800           0
     23541 TIP3     1609     TIP3     OH2      OT      -0.834000       15.9994           0
     23542 TIP3     1609     TIP3     H1       HT       0.417000       1.00800           0
     23543 TIP3     1609     TIP3     H2       HT       0.417000       1.00800           0
     23544 TIP3     1610     TIP3     OH2      OT      -0.834000       15.9994           0
     23545 TIP3     1610     TIP3     H1       HT       0.417000       1.00800           0
     23546 TIP3     1610     TIP3     H2       HT       0.417000       1.00800           0
     23547 TIP3     1611     TIP3     OH2      OT      -0.834000       15.9994           0
     23548 TIP3     1611     TIP3     H1       HT       0.417000       1.00800           0
     23549 TIP3     1611     TIP3     H2       HT       0.417000       1.00800           0
     23550 TIP3     1612     TIP3     OH2      OT      -0.834000       15.9994           0
     23551 TIP3     1612     TIP3     H1       HT       0.417000       1.00800           0
     23552 TIP3     1612     TIP3     H2       HT       0.417000       1.00800           0
     23553 TIP3     1613     TIP3     OH2      OT      -0.834000       15.9994           0
     23554 TIP3     1613     TIP3     H1       HT       0.417000       1.00800           0
     23555 TIP3     1613     TIP3     H2       HT       0.417000       1.00800           0
     23556 TIP3     1614     TIP3     OH2      OT      -0.834000       15.9994           0
     23557 TIP3     1614     TIP3     H1       HT       0.417000       1.00800           0
     23558 TIP3     1614     TIP3     H2       HT       0.417000       1.00800           0
     23559 TIP3     1615     TIP3     OH2      OT      -0.834000       15.9994           0
     23560 TIP3     1615     TIP3     H1       HT       0.417000       1.00800           0
     23561 TIP3     1615     TIP3     H2       HT       0.417000       1.00800           0
     23562 TIP3     1616     TIP3     OH2      OT      -0.834000       15.9994           0
     23563 TIP3     1616     TIP3     H1       HT       0.417000       1.00800           0
     23564 TIP3     1616     TIP3     H2       HT       0.417000       1.00800           0
     23565 TIP3     1617     TIP3     OH2      OT      -0.834000       15.9994           0
     23566 TIP3     1617     TIP3     H1       HT       0.417000       1.00800           0
     23567 TIP3     1617     TIP3     H2       HT       0.417000       1.00800           0
     23568 TIP3     1618     TIP3     OH2      OT      -0.834000       15.9994           0
     23569 TIP3     1618     TIP3     H1       HT       0.417000       1.00800           0
     23570 TIP3     1618     TIP3     H2       HT       0.417000       1.00800           0
     23571 TIP3     1619     TIP3     OH2      OT      -0.834000       15.9994           0
     23572 TIP3     1619     TIP3     H1       HT       0.417000       1.00800           0
     23573 TIP3     1619     TIP3     H2       HT       0.417000       1.00800           0
     23574 TIP3     1620     TIP3     OH2      OT      -0.834000       15.9994           0
     23575 TIP3     1620     TIP3     H1       HT       0.417000       1.00800           0
     23576 TIP3     1620     TIP3     H2       HT       0.417000       1.00800           0
     23577 TIP3     1621     TIP3     OH2      OT      -0.834000       15.9994           0
     23578 TIP3     1621     TIP3     H1       HT       0.417000       1.00800           0
     23579 TIP3     1621     TIP3     H2       HT       0.417000       1.00800           0
     23580 TIP3     1622     TIP3     OH2      OT      -0.834000       15.9994           0
     23581 TIP3     1622     TIP3     H1       HT       0.417000       1.00800           0
     23582 TIP3     1622     TIP3     H2       HT       0.417000       1.00800           0
     23583 TIP3     1623     TIP3     OH2      OT      -0.834000       15.9994           0
     23584 TIP3     1623     TIP3     H1       HT       0.417000       1.00800           0
     23585 TIP3     1623     TIP3     H2       HT       0.417000       1.00800           0
     23586 TIP3     1624     TIP3     OH2      OT      -0.834000       15.9994           0
     23587 TIP3     1624     TIP3     H1       HT       0.417000       1.00800           0
     23588 TIP3     1624     TIP3     H2       HT       0.417000       1.00800           0
     23589 TIP3     1625     TIP3     OH2      OT      -0.834000       15.9994           0
     23590 TIP3     1625     TIP3     H1       HT       0.417000       1.00800           0
     23591 TIP3     1625     TIP3     H2       HT       0.417000       1.00800           0
     23592 TIP3     1626     TIP3     OH2      OT      -0.834000       15.9994           0
     23593 TIP3     1626     TIP3     H1       HT       0.417000       1.00800           0
     23594 TIP3     1626     TIP3     H2       HT       0.417000       1.00800           0
     23595 TIP3     1627     TIP3     OH2      OT      -0.834000       15.9994           0
     23596 TIP3     1627     TIP3     H1       HT       0.417000       1.00800           0
     23597 TIP3     1627     TIP3     H2       HT       0.417000       1.00800           0
     23598 TIP3     1628     TIP3     OH2      OT      -0.834000       15.9994           0
     23599 TIP3     1628     TIP3     H1       HT       0.417000       1.00800           0
     23600 TIP3     1628     TIP3     H2       HT       0.417000       1.00800           0
     23601 TIP3     1629     TIP3     OH2      OT      -0.834000       15.9994           0
     23602 TIP3     1629     TIP3     H1       HT       0.417000       1.00800           0
     23603 TIP3     1629     TIP3     H2       HT       0.417000       1.00800           0
     23604 TIP3     1630     TIP3     OH2      OT      -0.834000       15.9994           0
     23605 TIP3     1630     TIP3     H1       HT       0.417000       1.00800           0
     23606 TIP3     1630     TIP3     H2       HT       0.417000       1.00800           0
     23607 TIP3     1631     TIP3     OH2      OT      -0.834000       15.9994           0
     23608 TIP3     1631     TIP3     H1       HT       0.417000       1.00800           0
     23609 TIP3     1631     TIP3     H2       HT       0.417000       1.00800           0
     23610 TIP3     1632     TIP3     OH2      OT      -0.834000       15.9994           0
     23611 TIP3     1632     TIP3     H1       HT       0.417000       1.00800           0
     23612 TIP3     1632     TIP3     H2       HT       0.417000       1.00800           0
     23613 TIP3     1633     TIP3     OH2      OT      -0.834000       15.9994           0
     23614 TIP3     1633     TIP3     H1       HT       0.417000       1.00800           0
     23615 TIP3     1633     TIP3     H2       HT       0.417000       1.00800           0
     23616 TIP3     1634     TIP3     OH2      OT      -0.834000       15.9994           0
     23617 TIP3     1634     TIP3     H1       HT       0.417000       1.00800           0
     23618 TIP3     1634     TIP3     H2       HT       0.417000       1.00800           0
     23619 TIP3     1635     TIP3     OH2      OT      -0.834000       15.9994           0
     23620 TIP3     1635     TIP3     H1       HT       0.417000       1.00800           0
     23621 TIP3     1635     TIP3     H2       HT       0.417000       1.00800           0
     23622 TIP3     1636     TIP3     OH2      OT      -0.834000       15.9994           0
     23623 TIP3     1636     TIP3     H1       HT       0.417000       1.00800           0
     23624 TIP3     1636     TIP3     H2       HT       0.417000       1.00800           0
     23625 TIP3     1637     TIP3     OH2      OT      -0.834000       15.9994           0
     23626 TIP3     1637     TIP3     H1       HT       0.417000       1.00800           0
     23627 TIP3     1637     TIP3     H2       HT       0.417000       1.00800           0
     23628 TIP3     1638     TIP3     OH2      OT      -0.834000       15.9994           0
     23629 TIP3     1638     TIP3     H1       HT       0.417000       1.00800           0
     23630 TIP3     1638     TIP3     H2       HT       0.417000       1.00800           0
     23631 TIP3     1639     TIP3     OH2      OT      -0.834000       15.9994           0
     23632 TIP3     1639     TIP3     H1       HT       0.417000       1.00800           0
     23633 TIP3     1639     TIP3     H2       HT       0.417000       1.00800           0
     23634 TIP3     1640     TIP3     OH2      OT      -0.834000       15.9994           0
     23635 TIP3     1640     TIP3     H1       HT       0.417000       1.00800           0
     23636 TIP3     1640     TIP3     H2       HT       0.417000       1.00800           0
     23637 TIP3     1641     TIP3     OH2      OT      -0.834000       15.9994           0
     23638 TIP3     1641     TIP3     H1       HT       0.417000       1.00800           0
     23639 TIP3     1641     TIP3     H2       HT       0.417000       1.00800           0
     23640 TIP3     1642     TIP3     OH2      OT      -0.834000       15.9994           0
     23641 TIP3     1642     TIP3     H1       HT       0.417000       1.00800           0
     23642 TIP3     1642     TIP3     H2       HT       0.417000       1.00800           0
     23643 TIP3     1643     TIP3     OH2      OT      -0.834000       15.9994           0
     23644 TIP3     1643     TIP3     H1       HT       0.417000       1.00800           0
     23645 TIP3     1643     TIP3     H2       HT       0.417000       1.00800           0
     23646 TIP3     1644     TIP3     OH2      OT      -0.834000       15.9994           0
     23647 TIP3     1644     TIP3     H1       HT       0.417000       1.00800           0
     23648 TIP3     1644     TIP3     H2       HT       0.417000       1.00800           0
     23649 TIP3     1645     TIP3     OH2      OT      -0.834000       15.9994           0
     23650 TIP3     1645     TIP3     H1       HT       0.417000       1.00800           0
     23651 TIP3     1645     TIP3     H2       HT       0.417000       1.00800           0
     23652 TIP3     1646     TIP3     OH2      OT      -0.834000       15.9994           0
     23653 TIP3     1646     TIP3     H1       HT       0.417000       1.00800           0
     23654 TIP3     1646     TIP3     H2       HT       0.417000       1.00800           0
     23655 TIP3     1647     TIP3     OH2      OT      -0.834000       15.9994           0
     23656 TIP3     1647     TIP3     H1       HT       0.417000       1.00800           0
     23657 TIP3     1647     TIP3     H2       HT       0.417000       1.00800           0
     23658 TIP3     1648     TIP3     OH2      OT      -0.834000       15.9994           0
     23659 TIP3     1648     TIP3     H1       HT       0.417000       1.00800           0
     23660 TIP3     1648     TIP3     H2       HT       0.417000       1.00800           0
     23661 TIP3     1649     TIP3     OH2      OT      -0.834000       15.9994           0
     23662 TIP3     1649     TIP3     H1       HT       0.417000       1.00800           0
     23663 TIP3     1649     TIP3     H2       HT       0.417000       1.00800           0
     23664 TIP3     1650     TIP3     OH2      OT      -0.834000       15.9994           0
     23665 TIP3     1650     TIP3     H1       HT       0.417000       1.00800           0
     23666 TIP3     1650     TIP3     H2       HT       0.417000       1.00800           0
     23667 TIP3     1651     TIP3     OH2      OT      -0.834000       15.9994           0
     23668 TIP3     1651     TIP3     H1       HT       0.417000       1.00800           0
     23669 TIP3     1651     TIP3     H2       HT       0.417000       1.00800           0
     23670 TIP3     1652     TIP3     OH2      OT      -0.834000       15.9994           0
     23671 TIP3     1652     TIP3     H1       HT       0.417000       1.00800           0
     23672 TIP3     1652     TIP3     H2       HT       0.417000       1.00800           0
     23673 TIP3     1653     TIP3     OH2      OT      -0.834000       15.9994           0
     23674 TIP3     1653     TIP3     H1       HT       0.417000       1.00800           0
     23675 TIP3     1653     TIP3     H2       HT       0.417000       1.00800           0
     23676 TIP3     1654     TIP3     OH2      OT      -0.834000       15.9994           0
     23677 TIP3     1654     TIP3     H1       HT       0.417000       1.00800           0
     23678 TIP3     1654     TIP3     H2       HT       0.417000       1.00800           0
     23679 TIP3     1655     TIP3     OH2      OT      -0.834000       15.9994           0
     23680 TIP3     1655     TIP3     H1       HT       0.417000       1.00800           0
     23681 TIP3     1655     TIP3     H2       HT       0.417000       1.00800           0
     23682 TIP3     1656     TIP3     OH2      OT      -0.834000       15.9994           0
     23683 TIP3     1656     TIP3     H1       HT       0.417000       1.00800           0
     23684 TIP3     1656     TIP3     H2       HT       0.417000       1.00800           0
     23685 TIP3     1657     TIP3     OH2      OT      -0.834000       15.9994           0
     23686 TIP3     1657     TIP3     H1       HT       0.417000       1.00800           0
     23687 TIP3     1657     TIP3     H2       HT       0.417000       1.00800           0
     23688 TIP3     1658     TIP3     OH2      OT      -0.834000       15.9994           0
     23689 TIP3     1658     TIP3     H1       HT       0.417000       1.00800           0
     23690 TIP3     1658     TIP3     H2       HT       0.417000       1.00800           0
     23691 TIP3     1659     TIP3     OH2      OT      -0.834000       15.9994           0
     23692 TIP3     1659     TIP3     H1       HT       0.417000       1.00800           0
     23693 TIP3     1659     TIP3     H2       HT       0.417000       1.00800           0
     23694 TIP3     1660     TIP3     OH2      OT      -0.834000       15.9994           0
     23695 TIP3     1660     TIP3     H1       HT       0.417000       1.00800           0
     23696 TIP3     1660     TIP3     H2       HT       0.417000       1.00800           0
     23697 TIP3     1661     TIP3     OH2      OT      -0.834000       15.9994           0
     23698 TIP3     1661     TIP3     H1       HT       0.417000       1.00800           0
     23699 TIP3     1661     TIP3     H2       HT       0.417000       1.00800           0
     23700 TIP3     1662     TIP3     OH2      OT      -0.834000       15.9994           0
     23701 TIP3     1662     TIP3     H1       HT       0.417000       1.00800           0
     23702 TIP3     1662     TIP3     H2       HT       0.417000       1.00800           0
     23703 TIP3     1663     TIP3     OH2      OT      -0.834000       15.9994           0
     23704 TIP3     1663     TIP3     H1       HT       0.417000       1.00800           0
     23705 TIP3     1663     TIP3     H2       HT       0.417000       1.00800           0
     23706 TIP3     1664     TIP3     OH2      OT      -0.834000       15.9994           0
     23707 TIP3     1664     TIP3     H1       HT       0.417000       1.00800           0
     23708 TIP3     1664     TIP3     H2       HT       0.417000       1.00800           0
     23709 TIP3     1665     TIP3     OH2      OT      -0.834000       15.9994           0
     23710 TIP3     1665     TIP3     H1       HT       0.417000       1.00800           0
     23711 TIP3     1665     TIP3     H2       HT       0.417000       1.00800           0
     23712 TIP3     1666     TIP3     OH2      OT      -0.834000       15.9994           0
     23713 TIP3     1666     TIP3     H1       HT       0.417000       1.00800           0
     23714 TIP3     1666     TIP3     H2       HT       0.417000       1.00800           0
     23715 TIP3     1667     TIP3     OH2      OT      -0.834000       15.9994           0
     23716 TIP3     1667     TIP3     H1       HT       0.417000       1.00800           0
     23717 TIP3     1667     TIP3     H2       HT       0.417000       1.00800           0
     23718 TIP3     1668     TIP3     OH2      OT      -0.834000       15.9994           0
     23719 TIP3     1668     TIP3     H1       HT       0.417000       1.00800           0
     23720 TIP3     1668     TIP3     H2       HT       0.417000       1.00800           0
     23721 TIP3     1669     TIP3     OH2      OT      -0.834000       15.9994           0
     23722 TIP3     1669     TIP3     H1       HT       0.417000       1.00800           0
     23723 TIP3     1669     TIP3     H2       HT       0.417000       1.00800           0
     23724 TIP3     1670     TIP3     OH2      OT      -0.834000       15.9994           0
     23725 TIP3     1670     TIP3     H1       HT       0.417000       1.00800           0
     23726 TIP3     1670     TIP3     H2       HT       0.417000       1.00800           0
     23727 TIP3     1671     TIP3     OH2      OT      -0.834000       15.9994           0
     23728 TIP3     1671     TIP3     H1       HT       0.417000       1.00800           0
     23729 TIP3     1671     TIP3     H2       HT       0.417000       1.00800           0
     23730 TIP3     1672     TIP3     OH2      OT      -0.834000       15.9994           0
     23731 TIP3     1672     TIP3     H1       HT       0.417000       1.00800           0
     23732 TIP3     1672     TIP3     H2       HT       0.417000       1.00800           0
     23733 TIP3     1673     TIP3     OH2      OT      -0.834000       15.9994           0
     23734 TIP3     1673     TIP3     H1       HT       0.417000       1.00800           0
     23735 TIP3     1673     TIP3     H2       HT       0.417000       1.00800           0
     23736 TIP3     1674     TIP3     OH2      OT      -0.834000       15.9994           0
     23737 TIP3     1674     TIP3     H1       HT       0.417000       1.00800           0
     23738 TIP3     1674     TIP3     H2       HT       0.417000       1.00800           0
     23739 TIP3     1675     TIP3     OH2      OT      -0.834000       15.9994           0
     23740 TIP3     1675     TIP3     H1       HT       0.417000       1.00800           0
     23741 TIP3     1675     TIP3     H2       HT       0.417000       1.00800           0
     23742 TIP3     1676     TIP3     OH2      OT      -0.834000       15.9994           0
     23743 TIP3     1676     TIP3     H1       HT       0.417000       1.00800           0
     23744 TIP3     1676     TIP3     H2       HT       0.417000       1.00800           0
     23745 TIP3     1677     TIP3     OH2      OT      -0.834000       15.9994           0
     23746 TIP3     1677     TIP3     H1       HT       0.417000       1.00800           0
     23747 TIP3     1677     TIP3     H2       HT       0.417000       1.00800           0
     23748 TIP3     1678     TIP3     OH2      OT      -0.834000       15.9994           0
     23749 TIP3     1678     TIP3     H1       HT       0.417000       1.00800           0
     23750 TIP3     1678     TIP3     H2       HT       0.417000       1.00800           0
     23751 TIP3     1679     TIP3     OH2      OT      -0.834000       15.9994           0
     23752 TIP3     1679     TIP3     H1       HT       0.417000       1.00800           0
     23753 TIP3     1679     TIP3     H2       HT       0.417000       1.00800           0
     23754 TIP3     1680     TIP3     OH2      OT      -0.834000       15.9994           0
     23755 TIP3     1680     TIP3     H1       HT       0.417000       1.00800           0
     23756 TIP3     1680     TIP3     H2       HT       0.417000       1.00800           0
     23757 TIP3     1681     TIP3     OH2      OT      -0.834000       15.9994           0
     23758 TIP3     1681     TIP3     H1       HT       0.417000       1.00800           0
     23759 TIP3     1681     TIP3     H2       HT       0.417000       1.00800           0
     23760 TIP3     1682     TIP3     OH2      OT      -0.834000       15.9994           0
     23761 TIP3     1682     TIP3     H1       HT       0.417000       1.00800           0
     23762 TIP3     1682     TIP3     H2       HT       0.417000       1.00800           0
     23763 TIP3     1683     TIP3     OH2      OT      -0.834000       15.9994           0
     23764 TIP3     1683     TIP3     H1       HT       0.417000       1.00800           0
     23765 TIP3     1683     TIP3     H2       HT       0.417000       1.00800           0
     23766 TIP3     1684     TIP3     OH2      OT      -0.834000       15.9994           0
     23767 TIP3     1684     TIP3     H1       HT       0.417000       1.00800           0
     23768 TIP3     1684     TIP3     H2       HT       0.417000       1.00800           0
     23769 TIP3     1685     TIP3     OH2      OT      -0.834000       15.9994           0
     23770 TIP3     1685     TIP3     H1       HT       0.417000       1.00800           0
     23771 TIP3     1685     TIP3     H2       HT       0.417000       1.00800           0
     23772 TIP3     1686     TIP3     OH2      OT      -0.834000       15.9994           0
     23773 TIP3     1686     TIP3     H1       HT       0.417000       1.00800           0
     23774 TIP3     1686     TIP3     H2       HT       0.417000       1.00800           0
     23775 TIP3     1687     TIP3     OH2      OT      -0.834000       15.9994           0
     23776 TIP3     1687     TIP3     H1       HT       0.417000       1.00800           0
     23777 TIP3     1687     TIP3     H2       HT       0.417000       1.00800           0
     23778 TIP3     1688     TIP3     OH2      OT      -0.834000       15.9994           0
     23779 TIP3     1688     TIP3     H1       HT       0.417000       1.00800           0
     23780 TIP3     1688     TIP3     H2       HT       0.417000       1.00800           0
     23781 TIP3     1689     TIP3     OH2      OT      -0.834000       15.9994           0
     23782 TIP3     1689     TIP3     H1       HT       0.417000       1.00800           0
     23783 TIP3     1689     TIP3     H2       HT       0.417000       1.00800           0
     23784 TIP3     1690     TIP3     OH2      OT      -0.834000       15.9994           0
     23785 TIP3     1690     TIP3     H1       HT       0.417000       1.00800           0
     23786 TIP3     1690     TIP3     H2       HT       0.417000       1.00800           0
     23787 TIP3     1691     TIP3     OH2      OT      -0.834000       15.9994           0
     23788 TIP3     1691     TIP3     H1       HT       0.417000       1.00800           0
     23789 TIP3     1691     TIP3     H2       HT       0.417000       1.00800           0
     23790 TIP3     1692     TIP3     OH2      OT      -0.834000       15.9994           0
     23791 TIP3     1692     TIP3     H1       HT       0.417000       1.00800           0
     23792 TIP3     1692     TIP3     H2       HT       0.417000       1.00800           0
     23793 TIP3     1693     TIP3     OH2      OT      -0.834000       15.9994           0
     23794 TIP3     1693     TIP3     H1       HT       0.417000       1.00800           0
     23795 TIP3     1693     TIP3     H2       HT       0.417000       1.00800           0
     23796 TIP3     1694     TIP3     OH2      OT      -0.834000       15.9994           0
     23797 TIP3     1694     TIP3     H1       HT       0.417000       1.00800           0
     23798 TIP3     1694     TIP3     H2       HT       0.417000       1.00800           0
     23799 TIP3     1695     TIP3     OH2      OT      -0.834000       15.9994           0
     23800 TIP3     1695     TIP3     H1       HT       0.417000       1.00800           0
     23801 TIP3     1695     TIP3     H2       HT       0.417000       1.00800           0
     23802 TIP3     1696     TIP3     OH2      OT      -0.834000       15.9994           0
     23803 TIP3     1696     TIP3     H1       HT       0.417000       1.00800           0
     23804 TIP3     1696     TIP3     H2       HT       0.417000       1.00800           0
     23805 TIP3     1697     TIP3     OH2      OT      -0.834000       15.9994           0
     23806 TIP3     1697     TIP3     H1       HT       0.417000       1.00800           0
     23807 TIP3     1697     TIP3     H2       HT       0.417000       1.00800           0
     23808 TIP3     1698     TIP3     OH2      OT      -0.834000       15.9994           0
     23809 TIP3     1698     TIP3     H1       HT       0.417000       1.00800           0
     23810 TIP3     1698     TIP3     H2       HT       0.417000       1.00800           0
     23811 TIP3     1699     TIP3     OH2      OT      -0.834000       15.9994           0
     23812 TIP3     1699     TIP3     H1       HT       0.417000       1.00800           0
     23813 TIP3     1699     TIP3     H2       HT       0.417000       1.00800           0
     23814 TIP3     1700     TIP3     OH2      OT      -0.834000       15.9994           0
     23815 TIP3     1700     TIP3     H1       HT       0.417000       1.00800           0
     23816 TIP3     1700     TIP3     H2       HT       0.417000       1.00800           0
     23817 TIP3     1701     TIP3     OH2      OT      -0.834000       15.9994           0
     23818 TIP3     1701     TIP3     H1       HT       0.417000       1.00800           0
     23819 TIP3     1701     TIP3     H2       HT       0.417000       1.00800           0
     23820 TIP3     1702     TIP3     OH2      OT      -0.834000       15.9994           0
     23821 TIP3     1702     TIP3     H1       HT       0.417000       1.00800           0
     23822 TIP3     1702     TIP3     H2       HT       0.417000       1.00800           0
     23823 TIP3     1703     TIP3     OH2      OT      -0.834000       15.9994           0
     23824 TIP3     1703     TIP3     H1       HT       0.417000       1.00800           0
     23825 TIP3     1703     TIP3     H2       HT       0.417000       1.00800           0
     23826 TIP3     1704     TIP3     OH2      OT      -0.834000       15.9994           0
     23827 TIP3     1704     TIP3     H1       HT       0.417000       1.00800           0
     23828 TIP3     1704     TIP3     H2       HT       0.417000       1.00800           0
     23829 TIP3     1705     TIP3     OH2      OT      -0.834000       15.9994           0
     23830 TIP3     1705     TIP3     H1       HT       0.417000       1.00800           0
     23831 TIP3     1705     TIP3     H2       HT       0.417000       1.00800           0
     23832 TIP3     1706     TIP3     OH2      OT      -0.834000       15.9994           0
     23833 TIP3     1706     TIP3     H1       HT       0.417000       1.00800           0
     23834 TIP3     1706     TIP3     H2       HT       0.417000       1.00800           0
     23835 TIP3     1707     TIP3     OH2      OT      -0.834000       15.9994           0
     23836 TIP3     1707     TIP3     H1       HT       0.417000       1.00800           0
     23837 TIP3     1707     TIP3     H2       HT       0.417000       1.00800           0
     23838 TIP3     1708     TIP3     OH2      OT      -0.834000       15.9994           0
     23839 TIP3     1708     TIP3     H1       HT       0.417000       1.00800           0
     23840 TIP3     1708     TIP3     H2       HT       0.417000       1.00800           0
     23841 TIP3     1709     TIP3     OH2      OT      -0.834000       15.9994           0
     23842 TIP3     1709     TIP3     H1       HT       0.417000       1.00800           0
     23843 TIP3     1709     TIP3     H2       HT       0.417000       1.00800           0
     23844 TIP3     1710     TIP3     OH2      OT      -0.834000       15.9994           0
     23845 TIP3     1710     TIP3     H1       HT       0.417000       1.00800           0
     23846 TIP3     1710     TIP3     H2       HT       0.417000       1.00800           0
     23847 TIP3     1711     TIP3     OH2      OT      -0.834000       15.9994           0
     23848 TIP3     1711     TIP3     H1       HT       0.417000       1.00800           0
     23849 TIP3     1711     TIP3     H2       HT       0.417000       1.00800           0
     23850 TIP3     1712     TIP3     OH2      OT      -0.834000       15.9994           0
     23851 TIP3     1712     TIP3     H1       HT       0.417000       1.00800           0
     23852 TIP3     1712     TIP3     H2       HT       0.417000       1.00800           0
     23853 TIP3     1713     TIP3     OH2      OT      -0.834000       15.9994           0
     23854 TIP3     1713     TIP3     H1       HT       0.417000       1.00800           0
     23855 TIP3     1713     TIP3     H2       HT       0.417000       1.00800           0
     23856 TIP3     1714     TIP3     OH2      OT      -0.834000       15.9994           0
     23857 TIP3     1714     TIP3     H1       HT       0.417000       1.00800           0
     23858 TIP3     1714     TIP3     H2       HT       0.417000       1.00800           0
     23859 TIP3     1715     TIP3     OH2      OT      -0.834000       15.9994           0
     23860 TIP3     1715     TIP3     H1       HT       0.417000       1.00800           0
     23861 TIP3     1715     TIP3     H2       HT       0.417000       1.00800           0
     23862 TIP3     1716     TIP3     OH2      OT      -0.834000       15.9994           0
     23863 TIP3     1716     TIP3     H1       HT       0.417000       1.00800           0
     23864 TIP3     1716     TIP3     H2       HT       0.417000       1.00800           0
     23865 TIP3     1717     TIP3     OH2      OT      -0.834000       15.9994           0
     23866 TIP3     1717     TIP3     H1       HT       0.417000       1.00800           0
     23867 TIP3     1717     TIP3     H2       HT       0.417000       1.00800           0
     23868 TIP3     1718     TIP3     OH2      OT      -0.834000       15.9994           0
     23869 TIP3     1718     TIP3     H1       HT       0.417000       1.00800           0
     23870 TIP3     1718     TIP3     H2       HT       0.417000       1.00800           0
     23871 TIP3     1719     TIP3     OH2      OT      -0.834000       15.9994           0
     23872 TIP3     1719     TIP3     H1       HT       0.417000       1.00800           0
     23873 TIP3     1719     TIP3     H2       HT       0.417000       1.00800           0
     23874 TIP3     1720     TIP3     OH2      OT      -0.834000       15.9994           0
     23875 TIP3     1720     TIP3     H1       HT       0.417000       1.00800           0
     23876 TIP3     1720     TIP3     H2       HT       0.417000       1.00800           0
     23877 TIP3     1721     TIP3     OH2      OT      -0.834000       15.9994           0
     23878 TIP3     1721     TIP3     H1       HT       0.417000       1.00800           0
     23879 TIP3     1721     TIP3     H2       HT       0.417000       1.00800           0
     23880 TIP3     1722     TIP3     OH2      OT      -0.834000       15.9994           0
     23881 TIP3     1722     TIP3     H1       HT       0.417000       1.00800           0
     23882 TIP3     1722     TIP3     H2       HT       0.417000       1.00800           0
     23883 TIP3     1723     TIP3     OH2      OT      -0.834000       15.9994           0
     23884 TIP3     1723     TIP3     H1       HT       0.417000       1.00800           0
     23885 TIP3     1723     TIP3     H2       HT       0.417000       1.00800           0
     23886 TIP3     1724     TIP3     OH2      OT      -0.834000       15.9994           0
     23887 TIP3     1724     TIP3     H1       HT       0.417000       1.00800           0
     23888 TIP3     1724     TIP3     H2       HT       0.417000       1.00800           0
     23889 TIP3     1725     TIP3     OH2      OT      -0.834000       15.9994           0
     23890 TIP3     1725     TIP3     H1       HT       0.417000       1.00800           0
     23891 TIP3     1725     TIP3     H2       HT       0.417000       1.00800           0
     23892 TIP3     1726     TIP3     OH2      OT      -0.834000       15.9994           0
     23893 TIP3     1726     TIP3     H1       HT       0.417000       1.00800           0
     23894 TIP3     1726     TIP3     H2       HT       0.417000       1.00800           0
     23895 TIP3     1727     TIP3     OH2      OT      -0.834000       15.9994           0
     23896 TIP3     1727     TIP3     H1       HT       0.417000       1.00800           0
     23897 TIP3     1727     TIP3     H2       HT       0.417000       1.00800           0
     23898 TIP3     1728     TIP3     OH2      OT      -0.834000       15.9994           0
     23899 TIP3     1728     TIP3     H1       HT       0.417000       1.00800           0
     23900 TIP3     1728     TIP3     H2       HT       0.417000       1.00800           0
     23901 TIP3     1729     TIP3     OH2      OT      -0.834000       15.9994           0
     23902 TIP3     1729     TIP3     H1       HT       0.417000       1.00800           0
     23903 TIP3     1729     TIP3     H2       HT       0.417000       1.00800           0
     23904 TIP3     1730     TIP3     OH2      OT      -0.834000       15.9994           0
     23905 TIP3     1730     TIP3     H1       HT       0.417000       1.00800           0
     23906 TIP3     1730     TIP3     H2       HT       0.417000       1.00800           0
     23907 TIP3     1731     TIP3     OH2      OT      -0.834000       15.9994           0
     23908 TIP3     1731     TIP3     H1       HT       0.417000       1.00800           0
     23909 TIP3     1731     TIP3     H2       HT       0.417000       1.00800           0
     23910 TIP3     1732     TIP3     OH2      OT      -0.834000       15.9994           0
     23911 TIP3     1732     TIP3     H1       HT       0.417000       1.00800           0
     23912 TIP3     1732     TIP3     H2       HT       0.417000       1.00800           0
     23913 TIP3     1733     TIP3     OH2      OT      -0.834000       15.9994           0
     23914 TIP3     1733     TIP3     H1       HT       0.417000       1.00800           0
     23915 TIP3     1733     TIP3     H2       HT       0.417000       1.00800           0
     23916 TIP3     1734     TIP3     OH2      OT      -0.834000       15.9994           0
     23917 TIP3     1734     TIP3     H1       HT       0.417000       1.00800           0
     23918 TIP3     1734     TIP3     H2       HT       0.417000       1.00800           0
     23919 TIP3     1735     TIP3     OH2      OT      -0.834000       15.9994           0
     23920 TIP3     1735     TIP3     H1       HT       0.417000       1.00800           0
     23921 TIP3     1735     TIP3     H2       HT       0.417000       1.00800           0
     23922 TIP3     1736     TIP3     OH2      OT      -0.834000       15.9994           0
     23923 TIP3     1736     TIP3     H1       HT       0.417000       1.00800           0
     23924 TIP3     1736     TIP3     H2       HT       0.417000       1.00800           0
     23925 TIP3     1737     TIP3     OH2      OT      -0.834000       15.9994           0
     23926 TIP3     1737     TIP3     H1       HT       0.417000       1.00800           0
     23927 TIP3     1737     TIP3     H2       HT       0.417000       1.00800           0
     23928 TIP3     1738     TIP3     OH2      OT      -0.834000       15.9994           0
     23929 TIP3     1738     TIP3     H1       HT       0.417000       1.00800           0
     23930 TIP3     1738     TIP3     H2       HT       0.417000       1.00800           0
     23931 TIP3     1739     TIP3     OH2      OT      -0.834000       15.9994           0
     23932 TIP3     1739     TIP3     H1       HT       0.417000       1.00800           0
     23933 TIP3     1739     TIP3     H2       HT       0.417000       1.00800           0
     23934 TIP3     1740     TIP3     OH2      OT      -0.834000       15.9994           0
     23935 TIP3     1740     TIP3     H1       HT       0.417000       1.00800           0
     23936 TIP3     1740     TIP3     H2       HT       0.417000       1.00800           0
     23937 TIP3     1741     TIP3     OH2      OT      -0.834000       15.9994           0
     23938 TIP3     1741     TIP3     H1       HT       0.417000       1.00800           0
     23939 TIP3     1741     TIP3     H2       HT       0.417000       1.00800           0
     23940 TIP3     1742     TIP3     OH2      OT      -0.834000       15.9994           0
     23941 TIP3     1742     TIP3     H1       HT       0.417000       1.00800           0
     23942 TIP3     1742     TIP3     H2       HT       0.417000       1.00800           0
     23943 TIP3     1743     TIP3     OH2      OT      -0.834000       15.9994           0
     23944 TIP3     1743     TIP3     H1       HT       0.417000       1.00800           0
     23945 TIP3     1743     TIP3     H2       HT       0.417000       1.00800           0
     23946 TIP3     1744     TIP3     OH2      OT      -0.834000       15.9994           0
     23947 TIP3     1744     TIP3     H1       HT       0.417000       1.00800           0
     23948 TIP3     1744     TIP3     H2       HT       0.417000       1.00800           0
     23949 TIP3     1745     TIP3     OH2      OT      -0.834000       15.9994           0
     23950 TIP3     1745     TIP3     H1       HT       0.417000       1.00800           0
     23951 TIP3     1745     TIP3     H2       HT       0.417000       1.00800           0
     23952 TIP3     1746     TIP3     OH2      OT      -0.834000       15.9994           0
     23953 TIP3     1746     TIP3     H1       HT       0.417000       1.00800           0
     23954 TIP3     1746     TIP3     H2       HT       0.417000       1.00800           0
     23955 TIP3     1747     TIP3     OH2      OT      -0.834000       15.9994           0
     23956 TIP3     1747     TIP3     H1       HT       0.417000       1.00800           0
     23957 TIP3     1747     TIP3     H2       HT       0.417000       1.00800           0
     23958 TIP3     1748     TIP3     OH2      OT      -0.834000       15.9994           0
     23959 TIP3     1748     TIP3     H1       HT       0.417000       1.00800           0
     23960 TIP3     1748     TIP3     H2       HT       0.417000       1.00800           0
     23961 TIP3     1749     TIP3     OH2      OT      -0.834000       15.9994           0
     23962 TIP3     1749     TIP3     H1       HT       0.417000       1.00800           0
     23963 TIP3     1749     TIP3     H2       HT       0.417000       1.00800           0
     23964 TIP3     1750     TIP3     OH2      OT      -0.834000       15.9994           0
     23965 TIP3     1750     TIP3     H1       HT       0.417000       1.00800           0
     23966 TIP3     1750     TIP3     H2       HT       0.417000       1.00800           0
     23967 TIP3     1751     TIP3     OH2      OT      -0.834000       15.9994           0
     23968 TIP3     1751     TIP3     H1       HT       0.417000       1.00800           0
     23969 TIP3     1751     TIP3     H2       HT       0.417000       1.00800           0
     23970 TIP3     1752     TIP3     OH2      OT      -0.834000       15.9994           0
     23971 TIP3     1752     TIP3     H1       HT       0.417000       1.00800           0
     23972 TIP3     1752     TIP3     H2       HT       0.417000       1.00800           0
     23973 TIP3     1753     TIP3     OH2      OT      -0.834000       15.9994           0
     23974 TIP3     1753     TIP3     H1       HT       0.417000       1.00800           0
     23975 TIP3     1753     TIP3     H2       HT       0.417000       1.00800           0
     23976 TIP3     1754     TIP3     OH2      OT      -0.834000       15.9994           0
     23977 TIP3     1754     TIP3     H1       HT       0.417000       1.00800           0
     23978 TIP3     1754     TIP3     H2       HT       0.417000       1.00800           0
     23979 TIP3     1755     TIP3     OH2      OT      -0.834000       15.9994           0
     23980 TIP3     1755     TIP3     H1       HT       0.417000       1.00800           0
     23981 TIP3     1755     TIP3     H2       HT       0.417000       1.00800           0
     23982 TIP3     1756     TIP3     OH2      OT      -0.834000       15.9994           0
     23983 TIP3     1756     TIP3     H1       HT       0.417000       1.00800           0
     23984 TIP3     1756     TIP3     H2       HT       0.417000       1.00800           0
     23985 TIP3     1757     TIP3     OH2      OT      -0.834000       15.9994           0
     23986 TIP3     1757     TIP3     H1       HT       0.417000       1.00800           0
     23987 TIP3     1757     TIP3     H2       HT       0.417000       1.00800           0
     23988 TIP3     1758     TIP3     OH2      OT      -0.834000       15.9994           0
     23989 TIP3     1758     TIP3     H1       HT       0.417000       1.00800           0
     23990 TIP3     1758     TIP3     H2       HT       0.417000       1.00800           0
     23991 TIP3     1759     TIP3     OH2      OT      -0.834000       15.9994           0
     23992 TIP3     1759     TIP3     H1       HT       0.417000       1.00800           0
     23993 TIP3     1759     TIP3     H2       HT       0.417000       1.00800           0
     23994 TIP3     1760     TIP3     OH2      OT      -0.834000       15.9994           0
     23995 TIP3     1760     TIP3     H1       HT       0.417000       1.00800           0
     23996 TIP3     1760     TIP3     H2       HT       0.417000       1.00800           0
     23997 TIP3     1761     TIP3     OH2      OT      -0.834000       15.9994           0
     23998 TIP3     1761     TIP3     H1       HT       0.417000       1.00800           0
     23999 TIP3     1761     TIP3     H2       HT       0.417000       1.00800           0
     24000 TIP3     1762     TIP3     OH2      OT      -0.834000       15.9994           0
     24001 TIP3     1762     TIP3     H1       HT       0.417000       1.00800           0
     24002 TIP3     1762     TIP3     H2       HT       0.417000       1.00800           0
     24003 TIP3     1763     TIP3     OH2      OT      -0.834000       15.9994           0
     24004 TIP3     1763     TIP3     H1       HT       0.417000       1.00800           0
     24005 TIP3     1763     TIP3     H2       HT       0.417000       1.00800           0
     24006 TIP3     1764     TIP3     OH2      OT      -0.834000       15.9994           0
     24007 TIP3     1764     TIP3     H1       HT       0.417000       1.00800           0
     24008 TIP3     1764     TIP3     H2       HT       0.417000       1.00800           0
     24009 TIP3     1765     TIP3     OH2      OT      -0.834000       15.9994           0
     24010 TIP3     1765     TIP3     H1       HT       0.417000       1.00800           0
     24011 TIP3     1765     TIP3     H2       HT       0.417000       1.00800           0
     24012 TIP3     1766     TIP3     OH2      OT      -0.834000       15.9994           0
     24013 TIP3     1766     TIP3     H1       HT       0.417000       1.00800           0
     24014 TIP3     1766     TIP3     H2       HT       0.417000       1.00800           0
     24015 TIP3     1767     TIP3     OH2      OT      -0.834000       15.9994           0
     24016 TIP3     1767     TIP3     H1       HT       0.417000       1.00800           0
     24017 TIP3     1767     TIP3     H2       HT       0.417000       1.00800           0
     24018 TIP3     1768     TIP3     OH2      OT      -0.834000       15.9994           0
     24019 TIP3     1768     TIP3     H1       HT       0.417000       1.00800           0
     24020 TIP3     1768     TIP3     H2       HT       0.417000       1.00800           0
     24021 TIP3     1769     TIP3     OH2      OT      -0.834000       15.9994           0
     24022 TIP3     1769     TIP3     H1       HT       0.417000       1.00800           0
     24023 TIP3     1769     TIP3     H2       HT       0.417000       1.00800           0
     24024 TIP3     1770     TIP3     OH2      OT      -0.834000       15.9994           0
     24025 TIP3     1770     TIP3     H1       HT       0.417000       1.00800           0
     24026 TIP3     1770     TIP3     H2       HT       0.417000       1.00800           0
     24027 TIP3     1771     TIP3     OH2      OT      -0.834000       15.9994           0
     24028 TIP3     1771     TIP3     H1       HT       0.417000       1.00800           0
     24029 TIP3     1771     TIP3     H2       HT       0.417000       1.00800           0
     24030 TIP3     1772     TIP3     OH2      OT      -0.834000       15.9994           0
     24031 TIP3     1772     TIP3     H1       HT       0.417000       1.00800           0
     24032 TIP3     1772     TIP3     H2       HT       0.417000       1.00800           0
     24033 TIP3     1773     TIP3     OH2      OT      -0.834000       15.9994           0
     24034 TIP3     1773     TIP3     H1       HT       0.417000       1.00800           0
     24035 TIP3     1773     TIP3     H2       HT       0.417000       1.00800           0
     24036 TIP3     1774     TIP3     OH2      OT      -0.834000       15.9994           0
     24037 TIP3     1774     TIP3     H1       HT       0.417000       1.00800           0
     24038 TIP3     1774     TIP3     H2       HT       0.417000       1.00800           0
     24039 TIP3     1775     TIP3     OH2      OT      -0.834000       15.9994           0
     24040 TIP3     1775     TIP3     H1       HT       0.417000       1.00800           0
     24041 TIP3     1775     TIP3     H2       HT       0.417000       1.00800           0
     24042 TIP3     1776     TIP3     OH2      OT      -0.834000       15.9994           0
     24043 TIP3     1776     TIP3     H1       HT       0.417000       1.00800           0
     24044 TIP3     1776     TIP3     H2       HT       0.417000       1.00800           0
     24045 TIP3     1777     TIP3     OH2      OT      -0.834000       15.9994           0
     24046 TIP3     1777     TIP3     H1       HT       0.417000       1.00800           0
     24047 TIP3     1777     TIP3     H2       HT       0.417000       1.00800           0
     24048 TIP3     1778     TIP3     OH2      OT      -0.834000       15.9994           0
     24049 TIP3     1778     TIP3     H1       HT       0.417000       1.00800           0
     24050 TIP3     1778     TIP3     H2       HT       0.417000       1.00800           0
     24051 TIP3     1779     TIP3     OH2      OT      -0.834000       15.9994           0
     24052 TIP3     1779     TIP3     H1       HT       0.417000       1.00800           0
     24053 TIP3     1779     TIP3     H2       HT       0.417000       1.00800           0
     24054 TIP3     1780     TIP3     OH2      OT      -0.834000       15.9994           0
     24055 TIP3     1780     TIP3     H1       HT       0.417000       1.00800           0
     24056 TIP3     1780     TIP3     H2       HT       0.417000       1.00800           0
     24057 TIP3     1781     TIP3     OH2      OT      -0.834000       15.9994           0
     24058 TIP3     1781     TIP3     H1       HT       0.417000       1.00800           0
     24059 TIP3     1781     TIP3     H2       HT       0.417000       1.00800           0
     24060 TIP3     1782     TIP3     OH2      OT      -0.834000       15.9994           0
     24061 TIP3     1782     TIP3     H1       HT       0.417000       1.00800           0
     24062 TIP3     1782     TIP3     H2       HT       0.417000       1.00800           0
     24063 TIP3     1783     TIP3     OH2      OT      -0.834000       15.9994           0
     24064 TIP3     1783     TIP3     H1       HT       0.417000       1.00800           0
     24065 TIP3     1783     TIP3     H2       HT       0.417000       1.00800           0
     24066 TIP3     1784     TIP3     OH2      OT      -0.834000       15.9994           0
     24067 TIP3     1784     TIP3     H1       HT       0.417000       1.00800           0
     24068 TIP3     1784     TIP3     H2       HT       0.417000       1.00800           0
     24069 TIP3     1785     TIP3     OH2      OT      -0.834000       15.9994           0
     24070 TIP3     1785     TIP3     H1       HT       0.417000       1.00800           0
     24071 TIP3     1785     TIP3     H2       HT       0.417000       1.00800           0
     24072 TIP3     1786     TIP3     OH2      OT      -0.834000       15.9994           0
     24073 TIP3     1786     TIP3     H1       HT       0.417000       1.00800           0
     24074 TIP3     1786     TIP3     H2       HT       0.417000       1.00800           0
     24075 TIP3     1787     TIP3     OH2      OT      -0.834000       15.9994           0
     24076 TIP3     1787     TIP3     H1       HT       0.417000       1.00800           0
     24077 TIP3     1787     TIP3     H2       HT       0.417000       1.00800           0
     24078 TIP3     1788     TIP3     OH2      OT      -0.834000       15.9994           0
     24079 TIP3     1788     TIP3     H1       HT       0.417000       1.00800           0
     24080 TIP3     1788     TIP3     H2       HT       0.417000       1.00800           0
     24081 TIP3     1789     TIP3     OH2      OT      -0.834000       15.9994           0
     24082 TIP3     1789     TIP3     H1       HT       0.417000       1.00800           0
     24083 TIP3     1789     TIP3     H2       HT       0.417000       1.00800           0
     24084 TIP3     1790     TIP3     OH2      OT      -0.834000       15.9994           0
     24085 TIP3     1790     TIP3     H1       HT       0.417000       1.00800           0
     24086 TIP3     1790     TIP3     H2       HT       0.417000       1.00800           0
     24087 TIP3     1791     TIP3     OH2      OT      -0.834000       15.9994           0
     24088 TIP3     1791     TIP3     H1       HT       0.417000       1.00800           0
     24089 TIP3     1791     TIP3     H2       HT       0.417000       1.00800           0
     24090 TIP3     1792     TIP3     OH2      OT      -0.834000       15.9994           0
     24091 TIP3     1792     TIP3     H1       HT       0.417000       1.00800           0
     24092 TIP3     1792     TIP3     H2       HT       0.417000       1.00800           0
     24093 TIP3     1793     TIP3     OH2      OT      -0.834000       15.9994           0
     24094 TIP3     1793     TIP3     H1       HT       0.417000       1.00800           0
     24095 TIP3     1793     TIP3     H2       HT       0.417000       1.00800           0
     24096 TIP3     1794     TIP3     OH2      OT      -0.834000       15.9994           0
     24097 TIP3     1794     TIP3     H1       HT       0.417000       1.00800           0
     24098 TIP3     1794     TIP3     H2       HT       0.417000       1.00800           0
     24099 TIP3     1795     TIP3     OH2      OT      -0.834000       15.9994           0
     24100 TIP3     1795     TIP3     H1       HT       0.417000       1.00800           0
     24101 TIP3     1795     TIP3     H2       HT       0.417000       1.00800           0
     24102 TIP3     1796     TIP3     OH2      OT      -0.834000       15.9994           0
     24103 TIP3     1796     TIP3     H1       HT       0.417000       1.00800           0
     24104 TIP3     1796     TIP3     H2       HT       0.417000       1.00800           0
     24105 TIP3     1797     TIP3     OH2      OT      -0.834000       15.9994           0
     24106 TIP3     1797     TIP3     H1       HT       0.417000       1.00800           0
     24107 TIP3     1797     TIP3     H2       HT       0.417000       1.00800           0
     24108 TIP3     1798     TIP3     OH2      OT      -0.834000       15.9994           0
     24109 TIP3     1798     TIP3     H1       HT       0.417000       1.00800           0
     24110 TIP3     1798     TIP3     H2       HT       0.417000       1.00800           0
     24111 TIP3     1799     TIP3     OH2      OT      -0.834000       15.9994           0
     24112 TIP3     1799     TIP3     H1       HT       0.417000       1.00800           0
     24113 TIP3     1799     TIP3     H2       HT       0.417000       1.00800           0
     24114 TIP3     1800     TIP3     OH2      OT      -0.834000       15.9994           0
     24115 TIP3     1800     TIP3     H1       HT       0.417000       1.00800           0
     24116 TIP3     1800     TIP3     H2       HT       0.417000       1.00800           0
     24117 TIP3     1801     TIP3     OH2      OT      -0.834000       15.9994           0
     24118 TIP3     1801     TIP3     H1       HT       0.417000       1.00800           0
     24119 TIP3     1801     TIP3     H2       HT       0.417000       1.00800           0
     24120 TIP3     1802     TIP3     OH2      OT      -0.834000       15.9994           0
     24121 TIP3     1802     TIP3     H1       HT       0.417000       1.00800           0
     24122 TIP3     1802     TIP3     H2       HT       0.417000       1.00800           0
     24123 TIP3     1803     TIP3     OH2      OT      -0.834000       15.9994           0
     24124 TIP3     1803     TIP3     H1       HT       0.417000       1.00800           0
     24125 TIP3     1803     TIP3     H2       HT       0.417000       1.00800           0
     24126 TIP3     1804     TIP3     OH2      OT      -0.834000       15.9994           0
     24127 TIP3     1804     TIP3     H1       HT       0.417000       1.00800           0
     24128 TIP3     1804     TIP3     H2       HT       0.417000       1.00800           0
     24129 TIP3     1805     TIP3     OH2      OT      -0.834000       15.9994           0
     24130 TIP3     1805     TIP3     H1       HT       0.417000       1.00800           0
     24131 TIP3     1805     TIP3     H2       HT       0.417000       1.00800           0
     24132 TIP3     1806     TIP3     OH2      OT      -0.834000       15.9994           0
     24133 TIP3     1806     TIP3     H1       HT       0.417000       1.00800           0
     24134 TIP3     1806     TIP3     H2       HT       0.417000       1.00800           0
     24135 TIP3     1807     TIP3     OH2      OT      -0.834000       15.9994           0
     24136 TIP3     1807     TIP3     H1       HT       0.417000       1.00800           0
     24137 TIP3     1807     TIP3     H2       HT       0.417000       1.00800           0
     24138 TIP3     1808     TIP3     OH2      OT      -0.834000       15.9994           0
     24139 TIP3     1808     TIP3     H1       HT       0.417000       1.00800           0
     24140 TIP3     1808     TIP3     H2       HT       0.417000       1.00800           0
     24141 TIP3     1809     TIP3     OH2      OT      -0.834000       15.9994           0
     24142 TIP3     1809     TIP3     H1       HT       0.417000       1.00800           0
     24143 TIP3     1809     TIP3     H2       HT       0.417000       1.00800           0
     24144 TIP3     1810     TIP3     OH2      OT      -0.834000       15.9994           0
     24145 TIP3     1810     TIP3     H1       HT       0.417000       1.00800           0
     24146 TIP3     1810     TIP3     H2       HT       0.417000       1.00800           0
     24147 TIP3     1811     TIP3     OH2      OT      -0.834000       15.9994           0
     24148 TIP3     1811     TIP3     H1       HT       0.417000       1.00800           0
     24149 TIP3     1811     TIP3     H2       HT       0.417000       1.00800           0
     24150 TIP3     1812     TIP3     OH2      OT      -0.834000       15.9994           0
     24151 TIP3     1812     TIP3     H1       HT       0.417000       1.00800           0
     24152 TIP3     1812     TIP3     H2       HT       0.417000       1.00800           0
     24153 TIP3     1813     TIP3     OH2      OT      -0.834000       15.9994           0
     24154 TIP3     1813     TIP3     H1       HT       0.417000       1.00800           0
     24155 TIP3     1813     TIP3     H2       HT       0.417000       1.00800           0
     24156 TIP3     1814     TIP3     OH2      OT      -0.834000       15.9994           0
     24157 TIP3     1814     TIP3     H1       HT       0.417000       1.00800           0
     24158 TIP3     1814     TIP3     H2       HT       0.417000       1.00800           0
     24159 TIP3     1815     TIP3     OH2      OT      -0.834000       15.9994           0
     24160 TIP3     1815     TIP3     H1       HT       0.417000       1.00800           0
     24161 TIP3     1815     TIP3     H2       HT       0.417000       1.00800           0
     24162 TIP3     1816     TIP3     OH2      OT      -0.834000       15.9994           0
     24163 TIP3     1816     TIP3     H1       HT       0.417000       1.00800           0
     24164 TIP3     1816     TIP3     H2       HT       0.417000       1.00800           0
     24165 TIP3     1817     TIP3     OH2      OT      -0.834000       15.9994           0
     24166 TIP3     1817     TIP3     H1       HT       0.417000       1.00800           0
     24167 TIP3     1817     TIP3     H2       HT       0.417000       1.00800           0
     24168 TIP3     1818     TIP3     OH2      OT      -0.834000       15.9994           0
     24169 TIP3     1818     TIP3     H1       HT       0.417000       1.00800           0
     24170 TIP3     1818     TIP3     H2       HT       0.417000       1.00800           0
     24171 TIP3     1819     TIP3     OH2      OT      -0.834000       15.9994           0
     24172 TIP3     1819     TIP3     H1       HT       0.417000       1.00800           0
     24173 TIP3     1819     TIP3     H2       HT       0.417000       1.00800           0
     24174 TIP3     1820     TIP3     OH2      OT      -0.834000       15.9994           0
     24175 TIP3     1820     TIP3     H1       HT       0.417000       1.00800           0
     24176 TIP3     1820     TIP3     H2       HT       0.417000       1.00800           0
     24177 TIP3     1821     TIP3     OH2      OT      -0.834000       15.9994           0
     24178 TIP3     1821     TIP3     H1       HT       0.417000       1.00800           0
     24179 TIP3     1821     TIP3     H2       HT       0.417000       1.00800           0
     24180 TIP3     1822     TIP3     OH2      OT      -0.834000       15.9994           0
     24181 TIP3     1822     TIP3     H1       HT       0.417000       1.00800           0
     24182 TIP3     1822     TIP3     H2       HT       0.417000       1.00800           0
     24183 TIP3     1823     TIP3     OH2      OT      -0.834000       15.9994           0
     24184 TIP3     1823     TIP3     H1       HT       0.417000       1.00800           0
     24185 TIP3     1823     TIP3     H2       HT       0.417000       1.00800           0
     24186 TIP3     1824     TIP3     OH2      OT      -0.834000       15.9994           0
     24187 TIP3     1824     TIP3     H1       HT       0.417000       1.00800           0
     24188 TIP3     1824     TIP3     H2       HT       0.417000       1.00800           0
     24189 TIP3     1825     TIP3     OH2      OT      -0.834000       15.9994           0
     24190 TIP3     1825     TIP3     H1       HT       0.417000       1.00800           0
     24191 TIP3     1825     TIP3     H2       HT       0.417000       1.00800           0
     24192 TIP3     1826     TIP3     OH2      OT      -0.834000       15.9994           0
     24193 TIP3     1826     TIP3     H1       HT       0.417000       1.00800           0
     24194 TIP3     1826     TIP3     H2       HT       0.417000       1.00800           0
     24195 TIP3     1827     TIP3     OH2      OT      -0.834000       15.9994           0
     24196 TIP3     1827     TIP3     H1       HT       0.417000       1.00800           0
     24197 TIP3     1827     TIP3     H2       HT       0.417000       1.00800           0
     24198 TIP3     1828     TIP3     OH2      OT      -0.834000       15.9994           0
     24199 TIP3     1828     TIP3     H1       HT       0.417000       1.00800           0
     24200 TIP3     1828     TIP3     H2       HT       0.417000       1.00800           0
     24201 TIP3     1829     TIP3     OH2      OT      -0.834000       15.9994           0
     24202 TIP3     1829     TIP3     H1       HT       0.417000       1.00800           0
     24203 TIP3     1829     TIP3     H2       HT       0.417000       1.00800           0
     24204 TIP3     1830     TIP3     OH2      OT      -0.834000       15.9994           0
     24205 TIP3     1830     TIP3     H1       HT       0.417000       1.00800           0
     24206 TIP3     1830     TIP3     H2       HT       0.417000       1.00800           0
     24207 TIP3     1831     TIP3     OH2      OT      -0.834000       15.9994           0
     24208 TIP3     1831     TIP3     H1       HT       0.417000       1.00800           0
     24209 TIP3     1831     TIP3     H2       HT       0.417000       1.00800           0
     24210 TIP3     1832     TIP3     OH2      OT      -0.834000       15.9994           0
     24211 TIP3     1832     TIP3     H1       HT       0.417000       1.00800           0
     24212 TIP3     1832     TIP3     H2       HT       0.417000       1.00800           0
     24213 TIP3     1833     TIP3     OH2      OT      -0.834000       15.9994           0
     24214 TIP3     1833     TIP3     H1       HT       0.417000       1.00800           0
     24215 TIP3     1833     TIP3     H2       HT       0.417000       1.00800           0
     24216 TIP3     1834     TIP3     OH2      OT      -0.834000       15.9994           0
     24217 TIP3     1834     TIP3     H1       HT       0.417000       1.00800           0
     24218 TIP3     1834     TIP3     H2       HT       0.417000       1.00800           0
     24219 TIP3     1835     TIP3     OH2      OT      -0.834000       15.9994           0
     24220 TIP3     1835     TIP3     H1       HT       0.417000       1.00800           0
     24221 TIP3     1835     TIP3     H2       HT       0.417000       1.00800           0
     24222 TIP3     1836     TIP3     OH2      OT      -0.834000       15.9994           0
     24223 TIP3     1836     TIP3     H1       HT       0.417000       1.00800           0
     24224 TIP3     1836     TIP3     H2       HT       0.417000       1.00800           0
     24225 TIP3     1837     TIP3     OH2      OT      -0.834000       15.9994           0
     24226 TIP3     1837     TIP3     H1       HT       0.417000       1.00800           0
     24227 TIP3     1837     TIP3     H2       HT       0.417000       1.00800           0
     24228 TIP3     1838     TIP3     OH2      OT      -0.834000       15.9994           0
     24229 TIP3     1838     TIP3     H1       HT       0.417000       1.00800           0
     24230 TIP3     1838     TIP3     H2       HT       0.417000       1.00800           0
     24231 TIP3     1839     TIP3     OH2      OT      -0.834000       15.9994           0
     24232 TIP3     1839     TIP3     H1       HT       0.417000       1.00800           0
     24233 TIP3     1839     TIP3     H2       HT       0.417000       1.00800           0
     24234 TIP3     1840     TIP3     OH2      OT      -0.834000       15.9994           0
     24235 TIP3     1840     TIP3     H1       HT       0.417000       1.00800           0
     24236 TIP3     1840     TIP3     H2       HT       0.417000       1.00800           0
     24237 TIP3     1841     TIP3     OH2      OT      -0.834000       15.9994           0
     24238 TIP3     1841     TIP3     H1       HT       0.417000       1.00800           0
     24239 TIP3     1841     TIP3     H2       HT       0.417000       1.00800           0
     24240 TIP3     1842     TIP3     OH2      OT      -0.834000       15.9994           0
     24241 TIP3     1842     TIP3     H1       HT       0.417000       1.00800           0
     24242 TIP3     1842     TIP3     H2       HT       0.417000       1.00800           0
     24243 TIP3     1843     TIP3     OH2      OT      -0.834000       15.9994           0
     24244 TIP3     1843     TIP3     H1       HT       0.417000       1.00800           0
     24245 TIP3     1843     TIP3     H2       HT       0.417000       1.00800           0
     24246 TIP3     1844     TIP3     OH2      OT      -0.834000       15.9994           0
     24247 TIP3     1844     TIP3     H1       HT       0.417000       1.00800           0
     24248 TIP3     1844     TIP3     H2       HT       0.417000       1.00800           0
     24249 TIP3     1845     TIP3     OH2      OT      -0.834000       15.9994           0
     24250 TIP3     1845     TIP3     H1       HT       0.417000       1.00800           0
     24251 TIP3     1845     TIP3     H2       HT       0.417000       1.00800           0
     24252 TIP3     1846     TIP3     OH2      OT      -0.834000       15.9994           0
     24253 TIP3     1846     TIP3     H1       HT       0.417000       1.00800           0
     24254 TIP3     1846     TIP3     H2       HT       0.417000       1.00800           0
     24255 TIP3     1847     TIP3     OH2      OT      -0.834000       15.9994           0
     24256 TIP3     1847     TIP3     H1       HT       0.417000       1.00800           0
     24257 TIP3     1847     TIP3     H2       HT       0.417000       1.00800           0
     24258 TIP3     1848     TIP3     OH2      OT      -0.834000       15.9994           0
     24259 TIP3     1848     TIP3     H1       HT       0.417000       1.00800           0
     24260 TIP3     1848     TIP3     H2       HT       0.417000       1.00800           0
     24261 TIP3     1849     TIP3     OH2      OT      -0.834000       15.9994           0
     24262 TIP3     1849     TIP3     H1       HT       0.417000       1.00800           0
     24263 TIP3     1849     TIP3     H2       HT       0.417000       1.00800           0
     24264 TIP3     1850     TIP3     OH2      OT      -0.834000       15.9994           0
     24265 TIP3     1850     TIP3     H1       HT       0.417000       1.00800           0
     24266 TIP3     1850     TIP3     H2       HT       0.417000       1.00800           0
     24267 TIP3     1851     TIP3     OH2      OT      -0.834000       15.9994           0
     24268 TIP3     1851     TIP3     H1       HT       0.417000       1.00800           0
     24269 TIP3     1851     TIP3     H2       HT       0.417000       1.00800           0
     24270 TIP3     1852     TIP3     OH2      OT      -0.834000       15.9994           0
     24271 TIP3     1852     TIP3     H1       HT       0.417000       1.00800           0
     24272 TIP3     1852     TIP3     H2       HT       0.417000       1.00800           0
     24273 TIP3     1853     TIP3     OH2      OT      -0.834000       15.9994           0
     24274 TIP3     1853     TIP3     H1       HT       0.417000       1.00800           0
     24275 TIP3     1853     TIP3     H2       HT       0.417000       1.00800           0
     24276 TIP3     1854     TIP3     OH2      OT      -0.834000       15.9994           0
     24277 TIP3     1854     TIP3     H1       HT       0.417000       1.00800           0
     24278 TIP3     1854     TIP3     H2       HT       0.417000       1.00800           0
     24279 TIP3     1855     TIP3     OH2      OT      -0.834000       15.9994           0
     24280 TIP3     1855     TIP3     H1       HT       0.417000       1.00800           0
     24281 TIP3     1855     TIP3     H2       HT       0.417000       1.00800           0
     24282 TIP3     1856     TIP3     OH2      OT      -0.834000       15.9994           0
     24283 TIP3     1856     TIP3     H1       HT       0.417000       1.00800           0
     24284 TIP3     1856     TIP3     H2       HT       0.417000       1.00800           0
     24285 TIP3     1857     TIP3     OH2      OT      -0.834000       15.9994           0
     24286 TIP3     1857     TIP3     H1       HT       0.417000       1.00800           0
     24287 TIP3     1857     TIP3     H2       HT       0.417000       1.00800           0
     24288 TIP3     1858     TIP3     OH2      OT      -0.834000       15.9994           0
     24289 TIP3     1858     TIP3     H1       HT       0.417000       1.00800           0
     24290 TIP3     1858     TIP3     H2       HT       0.417000       1.00800           0
     24291 TIP3     1859     TIP3     OH2      OT      -0.834000       15.9994           0
     24292 TIP3     1859     TIP3     H1       HT       0.417000       1.00800           0
     24293 TIP3     1859     TIP3     H2       HT       0.417000       1.00800           0
     24294 TIP3     1860     TIP3     OH2      OT      -0.834000       15.9994           0
     24295 TIP3     1860     TIP3     H1       HT       0.417000       1.00800           0
     24296 TIP3     1860     TIP3     H2       HT       0.417000       1.00800           0
     24297 TIP3     1861     TIP3     OH2      OT      -0.834000       15.9994           0
     24298 TIP3     1861     TIP3     H1       HT       0.417000       1.00800           0
     24299 TIP3     1861     TIP3     H2       HT       0.417000       1.00800           0
     24300 TIP3     1862     TIP3     OH2      OT      -0.834000       15.9994           0
     24301 TIP3     1862     TIP3     H1       HT       0.417000       1.00800           0
     24302 TIP3     1862     TIP3     H2       HT       0.417000       1.00800           0
     24303 TIP3     1863     TIP3     OH2      OT      -0.834000       15.9994           0
     24304 TIP3     1863     TIP3     H1       HT       0.417000       1.00800           0
     24305 TIP3     1863     TIP3     H2       HT       0.417000       1.00800           0
     24306 TIP3     1864     TIP3     OH2      OT      -0.834000       15.9994           0
     24307 TIP3     1864     TIP3     H1       HT       0.417000       1.00800           0
     24308 TIP3     1864     TIP3     H2       HT       0.417000       1.00800           0
     24309 TIP3     1865     TIP3     OH2      OT      -0.834000       15.9994           0
     24310 TIP3     1865     TIP3     H1       HT       0.417000       1.00800           0
     24311 TIP3     1865     TIP3     H2       HT       0.417000       1.00800           0
     24312 TIP3     1866     TIP3     OH2      OT      -0.834000       15.9994           0
     24313 TIP3     1866     TIP3     H1       HT       0.417000       1.00800           0
     24314 TIP3     1866     TIP3     H2       HT       0.417000       1.00800           0
     24315 TIP3     1867     TIP3     OH2      OT      -0.834000       15.9994           0
     24316 TIP3     1867     TIP3     H1       HT       0.417000       1.00800           0
     24317 TIP3     1867     TIP3     H2       HT       0.417000       1.00800           0
     24318 TIP3     1868     TIP3     OH2      OT      -0.834000       15.9994           0
     24319 TIP3     1868     TIP3     H1       HT       0.417000       1.00800           0
     24320 TIP3     1868     TIP3     H2       HT       0.417000       1.00800           0
     24321 TIP3     1869     TIP3     OH2      OT      -0.834000       15.9994           0
     24322 TIP3     1869     TIP3     H1       HT       0.417000       1.00800           0
     24323 TIP3     1869     TIP3     H2       HT       0.417000       1.00800           0
     24324 TIP3     1870     TIP3     OH2      OT      -0.834000       15.9994           0
     24325 TIP3     1870     TIP3     H1       HT       0.417000       1.00800           0
     24326 TIP3     1870     TIP3     H2       HT       0.417000       1.00800           0
     24327 TIP3     1871     TIP3     OH2      OT      -0.834000       15.9994           0
     24328 TIP3     1871     TIP3     H1       HT       0.417000       1.00800           0
     24329 TIP3     1871     TIP3     H2       HT       0.417000       1.00800           0
     24330 TIP3     1872     TIP3     OH2      OT      -0.834000       15.9994           0
     24331 TIP3     1872     TIP3     H1       HT       0.417000       1.00800           0
     24332 TIP3     1872     TIP3     H2       HT       0.417000       1.00800           0
     24333 TIP3     1873     TIP3     OH2      OT      -0.834000       15.9994           0
     24334 TIP3     1873     TIP3     H1       HT       0.417000       1.00800           0
     24335 TIP3     1873     TIP3     H2       HT       0.417000       1.00800           0
     24336 TIP3     1874     TIP3     OH2      OT      -0.834000       15.9994           0
     24337 TIP3     1874     TIP3     H1       HT       0.417000       1.00800           0
     24338 TIP3     1874     TIP3     H2       HT       0.417000       1.00800           0
     24339 TIP3     1875     TIP3     OH2      OT      -0.834000       15.9994           0
     24340 TIP3     1875     TIP3     H1       HT       0.417000       1.00800           0
     24341 TIP3     1875     TIP3     H2       HT       0.417000       1.00800           0
     24342 TIP3     1876     TIP3     OH2      OT      -0.834000       15.9994           0
     24343 TIP3     1876     TIP3     H1       HT       0.417000       1.00800           0
     24344 TIP3     1876     TIP3     H2       HT       0.417000       1.00800           0
     24345 TIP3     1877     TIP3     OH2      OT      -0.834000       15.9994           0
     24346 TIP3     1877     TIP3     H1       HT       0.417000       1.00800           0
     24347 TIP3     1877     TIP3     H2       HT       0.417000       1.00800           0
     24348 TIP3     1878     TIP3     OH2      OT      -0.834000       15.9994           0
     24349 TIP3     1878     TIP3     H1       HT       0.417000       1.00800           0
     24350 TIP3     1878     TIP3     H2       HT       0.417000       1.00800           0
     24351 TIP3     1879     TIP3     OH2      OT      -0.834000       15.9994           0
     24352 TIP3     1879     TIP3     H1       HT       0.417000       1.00800           0
     24353 TIP3     1879     TIP3     H2       HT       0.417000       1.00800           0
     24354 TIP3     1880     TIP3     OH2      OT      -0.834000       15.9994           0
     24355 TIP3     1880     TIP3     H1       HT       0.417000       1.00800           0
     24356 TIP3     1880     TIP3     H2       HT       0.417000       1.00800           0
     24357 TIP3     1881     TIP3     OH2      OT      -0.834000       15.9994           0
     24358 TIP3     1881     TIP3     H1       HT       0.417000       1.00800           0
     24359 TIP3     1881     TIP3     H2       HT       0.417000       1.00800           0
     24360 TIP3     1882     TIP3     OH2      OT      -0.834000       15.9994           0
     24361 TIP3     1882     TIP3     H1       HT       0.417000       1.00800           0
     24362 TIP3     1882     TIP3     H2       HT       0.417000       1.00800           0
     24363 TIP3     1883     TIP3     OH2      OT      -0.834000       15.9994           0
     24364 TIP3     1883     TIP3     H1       HT       0.417000       1.00800           0
     24365 TIP3     1883     TIP3     H2       HT       0.417000       1.00800           0
     24366 TIP3     1884     TIP3     OH2      OT      -0.834000       15.9994           0
     24367 TIP3     1884     TIP3     H1       HT       0.417000       1.00800           0
     24368 TIP3     1884     TIP3     H2       HT       0.417000       1.00800           0
     24369 TIP3     1885     TIP3     OH2      OT      -0.834000       15.9994           0
     24370 TIP3     1885     TIP3     H1       HT       0.417000       1.00800           0
     24371 TIP3     1885     TIP3     H2       HT       0.417000       1.00800           0
     24372 TIP3     1886     TIP3     OH2      OT      -0.834000       15.9994           0
     24373 TIP3     1886     TIP3     H1       HT       0.417000       1.00800           0
     24374 TIP3     1886     TIP3     H2       HT       0.417000       1.00800           0
     24375 TIP3     1887     TIP3     OH2      OT      -0.834000       15.9994           0
     24376 TIP3     1887     TIP3     H1       HT       0.417000       1.00800           0
     24377 TIP3     1887     TIP3     H2       HT       0.417000       1.00800           0
     24378 TIP3     1888     TIP3     OH2      OT      -0.834000       15.9994           0
     24379 TIP3     1888     TIP3     H1       HT       0.417000       1.00800           0
     24380 TIP3     1888     TIP3     H2       HT       0.417000       1.00800           0
     24381 TIP3     1889     TIP3     OH2      OT      -0.834000       15.9994           0
     24382 TIP3     1889     TIP3     H1       HT       0.417000       1.00800           0
     24383 TIP3     1889     TIP3     H2       HT       0.417000       1.00800           0
     24384 TIP3     1890     TIP3     OH2      OT      -0.834000       15.9994           0
     24385 TIP3     1890     TIP3     H1       HT       0.417000       1.00800           0
     24386 TIP3     1890     TIP3     H2       HT       0.417000       1.00800           0
     24387 TIP3     1891     TIP3     OH2      OT      -0.834000       15.9994           0
     24388 TIP3     1891     TIP3     H1       HT       0.417000       1.00800           0
     24389 TIP3     1891     TIP3     H2       HT       0.417000       1.00800           0
     24390 TIP3     1892     TIP3     OH2      OT      -0.834000       15.9994           0
     24391 TIP3     1892     TIP3     H1       HT       0.417000       1.00800           0
     24392 TIP3     1892     TIP3     H2       HT       0.417000       1.00800           0
     24393 TIP3     1893     TIP3     OH2      OT      -0.834000       15.9994           0
     24394 TIP3     1893     TIP3     H1       HT       0.417000       1.00800           0
     24395 TIP3     1893     TIP3     H2       HT       0.417000       1.00800           0
     24396 TIP3     1894     TIP3     OH2      OT      -0.834000       15.9994           0
     24397 TIP3     1894     TIP3     H1       HT       0.417000       1.00800           0
     24398 TIP3     1894     TIP3     H2       HT       0.417000       1.00800           0
     24399 TIP3     1895     TIP3     OH2      OT      -0.834000       15.9994           0
     24400 TIP3     1895     TIP3     H1       HT       0.417000       1.00800           0
     24401 TIP3     1895     TIP3     H2       HT       0.417000       1.00800           0
     24402 TIP3     1896     TIP3     OH2      OT      -0.834000       15.9994           0
     24403 TIP3     1896     TIP3     H1       HT       0.417000       1.00800           0
     24404 TIP3     1896     TIP3     H2       HT       0.417000       1.00800           0
     24405 TIP3     1897     TIP3     OH2      OT      -0.834000       15.9994           0
     24406 TIP3     1897     TIP3     H1       HT       0.417000       1.00800           0
     24407 TIP3     1897     TIP3     H2       HT       0.417000       1.00800           0
     24408 TIP3     1898     TIP3     OH2      OT      -0.834000       15.9994           0
     24409 TIP3     1898     TIP3     H1       HT       0.417000       1.00800           0
     24410 TIP3     1898     TIP3     H2       HT       0.417000       1.00800           0
     24411 TIP3     1899     TIP3     OH2      OT      -0.834000       15.9994           0
     24412 TIP3     1899     TIP3     H1       HT       0.417000       1.00800           0
     24413 TIP3     1899     TIP3     H2       HT       0.417000       1.00800           0
     24414 TIP3     1900     TIP3     OH2      OT      -0.834000       15.9994           0
     24415 TIP3     1900     TIP3     H1       HT       0.417000       1.00800           0
     24416 TIP3     1900     TIP3     H2       HT       0.417000       1.00800           0
     24417 TIP3     1901     TIP3     OH2      OT      -0.834000       15.9994           0
     24418 TIP3     1901     TIP3     H1       HT       0.417000       1.00800           0
     24419 TIP3     1901     TIP3     H2       HT       0.417000       1.00800           0
     24420 TIP3     1902     TIP3     OH2      OT      -0.834000       15.9994           0
     24421 TIP3     1902     TIP3     H1       HT       0.417000       1.00800           0
     24422 TIP3     1902     TIP3     H2       HT       0.417000       1.00800           0
     24423 TIP3     1903     TIP3     OH2      OT      -0.834000       15.9994           0
     24424 TIP3     1903     TIP3     H1       HT       0.417000       1.00800           0
     24425 TIP3     1903     TIP3     H2       HT       0.417000       1.00800           0
     24426 TIP3     1904     TIP3     OH2      OT      -0.834000       15.9994           0
     24427 TIP3     1904     TIP3     H1       HT       0.417000       1.00800           0
     24428 TIP3     1904     TIP3     H2       HT       0.417000       1.00800           0
     24429 TIP3     1905     TIP3     OH2      OT      -0.834000       15.9994           0
     24430 TIP3     1905     TIP3     H1       HT       0.417000       1.00800           0
     24431 TIP3     1905     TIP3     H2       HT       0.417000       1.00800           0
     24432 TIP3     1906     TIP3     OH2      OT      -0.834000       15.9994           0
     24433 TIP3     1906     TIP3     H1       HT       0.417000       1.00800           0
     24434 TIP3     1906     TIP3     H2       HT       0.417000       1.00800           0
     24435 TIP3     1907     TIP3     OH2      OT      -0.834000       15.9994           0
     24436 TIP3     1907     TIP3     H1       HT       0.417000       1.00800           0
     24437 TIP3     1907     TIP3     H2       HT       0.417000       1.00800           0
     24438 TIP3     1908     TIP3     OH2      OT      -0.834000       15.9994           0
     24439 TIP3     1908     TIP3     H1       HT       0.417000       1.00800           0
     24440 TIP3     1908     TIP3     H2       HT       0.417000       1.00800           0
     24441 TIP3     1909     TIP3     OH2      OT      -0.834000       15.9994           0
     24442 TIP3     1909     TIP3     H1       HT       0.417000       1.00800           0
     24443 TIP3     1909     TIP3     H2       HT       0.417000       1.00800           0
     24444 TIP3     1910     TIP3     OH2      OT      -0.834000       15.9994           0
     24445 TIP3     1910     TIP3     H1       HT       0.417000       1.00800           0
     24446 TIP3     1910     TIP3     H2       HT       0.417000       1.00800           0
     24447 TIP3     1911     TIP3     OH2      OT      -0.834000       15.9994           0
     24448 TIP3     1911     TIP3     H1       HT       0.417000       1.00800           0
     24449 TIP3     1911     TIP3     H2       HT       0.417000       1.00800           0
     24450 TIP3     1912     TIP3     OH2      OT      -0.834000       15.9994           0
     24451 TIP3     1912     TIP3     H1       HT       0.417000       1.00800           0
     24452 TIP3     1912     TIP3     H2       HT       0.417000       1.00800           0
     24453 TIP3     1913     TIP3     OH2      OT      -0.834000       15.9994           0
     24454 TIP3     1913     TIP3     H1       HT       0.417000       1.00800           0
     24455 TIP3     1913     TIP3     H2       HT       0.417000       1.00800           0
     24456 TIP3     1914     TIP3     OH2      OT      -0.834000       15.9994           0
     24457 TIP3     1914     TIP3     H1       HT       0.417000       1.00800           0
     24458 TIP3     1914     TIP3     H2       HT       0.417000       1.00800           0
     24459 TIP3     1915     TIP3     OH2      OT      -0.834000       15.9994           0
     24460 TIP3     1915     TIP3     H1       HT       0.417000       1.00800           0
     24461 TIP3     1915     TIP3     H2       HT       0.417000       1.00800           0
     24462 TIP3     1916     TIP3     OH2      OT      -0.834000       15.9994           0
     24463 TIP3     1916     TIP3     H1       HT       0.417000       1.00800           0
     24464 TIP3     1916     TIP3     H2       HT       0.417000       1.00800           0
     24465 TIP3     1917     TIP3     OH2      OT      -0.834000       15.9994           0
     24466 TIP3     1917     TIP3     H1       HT       0.417000       1.00800           0
     24467 TIP3     1917     TIP3     H2       HT       0.417000       1.00800           0
     24468 TIP3     1918     TIP3     OH2      OT      -0.834000       15.9994           0
     24469 TIP3     1918     TIP3     H1       HT       0.417000       1.00800           0
     24470 TIP3     1918     TIP3     H2       HT       0.417000       1.00800           0
     24471 TIP3     1919     TIP3     OH2      OT      -0.834000       15.9994           0
     24472 TIP3     1919     TIP3     H1       HT       0.417000       1.00800           0
     24473 TIP3     1919     TIP3     H2       HT       0.417000       1.00800           0
     24474 TIP3     1920     TIP3     OH2      OT      -0.834000       15.9994           0
     24475 TIP3     1920     TIP3     H1       HT       0.417000       1.00800           0
     24476 TIP3     1920     TIP3     H2       HT       0.417000       1.00800           0
     24477 TIP3     1921     TIP3     OH2      OT      -0.834000       15.9994           0
     24478 TIP3     1921     TIP3     H1       HT       0.417000       1.00800           0
     24479 TIP3     1921     TIP3     H2       HT       0.417000       1.00800           0
     24480 TIP3     1922     TIP3     OH2      OT      -0.834000       15.9994           0
     24481 TIP3     1922     TIP3     H1       HT       0.417000       1.00800           0
     24482 TIP3     1922     TIP3     H2       HT       0.417000       1.00800           0
     24483 TIP3     1923     TIP3     OH2      OT      -0.834000       15.9994           0
     24484 TIP3     1923     TIP3     H1       HT       0.417000       1.00800           0
     24485 TIP3     1923     TIP3     H2       HT       0.417000       1.00800           0
     24486 TIP3     1924     TIP3     OH2      OT      -0.834000       15.9994           0
     24487 TIP3     1924     TIP3     H1       HT       0.417000       1.00800           0
     24488 TIP3     1924     TIP3     H2       HT       0.417000       1.00800           0
     24489 TIP3     1925     TIP3     OH2      OT      -0.834000       15.9994           0
     24490 TIP3     1925     TIP3     H1       HT       0.417000       1.00800           0
     24491 TIP3     1925     TIP3     H2       HT       0.417000       1.00800           0
     24492 TIP3     1926     TIP3     OH2      OT      -0.834000       15.9994           0
     24493 TIP3     1926     TIP3     H1       HT       0.417000       1.00800           0
     24494 TIP3     1926     TIP3     H2       HT       0.417000       1.00800           0
     24495 TIP3     1927     TIP3     OH2      OT      -0.834000       15.9994           0
     24496 TIP3     1927     TIP3     H1       HT       0.417000       1.00800           0
     24497 TIP3     1927     TIP3     H2       HT       0.417000       1.00800           0
     24498 TIP3     1928     TIP3     OH2      OT      -0.834000       15.9994           0
     24499 TIP3     1928     TIP3     H1       HT       0.417000       1.00800           0
     24500 TIP3     1928     TIP3     H2       HT       0.417000       1.00800           0
     24501 TIP3     1929     TIP3     OH2      OT      -0.834000       15.9994           0
     24502 TIP3     1929     TIP3     H1       HT       0.417000       1.00800           0
     24503 TIP3     1929     TIP3     H2       HT       0.417000       1.00800           0
     24504 TIP3     1930     TIP3     OH2      OT      -0.834000       15.9994           0
     24505 TIP3     1930     TIP3     H1       HT       0.417000       1.00800           0
     24506 TIP3     1930     TIP3     H2       HT       0.417000       1.00800           0
     24507 TIP3     1931     TIP3     OH2      OT      -0.834000       15.9994           0
     24508 TIP3     1931     TIP3     H1       HT       0.417000       1.00800           0
     24509 TIP3     1931     TIP3     H2       HT       0.417000       1.00800           0
     24510 TIP3     1932     TIP3     OH2      OT      -0.834000       15.9994           0
     24511 TIP3     1932     TIP3     H1       HT       0.417000       1.00800           0
     24512 TIP3     1932     TIP3     H2       HT       0.417000       1.00800           0
     24513 TIP3     1933     TIP3     OH2      OT      -0.834000       15.9994           0
     24514 TIP3     1933     TIP3     H1       HT       0.417000       1.00800           0
     24515 TIP3     1933     TIP3     H2       HT       0.417000       1.00800           0
     24516 TIP3     1934     TIP3     OH2      OT      -0.834000       15.9994           0
     24517 TIP3     1934     TIP3     H1       HT       0.417000       1.00800           0
     24518 TIP3     1934     TIP3     H2       HT       0.417000       1.00800           0
     24519 TIP3     1935     TIP3     OH2      OT      -0.834000       15.9994           0
     24520 TIP3     1935     TIP3     H1       HT       0.417000       1.00800           0
     24521 TIP3     1935     TIP3     H2       HT       0.417000       1.00800           0
     24522 TIP3     1936     TIP3     OH2      OT      -0.834000       15.9994           0
     24523 TIP3     1936     TIP3     H1       HT       0.417000       1.00800           0
     24524 TIP3     1936     TIP3     H2       HT       0.417000       1.00800           0
     24525 TIP3     1937     TIP3     OH2      OT      -0.834000       15.9994           0
     24526 TIP3     1937     TIP3     H1       HT       0.417000       1.00800           0
     24527 TIP3     1937     TIP3     H2       HT       0.417000       1.00800           0
     24528 TIP3     1938     TIP3     OH2      OT      -0.834000       15.9994           0
     24529 TIP3     1938     TIP3     H1       HT       0.417000       1.00800           0
     24530 TIP3     1938     TIP3     H2       HT       0.417000       1.00800           0
     24531 TIP3     1939     TIP3     OH2      OT      -0.834000       15.9994           0
     24532 TIP3     1939     TIP3     H1       HT       0.417000       1.00800           0
     24533 TIP3     1939     TIP3     H2       HT       0.417000       1.00800           0
     24534 TIP3     1940     TIP3     OH2      OT      -0.834000       15.9994           0
     24535 TIP3     1940     TIP3     H1       HT       0.417000       1.00800           0
     24536 TIP3     1940     TIP3     H2       HT       0.417000       1.00800           0
     24537 TIP3     1941     TIP3     OH2      OT      -0.834000       15.9994           0
     24538 TIP3     1941     TIP3     H1       HT       0.417000       1.00800           0
     24539 TIP3     1941     TIP3     H2       HT       0.417000       1.00800           0
     24540 TIP3     1942     TIP3     OH2      OT      -0.834000       15.9994           0
     24541 TIP3     1942     TIP3     H1       HT       0.417000       1.00800           0
     24542 TIP3     1942     TIP3     H2       HT       0.417000       1.00800           0
     24543 TIP3     1943     TIP3     OH2      OT      -0.834000       15.9994           0
     24544 TIP3     1943     TIP3     H1       HT       0.417000       1.00800           0
     24545 TIP3     1943     TIP3     H2       HT       0.417000       1.00800           0
     24546 TIP3     1944     TIP3     OH2      OT      -0.834000       15.9994           0
     24547 TIP3     1944     TIP3     H1       HT       0.417000       1.00800           0
     24548 TIP3     1944     TIP3     H2       HT       0.417000       1.00800           0
     24549 TIP3     1945     TIP3     OH2      OT      -0.834000       15.9994           0
     24550 TIP3     1945     TIP3     H1       HT       0.417000       1.00800           0
     24551 TIP3     1945     TIP3     H2       HT       0.417000       1.00800           0
     24552 TIP3     1946     TIP3     OH2      OT      -0.834000       15.9994           0
     24553 TIP3     1946     TIP3     H1       HT       0.417000       1.00800           0
     24554 TIP3     1946     TIP3     H2       HT       0.417000       1.00800           0
     24555 TIP3     1947     TIP3     OH2      OT      -0.834000       15.9994           0
     24556 TIP3     1947     TIP3     H1       HT       0.417000       1.00800           0
     24557 TIP3     1947     TIP3     H2       HT       0.417000       1.00800           0
     24558 TIP3     1948     TIP3     OH2      OT      -0.834000       15.9994           0
     24559 TIP3     1948     TIP3     H1       HT       0.417000       1.00800           0
     24560 TIP3     1948     TIP3     H2       HT       0.417000       1.00800           0
     24561 TIP3     1949     TIP3     OH2      OT      -0.834000       15.9994           0
     24562 TIP3     1949     TIP3     H1       HT       0.417000       1.00800           0
     24563 TIP3     1949     TIP3     H2       HT       0.417000       1.00800           0
     24564 TIP3     1950     TIP3     OH2      OT      -0.834000       15.9994           0
     24565 TIP3     1950     TIP3     H1       HT       0.417000       1.00800           0
     24566 TIP3     1950     TIP3     H2       HT       0.417000       1.00800           0
     24567 TIP3     1951     TIP3     OH2      OT      -0.834000       15.9994           0
     24568 TIP3     1951     TIP3     H1       HT       0.417000       1.00800           0
     24569 TIP3     1951     TIP3     H2       HT       0.417000       1.00800           0
     24570 TIP3     1952     TIP3     OH2      OT      -0.834000       15.9994           0
     24571 TIP3     1952     TIP3     H1       HT       0.417000       1.00800           0
     24572 TIP3     1952     TIP3     H2       HT       0.417000       1.00800           0
     24573 TIP3     1953     TIP3     OH2      OT      -0.834000       15.9994           0
     24574 TIP3     1953     TIP3     H1       HT       0.417000       1.00800           0
     24575 TIP3     1953     TIP3     H2       HT       0.417000       1.00800           0
     24576 TIP3     1954     TIP3     OH2      OT      -0.834000       15.9994           0
     24577 TIP3     1954     TIP3     H1       HT       0.417000       1.00800           0
     24578 TIP3     1954     TIP3     H2       HT       0.417000       1.00800           0
     24579 TIP3     1955     TIP3     OH2      OT      -0.834000       15.9994           0
     24580 TIP3     1955     TIP3     H1       HT       0.417000       1.00800           0
     24581 TIP3     1955     TIP3     H2       HT       0.417000       1.00800           0
     24582 TIP3     1956     TIP3     OH2      OT      -0.834000       15.9994           0
     24583 TIP3     1956     TIP3     H1       HT       0.417000       1.00800           0
     24584 TIP3     1956     TIP3     H2       HT       0.417000       1.00800           0
     24585 TIP3     1957     TIP3     OH2      OT      -0.834000       15.9994           0
     24586 TIP3     1957     TIP3     H1       HT       0.417000       1.00800           0
     24587 TIP3     1957     TIP3     H2       HT       0.417000       1.00800           0
     24588 TIP3     1958     TIP3     OH2      OT      -0.834000       15.9994           0
     24589 TIP3     1958     TIP3     H1       HT       0.417000       1.00800           0
     24590 TIP3     1958     TIP3     H2       HT       0.417000       1.00800           0
     24591 TIP3     1959     TIP3     OH2      OT      -0.834000       15.9994           0
     24592 TIP3     1959     TIP3     H1       HT       0.417000       1.00800           0
     24593 TIP3     1959     TIP3     H2       HT       0.417000       1.00800           0
     24594 TIP3     1960     TIP3     OH2      OT      -0.834000       15.9994           0
     24595 TIP3     1960     TIP3     H1       HT       0.417000       1.00800           0
     24596 TIP3     1960     TIP3     H2       HT       0.417000       1.00800           0
     24597 TIP3     1961     TIP3     OH2      OT      -0.834000       15.9994           0
     24598 TIP3     1961     TIP3     H1       HT       0.417000       1.00800           0
     24599 TIP3     1961     TIP3     H2       HT       0.417000       1.00800           0
     24600 TIP3     1962     TIP3     OH2      OT      -0.834000       15.9994           0
     24601 TIP3     1962     TIP3     H1       HT       0.417000       1.00800           0
     24602 TIP3     1962     TIP3     H2       HT       0.417000       1.00800           0
     24603 TIP3     1963     TIP3     OH2      OT      -0.834000       15.9994           0
     24604 TIP3     1963     TIP3     H1       HT       0.417000       1.00800           0
     24605 TIP3     1963     TIP3     H2       HT       0.417000       1.00800           0
     24606 TIP3     1964     TIP3     OH2      OT      -0.834000       15.9994           0
     24607 TIP3     1964     TIP3     H1       HT       0.417000       1.00800           0
     24608 TIP3     1964     TIP3     H2       HT       0.417000       1.00800           0
     24609 TIP3     1965     TIP3     OH2      OT      -0.834000       15.9994           0
     24610 TIP3     1965     TIP3     H1       HT       0.417000       1.00800           0
     24611 TIP3     1965     TIP3     H2       HT       0.417000       1.00800           0
     24612 TIP3     1966     TIP3     OH2      OT      -0.834000       15.9994           0
     24613 TIP3     1966     TIP3     H1       HT       0.417000       1.00800           0
     24614 TIP3     1966     TIP3     H2       HT       0.417000       1.00800           0
     24615 TIP3     1967     TIP3     OH2      OT      -0.834000       15.9994           0
     24616 TIP3     1967     TIP3     H1       HT       0.417000       1.00800           0
     24617 TIP3     1967     TIP3     H2       HT       0.417000       1.00800           0
     24618 TIP3     1968     TIP3     OH2      OT      -0.834000       15.9994           0
     24619 TIP3     1968     TIP3     H1       HT       0.417000       1.00800           0
     24620 TIP3     1968     TIP3     H2       HT       0.417000       1.00800           0
     24621 TIP3     1969     TIP3     OH2      OT      -0.834000       15.9994           0
     24622 TIP3     1969     TIP3     H1       HT       0.417000       1.00800           0
     24623 TIP3     1969     TIP3     H2       HT       0.417000       1.00800           0
     24624 TIP3     1970     TIP3     OH2      OT      -0.834000       15.9994           0
     24625 TIP3     1970     TIP3     H1       HT       0.417000       1.00800           0
     24626 TIP3     1970     TIP3     H2       HT       0.417000       1.00800           0
     24627 TIP3     1971     TIP3     OH2      OT      -0.834000       15.9994           0
     24628 TIP3     1971     TIP3     H1       HT       0.417000       1.00800           0
     24629 TIP3     1971     TIP3     H2       HT       0.417000       1.00800           0
     24630 TIP3     1972     TIP3     OH2      OT      -0.834000       15.9994           0
     24631 TIP3     1972     TIP3     H1       HT       0.417000       1.00800           0
     24632 TIP3     1972     TIP3     H2       HT       0.417000       1.00800           0
     24633 TIP3     1973     TIP3     OH2      OT      -0.834000       15.9994           0
     24634 TIP3     1973     TIP3     H1       HT       0.417000       1.00800           0
     24635 TIP3     1973     TIP3     H2       HT       0.417000       1.00800           0
     24636 TIP3     1974     TIP3     OH2      OT      -0.834000       15.9994           0
     24637 TIP3     1974     TIP3     H1       HT       0.417000       1.00800           0
     24638 TIP3     1974     TIP3     H2       HT       0.417000       1.00800           0
     24639 TIP3     1975     TIP3     OH2      OT      -0.834000       15.9994           0
     24640 TIP3     1975     TIP3     H1       HT       0.417000       1.00800           0
     24641 TIP3     1975     TIP3     H2       HT       0.417000       1.00800           0
     24642 TIP3     1976     TIP3     OH2      OT      -0.834000       15.9994           0
     24643 TIP3     1976     TIP3     H1       HT       0.417000       1.00800           0
     24644 TIP3     1976     TIP3     H2       HT       0.417000       1.00800           0
     24645 TIP3     1977     TIP3     OH2      OT      -0.834000       15.9994           0
     24646 TIP3     1977     TIP3     H1       HT       0.417000       1.00800           0
     24647 TIP3     1977     TIP3     H2       HT       0.417000       1.00800           0
     24648 TIP3     1978     TIP3     OH2      OT      -0.834000       15.9994           0
     24649 TIP3     1978     TIP3     H1       HT       0.417000       1.00800           0
     24650 TIP3     1978     TIP3     H2       HT       0.417000       1.00800           0
     24651 TIP3     1979     TIP3     OH2      OT      -0.834000       15.9994           0
     24652 TIP3     1979     TIP3     H1       HT       0.417000       1.00800           0
     24653 TIP3     1979     TIP3     H2       HT       0.417000       1.00800           0
     24654 TIP3     1980     TIP3     OH2      OT      -0.834000       15.9994           0
     24655 TIP3     1980     TIP3     H1       HT       0.417000       1.00800           0
     24656 TIP3     1980     TIP3     H2       HT       0.417000       1.00800           0
     24657 TIP3     1981     TIP3     OH2      OT      -0.834000       15.9994           0
     24658 TIP3     1981     TIP3     H1       HT       0.417000       1.00800           0
     24659 TIP3     1981     TIP3     H2       HT       0.417000       1.00800           0
     24660 TIP3     1982     TIP3     OH2      OT      -0.834000       15.9994           0
     24661 TIP3     1982     TIP3     H1       HT       0.417000       1.00800           0
     24662 TIP3     1982     TIP3     H2       HT       0.417000       1.00800           0
     24663 TIP3     1983     TIP3     OH2      OT      -0.834000       15.9994           0
     24664 TIP3     1983     TIP3     H1       HT       0.417000       1.00800           0
     24665 TIP3     1983     TIP3     H2       HT       0.417000       1.00800           0
     24666 TIP3     1984     TIP3     OH2      OT      -0.834000       15.9994           0
     24667 TIP3     1984     TIP3     H1       HT       0.417000       1.00800           0
     24668 TIP3     1984     TIP3     H2       HT       0.417000       1.00800           0
     24669 TIP3     1985     TIP3     OH2      OT      -0.834000       15.9994           0
     24670 TIP3     1985     TIP3     H1       HT       0.417000       1.00800           0
     24671 TIP3     1985     TIP3     H2       HT       0.417000       1.00800           0
     24672 TIP3     1986     TIP3     OH2      OT      -0.834000       15.9994           0
     24673 TIP3     1986     TIP3     H1       HT       0.417000       1.00800           0
     24674 TIP3     1986     TIP3     H2       HT       0.417000       1.00800           0
     24675 TIP3     1987     TIP3     OH2      OT      -0.834000       15.9994           0
     24676 TIP3     1987     TIP3     H1       HT       0.417000       1.00800           0
     24677 TIP3     1987     TIP3     H2       HT       0.417000       1.00800           0
     24678 TIP3     1988     TIP3     OH2      OT      -0.834000       15.9994           0
     24679 TIP3     1988     TIP3     H1       HT       0.417000       1.00800           0
     24680 TIP3     1988     TIP3     H2       HT       0.417000       1.00800           0
     24681 TIP3     1989     TIP3     OH2      OT      -0.834000       15.9994           0
     24682 TIP3     1989     TIP3     H1       HT       0.417000       1.00800           0
     24683 TIP3     1989     TIP3     H2       HT       0.417000       1.00800           0
     24684 TIP3     1990     TIP3     OH2      OT      -0.834000       15.9994           0
     24685 TIP3     1990     TIP3     H1       HT       0.417000       1.00800           0
     24686 TIP3     1990     TIP3     H2       HT       0.417000       1.00800           0
     24687 TIP3     1991     TIP3     OH2      OT      -0.834000       15.9994           0
     24688 TIP3     1991     TIP3     H1       HT       0.417000       1.00800           0
     24689 TIP3     1991     TIP3     H2       HT       0.417000       1.00800           0
     24690 TIP3     1992     TIP3     OH2      OT      -0.834000       15.9994           0
     24691 TIP3     1992     TIP3     H1       HT       0.417000       1.00800           0
     24692 TIP3     1992     TIP3     H2       HT       0.417000       1.00800           0
     24693 TIP3     1993     TIP3     OH2      OT      -0.834000       15.9994           0
     24694 TIP3     1993     TIP3     H1       HT       0.417000       1.00800           0
     24695 TIP3     1993     TIP3     H2       HT       0.417000       1.00800           0
     24696 TIP3     1994     TIP3     OH2      OT      -0.834000       15.9994           0
     24697 TIP3     1994     TIP3     H1       HT       0.417000       1.00800           0
     24698 TIP3     1994     TIP3     H2       HT       0.417000       1.00800           0
     24699 TIP3     1995     TIP3     OH2      OT      -0.834000       15.9994           0
     24700 TIP3     1995     TIP3     H1       HT       0.417000       1.00800           0
     24701 TIP3     1995     TIP3     H2       HT       0.417000       1.00800           0
     24702 TIP3     1996     TIP3     OH2      OT      -0.834000       15.9994           0
     24703 TIP3     1996     TIP3     H1       HT       0.417000       1.00800           0
     24704 TIP3     1996     TIP3     H2       HT       0.417000       1.00800           0
     24705 TIP3     1997     TIP3     OH2      OT      -0.834000       15.9994           0
     24706 TIP3     1997     TIP3     H1       HT       0.417000       1.00800           0
     24707 TIP3     1997     TIP3     H2       HT       0.417000       1.00800           0
     24708 TIP3     1998     TIP3     OH2      OT      -0.834000       15.9994           0
     24709 TIP3     1998     TIP3     H1       HT       0.417000       1.00800           0
     24710 TIP3     1998     TIP3     H2       HT       0.417000       1.00800           0
     24711 TIP3     1999     TIP3     OH2      OT      -0.834000       15.9994           0
     24712 TIP3     1999     TIP3     H1       HT       0.417000       1.00800           0
     24713 TIP3     1999     TIP3     H2       HT       0.417000       1.00800           0
     24714 TIP3     2000     TIP3     OH2      OT      -0.834000       15.9994           0
     24715 TIP3     2000     TIP3     H1       HT       0.417000       1.00800           0
     24716 TIP3     2000     TIP3     H2       HT       0.417000       1.00800           0
     24717 TIP3     2001     TIP3     OH2      OT      -0.834000       15.9994           0
     24718 TIP3     2001     TIP3     H1       HT       0.417000       1.00800           0
     24719 TIP3     2001     TIP3     H2       HT       0.417000       1.00800           0
     24720 TIP3     2002     TIP3     OH2      OT      -0.834000       15.9994           0
     24721 TIP3     2002     TIP3     H1       HT       0.417000       1.00800           0
     24722 TIP3     2002     TIP3     H2       HT       0.417000       1.00800           0
     24723 TIP3     2003     TIP3     OH2      OT      -0.834000       15.9994           0
     24724 TIP3     2003     TIP3     H1       HT       0.417000       1.00800           0
     24725 TIP3     2003     TIP3     H2       HT       0.417000       1.00800           0
     24726 TIP3     2004     TIP3     OH2      OT      -0.834000       15.9994           0
     24727 TIP3     2004     TIP3     H1       HT       0.417000       1.00800           0
     24728 TIP3     2004     TIP3     H2       HT       0.417000       1.00800           0
     24729 TIP3     2005     TIP3     OH2      OT      -0.834000       15.9994           0
     24730 TIP3     2005     TIP3     H1       HT       0.417000       1.00800           0
     24731 TIP3     2005     TIP3     H2       HT       0.417000       1.00800           0
     24732 TIP3     2006     TIP3     OH2      OT      -0.834000       15.9994           0
     24733 TIP3     2006     TIP3     H1       HT       0.417000       1.00800           0
     24734 TIP3     2006     TIP3     H2       HT       0.417000       1.00800           0
     24735 TIP3     2007     TIP3     OH2      OT      -0.834000       15.9994           0
     24736 TIP3     2007     TIP3     H1       HT       0.417000       1.00800           0
     24737 TIP3     2007     TIP3     H2       HT       0.417000       1.00800           0
     24738 TIP3     2008     TIP3     OH2      OT      -0.834000       15.9994           0
     24739 TIP3     2008     TIP3     H1       HT       0.417000       1.00800           0
     24740 TIP3     2008     TIP3     H2       HT       0.417000       1.00800           0
     24741 TIP3     2009     TIP3     OH2      OT      -0.834000       15.9994           0
     24742 TIP3     2009     TIP3     H1       HT       0.417000       1.00800           0
     24743 TIP3     2009     TIP3     H2       HT       0.417000       1.00800           0
     24744 TIP3     2010     TIP3     OH2      OT      -0.834000       15.9994           0
     24745 TIP3     2010     TIP3     H1       HT       0.417000       1.00800           0
     24746 TIP3     2010     TIP3     H2       HT       0.417000       1.00800           0
     24747 TIP3     2011     TIP3     OH2      OT      -0.834000       15.9994           0
     24748 TIP3     2011     TIP3     H1       HT       0.417000       1.00800           0
     24749 TIP3     2011     TIP3     H2       HT       0.417000       1.00800           0
     24750 TIP3     2012     TIP3     OH2      OT      -0.834000       15.9994           0
     24751 TIP3     2012     TIP3     H1       HT       0.417000       1.00800           0
     24752 TIP3     2012     TIP3     H2       HT       0.417000       1.00800           0
     24753 TIP3     2013     TIP3     OH2      OT      -0.834000       15.9994           0
     24754 TIP3     2013     TIP3     H1       HT       0.417000       1.00800           0
     24755 TIP3     2013     TIP3     H2       HT       0.417000       1.00800           0
     24756 TIP3     2014     TIP3     OH2      OT      -0.834000       15.9994           0
     24757 TIP3     2014     TIP3     H1       HT       0.417000       1.00800           0
     24758 TIP3     2014     TIP3     H2       HT       0.417000       1.00800           0
     24759 TIP3     2015     TIP3     OH2      OT      -0.834000       15.9994           0
     24760 TIP3     2015     TIP3     H1       HT       0.417000       1.00800           0
     24761 TIP3     2015     TIP3     H2       HT       0.417000       1.00800           0
     24762 TIP3     2016     TIP3     OH2      OT      -0.834000       15.9994           0
     24763 TIP3     2016     TIP3     H1       HT       0.417000       1.00800           0
     24764 TIP3     2016     TIP3     H2       HT       0.417000       1.00800           0
     24765 TIP3     2017     TIP3     OH2      OT      -0.834000       15.9994           0
     24766 TIP3     2017     TIP3     H1       HT       0.417000       1.00800           0
     24767 TIP3     2017     TIP3     H2       HT       0.417000       1.00800           0
     24768 TIP3     2018     TIP3     OH2      OT      -0.834000       15.9994           0
     24769 TIP3     2018     TIP3     H1       HT       0.417000       1.00800           0
     24770 TIP3     2018     TIP3     H2       HT       0.417000       1.00800           0
     24771 TIP3     2019     TIP3     OH2      OT      -0.834000       15.9994           0
     24772 TIP3     2019     TIP3     H1       HT       0.417000       1.00800           0
     24773 TIP3     2019     TIP3     H2       HT       0.417000       1.00800           0
     24774 TIP3     2020     TIP3     OH2      OT      -0.834000       15.9994           0
     24775 TIP3     2020     TIP3     H1       HT       0.417000       1.00800           0
     24776 TIP3     2020     TIP3     H2       HT       0.417000       1.00800           0
     24777 TIP3     2021     TIP3     OH2      OT      -0.834000       15.9994           0
     24778 TIP3     2021     TIP3     H1       HT       0.417000       1.00800           0
     24779 TIP3     2021     TIP3     H2       HT       0.417000       1.00800           0
     24780 TIP3     2022     TIP3     OH2      OT      -0.834000       15.9994           0
     24781 TIP3     2022     TIP3     H1       HT       0.417000       1.00800           0
     24782 TIP3     2022     TIP3     H2       HT       0.417000       1.00800           0
     24783 TIP3     2023     TIP3     OH2      OT      -0.834000       15.9994           0
     24784 TIP3     2023     TIP3     H1       HT       0.417000       1.00800           0
     24785 TIP3     2023     TIP3     H2       HT       0.417000       1.00800           0
     24786 TIP3     2024     TIP3     OH2      OT      -0.834000       15.9994           0
     24787 TIP3     2024     TIP3     H1       HT       0.417000       1.00800           0
     24788 TIP3     2024     TIP3     H2       HT       0.417000       1.00800           0
     24789 TIP3     2025     TIP3     OH2      OT      -0.834000       15.9994           0
     24790 TIP3     2025     TIP3     H1       HT       0.417000       1.00800           0
     24791 TIP3     2025     TIP3     H2       HT       0.417000       1.00800           0
     24792 TIP3     2026     TIP3     OH2      OT      -0.834000       15.9994           0
     24793 TIP3     2026     TIP3     H1       HT       0.417000       1.00800           0
     24794 TIP3     2026     TIP3     H2       HT       0.417000       1.00800           0
     24795 TIP3     2027     TIP3     OH2      OT      -0.834000       15.9994           0
     24796 TIP3     2027     TIP3     H1       HT       0.417000       1.00800           0
     24797 TIP3     2027     TIP3     H2       HT       0.417000       1.00800           0
     24798 TIP3     2028     TIP3     OH2      OT      -0.834000       15.9994           0
     24799 TIP3     2028     TIP3     H1       HT       0.417000       1.00800           0
     24800 TIP3     2028     TIP3     H2       HT       0.417000       1.00800           0
     24801 TIP3     2029     TIP3     OH2      OT      -0.834000       15.9994           0
     24802 TIP3     2029     TIP3     H1       HT       0.417000       1.00800           0
     24803 TIP3     2029     TIP3     H2       HT       0.417000       1.00800           0
     24804 TIP3     2030     TIP3     OH2      OT      -0.834000       15.9994           0
     24805 TIP3     2030     TIP3     H1       HT       0.417000       1.00800           0
     24806 TIP3     2030     TIP3     H2       HT       0.417000       1.00800           0
     24807 TIP3     2031     TIP3     OH2      OT      -0.834000       15.9994           0
     24808 TIP3     2031     TIP3     H1       HT       0.417000       1.00800           0
     24809 TIP3     2031     TIP3     H2       HT       0.417000       1.00800           0
     24810 TIP3     2032     TIP3     OH2      OT      -0.834000       15.9994           0
     24811 TIP3     2032     TIP3     H1       HT       0.417000       1.00800           0
     24812 TIP3     2032     TIP3     H2       HT       0.417000       1.00800           0
     24813 TIP3     2033     TIP3     OH2      OT      -0.834000       15.9994           0
     24814 TIP3     2033     TIP3     H1       HT       0.417000       1.00800           0
     24815 TIP3     2033     TIP3     H2       HT       0.417000       1.00800           0
     24816 TIP3     2034     TIP3     OH2      OT      -0.834000       15.9994           0
     24817 TIP3     2034     TIP3     H1       HT       0.417000       1.00800           0
     24818 TIP3     2034     TIP3     H2       HT       0.417000       1.00800           0
     24819 TIP3     2035     TIP3     OH2      OT      -0.834000       15.9994           0
     24820 TIP3     2035     TIP3     H1       HT       0.417000       1.00800           0
     24821 TIP3     2035     TIP3     H2       HT       0.417000       1.00800           0
     24822 TIP3     2036     TIP3     OH2      OT      -0.834000       15.9994           0
     24823 TIP3     2036     TIP3     H1       HT       0.417000       1.00800           0
     24824 TIP3     2036     TIP3     H2       HT       0.417000       1.00800           0
     24825 TIP3     2037     TIP3     OH2      OT      -0.834000       15.9994           0
     24826 TIP3     2037     TIP3     H1       HT       0.417000       1.00800           0
     24827 TIP3     2037     TIP3     H2       HT       0.417000       1.00800           0
     24828 TIP3     2038     TIP3     OH2      OT      -0.834000       15.9994           0
     24829 TIP3     2038     TIP3     H1       HT       0.417000       1.00800           0
     24830 TIP3     2038     TIP3     H2       HT       0.417000       1.00800           0
     24831 TIP3     2039     TIP3     OH2      OT      -0.834000       15.9994           0
     24832 TIP3     2039     TIP3     H1       HT       0.417000       1.00800           0
     24833 TIP3     2039     TIP3     H2       HT       0.417000       1.00800           0
     24834 TIP3     2040     TIP3     OH2      OT      -0.834000       15.9994           0
     24835 TIP3     2040     TIP3     H1       HT       0.417000       1.00800           0
     24836 TIP3     2040     TIP3     H2       HT       0.417000       1.00800           0
     24837 TIP3     2041     TIP3     OH2      OT      -0.834000       15.9994           0
     24838 TIP3     2041     TIP3     H1       HT       0.417000       1.00800           0
     24839 TIP3     2041     TIP3     H2       HT       0.417000       1.00800           0
     24840 TIP3     2042     TIP3     OH2      OT      -0.834000       15.9994           0
     24841 TIP3     2042     TIP3     H1       HT       0.417000       1.00800           0
     24842 TIP3     2042     TIP3     H2       HT       0.417000       1.00800           0
     24843 TIP3     2043     TIP3     OH2      OT      -0.834000       15.9994           0
     24844 TIP3     2043     TIP3     H1       HT       0.417000       1.00800           0
     24845 TIP3     2043     TIP3     H2       HT       0.417000       1.00800           0
     24846 TIP3     2044     TIP3     OH2      OT      -0.834000       15.9994           0
     24847 TIP3     2044     TIP3     H1       HT       0.417000       1.00800           0
     24848 TIP3     2044     TIP3     H2       HT       0.417000       1.00800           0
     24849 TIP3     2045     TIP3     OH2      OT      -0.834000       15.9994           0
     24850 TIP3     2045     TIP3     H1       HT       0.417000       1.00800           0
     24851 TIP3     2045     TIP3     H2       HT       0.417000       1.00800           0
     24852 TIP3     2046     TIP3     OH2      OT      -0.834000       15.9994           0
     24853 TIP3     2046     TIP3     H1       HT       0.417000       1.00800           0
     24854 TIP3     2046     TIP3     H2       HT       0.417000       1.00800           0
     24855 TIP3     2047     TIP3     OH2      OT      -0.834000       15.9994           0
     24856 TIP3     2047     TIP3     H1       HT       0.417000       1.00800           0
     24857 TIP3     2047     TIP3     H2       HT       0.417000       1.00800           0
     24858 TIP3     2048     TIP3     OH2      OT      -0.834000       15.9994           0
     24859 TIP3     2048     TIP3     H1       HT       0.417000       1.00800           0
     24860 TIP3     2048     TIP3     H2       HT       0.417000       1.00800           0
     24861 TIP3     2049     TIP3     OH2      OT      -0.834000       15.9994           0
     24862 TIP3     2049     TIP3     H1       HT       0.417000       1.00800           0
     24863 TIP3     2049     TIP3     H2       HT       0.417000       1.00800           0
     24864 TIP3     2050     TIP3     OH2      OT      -0.834000       15.9994           0
     24865 TIP3     2050     TIP3     H1       HT       0.417000       1.00800           0
     24866 TIP3     2050     TIP3     H2       HT       0.417000       1.00800           0
     24867 TIP3     2051     TIP3     OH2      OT      -0.834000       15.9994           0
     24868 TIP3     2051     TIP3     H1       HT       0.417000       1.00800           0
     24869 TIP3     2051     TIP3     H2       HT       0.417000       1.00800           0
     24870 TIP3     2052     TIP3     OH2      OT      -0.834000       15.9994           0
     24871 TIP3     2052     TIP3     H1       HT       0.417000       1.00800           0
     24872 TIP3     2052     TIP3     H2       HT       0.417000       1.00800           0
     24873 TIP3     2053     TIP3     OH2      OT      -0.834000       15.9994           0
     24874 TIP3     2053     TIP3     H1       HT       0.417000       1.00800           0
     24875 TIP3     2053     TIP3     H2       HT       0.417000       1.00800           0
     24876 TIP3     2054     TIP3     OH2      OT      -0.834000       15.9994           0
     24877 TIP3     2054     TIP3     H1       HT       0.417000       1.00800           0
     24878 TIP3     2054     TIP3     H2       HT       0.417000       1.00800           0
     24879 TIP3     2055     TIP3     OH2      OT      -0.834000       15.9994           0
     24880 TIP3     2055     TIP3     H1       HT       0.417000       1.00800           0
     24881 TIP3     2055     TIP3     H2       HT       0.417000       1.00800           0
     24882 TIP3     2056     TIP3     OH2      OT      -0.834000       15.9994           0
     24883 TIP3     2056     TIP3     H1       HT       0.417000       1.00800           0
     24884 TIP3     2056     TIP3     H2       HT       0.417000       1.00800           0
     24885 TIP3     2057     TIP3     OH2      OT      -0.834000       15.9994           0
     24886 TIP3     2057     TIP3     H1       HT       0.417000       1.00800           0
     24887 TIP3     2057     TIP3     H2       HT       0.417000       1.00800           0
     24888 TIP3     2058     TIP3     OH2      OT      -0.834000       15.9994           0
     24889 TIP3     2058     TIP3     H1       HT       0.417000       1.00800           0
     24890 TIP3     2058     TIP3     H2       HT       0.417000       1.00800           0
     24891 TIP3     2059     TIP3     OH2      OT      -0.834000       15.9994           0
     24892 TIP3     2059     TIP3     H1       HT       0.417000       1.00800           0
     24893 TIP3     2059     TIP3     H2       HT       0.417000       1.00800           0
     24894 TIP3     2060     TIP3     OH2      OT      -0.834000       15.9994           0
     24895 TIP3     2060     TIP3     H1       HT       0.417000       1.00800           0
     24896 TIP3     2060     TIP3     H2       HT       0.417000       1.00800           0
     24897 TIP3     2061     TIP3     OH2      OT      -0.834000       15.9994           0
     24898 TIP3     2061     TIP3     H1       HT       0.417000       1.00800           0
     24899 TIP3     2061     TIP3     H2       HT       0.417000       1.00800           0
     24900 TIP3     2062     TIP3     OH2      OT      -0.834000       15.9994           0
     24901 TIP3     2062     TIP3     H1       HT       0.417000       1.00800           0
     24902 TIP3     2062     TIP3     H2       HT       0.417000       1.00800           0
     24903 TIP3     2063     TIP3     OH2      OT      -0.834000       15.9994           0
     24904 TIP3     2063     TIP3     H1       HT       0.417000       1.00800           0
     24905 TIP3     2063     TIP3     H2       HT       0.417000       1.00800           0
     24906 TIP3     2064     TIP3     OH2      OT      -0.834000       15.9994           0
     24907 TIP3     2064     TIP3     H1       HT       0.417000       1.00800           0
     24908 TIP3     2064     TIP3     H2       HT       0.417000       1.00800           0
     24909 TIP3     2065     TIP3     OH2      OT      -0.834000       15.9994           0
     24910 TIP3     2065     TIP3     H1       HT       0.417000       1.00800           0
     24911 TIP3     2065     TIP3     H2       HT       0.417000       1.00800           0
     24912 TIP3     2066     TIP3     OH2      OT      -0.834000       15.9994           0
     24913 TIP3     2066     TIP3     H1       HT       0.417000       1.00800           0
     24914 TIP3     2066     TIP3     H2       HT       0.417000       1.00800           0
     24915 TIP3     2067     TIP3     OH2      OT      -0.834000       15.9994           0
     24916 TIP3     2067     TIP3     H1       HT       0.417000       1.00800           0
     24917 TIP3     2067     TIP3     H2       HT       0.417000       1.00800           0
     24918 TIP3     2068     TIP3     OH2      OT      -0.834000       15.9994           0
     24919 TIP3     2068     TIP3     H1       HT       0.417000       1.00800           0
     24920 TIP3     2068     TIP3     H2       HT       0.417000       1.00800           0
     24921 TIP3     2069     TIP3     OH2      OT      -0.834000       15.9994           0
     24922 TIP3     2069     TIP3     H1       HT       0.417000       1.00800           0
     24923 TIP3     2069     TIP3     H2       HT       0.417000       1.00800           0
     24924 TIP3     2070     TIP3     OH2      OT      -0.834000       15.9994           0
     24925 TIP3     2070     TIP3     H1       HT       0.417000       1.00800           0
     24926 TIP3     2070     TIP3     H2       HT       0.417000       1.00800           0
     24927 TIP3     2071     TIP3     OH2      OT      -0.834000       15.9994           0
     24928 TIP3     2071     TIP3     H1       HT       0.417000       1.00800           0
     24929 TIP3     2071     TIP3     H2       HT       0.417000       1.00800           0
     24930 TIP3     2072     TIP3     OH2      OT      -0.834000       15.9994           0
     24931 TIP3     2072     TIP3     H1       HT       0.417000       1.00800           0
     24932 TIP3     2072     TIP3     H2       HT       0.417000       1.00800           0
     24933 TIP3     2073     TIP3     OH2      OT      -0.834000       15.9994           0
     24934 TIP3     2073     TIP3     H1       HT       0.417000       1.00800           0
     24935 TIP3     2073     TIP3     H2       HT       0.417000       1.00800           0
     24936 TIP3     2074     TIP3     OH2      OT      -0.834000       15.9994           0
     24937 TIP3     2074     TIP3     H1       HT       0.417000       1.00800           0
     24938 TIP3     2074     TIP3     H2       HT       0.417000       1.00800           0
     24939 TIP3     2075     TIP3     OH2      OT      -0.834000       15.9994           0
     24940 TIP3     2075     TIP3     H1       HT       0.417000       1.00800           0
     24941 TIP3     2075     TIP3     H2       HT       0.417000       1.00800           0
     24942 TIP3     2076     TIP3     OH2      OT      -0.834000       15.9994           0
     24943 TIP3     2076     TIP3     H1       HT       0.417000       1.00800           0
     24944 TIP3     2076     TIP3     H2       HT       0.417000       1.00800           0
     24945 TIP3     2077     TIP3     OH2      OT      -0.834000       15.9994           0
     24946 TIP3     2077     TIP3     H1       HT       0.417000       1.00800           0
     24947 TIP3     2077     TIP3     H2       HT       0.417000       1.00800           0
     24948 TIP3     2078     TIP3     OH2      OT      -0.834000       15.9994           0
     24949 TIP3     2078     TIP3     H1       HT       0.417000       1.00800           0
     24950 TIP3     2078     TIP3     H2       HT       0.417000       1.00800           0
     24951 TIP3     2079     TIP3     OH2      OT      -0.834000       15.9994           0
     24952 TIP3     2079     TIP3     H1       HT       0.417000       1.00800           0
     24953 TIP3     2079     TIP3     H2       HT       0.417000       1.00800           0
     24954 TIP3     2080     TIP3     OH2      OT      -0.834000       15.9994           0
     24955 TIP3     2080     TIP3     H1       HT       0.417000       1.00800           0
     24956 TIP3     2080     TIP3     H2       HT       0.417000       1.00800           0
     24957 TIP3     2081     TIP3     OH2      OT      -0.834000       15.9994           0
     24958 TIP3     2081     TIP3     H1       HT       0.417000       1.00800           0
     24959 TIP3     2081     TIP3     H2       HT       0.417000       1.00800           0
     24960 TIP3     2082     TIP3     OH2      OT      -0.834000       15.9994           0
     24961 TIP3     2082     TIP3     H1       HT       0.417000       1.00800           0
     24962 TIP3     2082     TIP3     H2       HT       0.417000       1.00800           0
     24963 TIP3     2083     TIP3     OH2      OT      -0.834000       15.9994           0
     24964 TIP3     2083     TIP3     H1       HT       0.417000       1.00800           0
     24965 TIP3     2083     TIP3     H2       HT       0.417000       1.00800           0
     24966 TIP3     2084     TIP3     OH2      OT      -0.834000       15.9994           0
     24967 TIP3     2084     TIP3     H1       HT       0.417000       1.00800           0
     24968 TIP3     2084     TIP3     H2       HT       0.417000       1.00800           0
     24969 TIP3     2085     TIP3     OH2      OT      -0.834000       15.9994           0
     24970 TIP3     2085     TIP3     H1       HT       0.417000       1.00800           0
     24971 TIP3     2085     TIP3     H2       HT       0.417000       1.00800           0
     24972 TIP3     2086     TIP3     OH2      OT      -0.834000       15.9994           0
     24973 TIP3     2086     TIP3     H1       HT       0.417000       1.00800           0
     24974 TIP3     2086     TIP3     H2       HT       0.417000       1.00800           0
     24975 TIP3     2087     TIP3     OH2      OT      -0.834000       15.9994           0
     24976 TIP3     2087     TIP3     H1       HT       0.417000       1.00800           0
     24977 TIP3     2087     TIP3     H2       HT       0.417000       1.00800           0
     24978 TIP3     2088     TIP3     OH2      OT      -0.834000       15.9994           0
     24979 TIP3     2088     TIP3     H1       HT       0.417000       1.00800           0
     24980 TIP3     2088     TIP3     H2       HT       0.417000       1.00800           0
     24981 TIP3     2089     TIP3     OH2      OT      -0.834000       15.9994           0
     24982 TIP3     2089     TIP3     H1       HT       0.417000       1.00800           0
     24983 TIP3     2089     TIP3     H2       HT       0.417000       1.00800           0
     24984 TIP3     2090     TIP3     OH2      OT      -0.834000       15.9994           0
     24985 TIP3     2090     TIP3     H1       HT       0.417000       1.00800           0
     24986 TIP3     2090     TIP3     H2       HT       0.417000       1.00800           0
     24987 TIP3     2091     TIP3     OH2      OT      -0.834000       15.9994           0
     24988 TIP3     2091     TIP3     H1       HT       0.417000       1.00800           0
     24989 TIP3     2091     TIP3     H2       HT       0.417000       1.00800           0
     24990 TIP3     2092     TIP3     OH2      OT      -0.834000       15.9994           0
     24991 TIP3     2092     TIP3     H1       HT       0.417000       1.00800           0
     24992 TIP3     2092     TIP3     H2       HT       0.417000       1.00800           0
     24993 TIP3     2093     TIP3     OH2      OT      -0.834000       15.9994           0
     24994 TIP3     2093     TIP3     H1       HT       0.417000       1.00800           0
     24995 TIP3     2093     TIP3     H2       HT       0.417000       1.00800           0
     24996 TIP3     2094     TIP3     OH2      OT      -0.834000       15.9994           0
     24997 TIP3     2094     TIP3     H1       HT       0.417000       1.00800           0
     24998 TIP3     2094     TIP3     H2       HT       0.417000       1.00800           0
     24999 TIP3     2095     TIP3     OH2      OT      -0.834000       15.9994           0
     25000 TIP3     2095     TIP3     H1       HT       0.417000       1.00800           0
     25001 TIP3     2095     TIP3     H2       HT       0.417000       1.00800           0
     25002 TIP3     2096     TIP3     OH2      OT      -0.834000       15.9994           0
     25003 TIP3     2096     TIP3     H1       HT       0.417000       1.00800           0
     25004 TIP3     2096     TIP3     H2       HT       0.417000       1.00800           0
     25005 TIP3     2097     TIP3     OH2      OT      -0.834000       15.9994           0
     25006 TIP3     2097     TIP3     H1       HT       0.417000       1.00800           0
     25007 TIP3     2097     TIP3     H2       HT       0.417000       1.00800           0
     25008 TIP3     2098     TIP3     OH2      OT      -0.834000       15.9994           0
     25009 TIP3     2098     TIP3     H1       HT       0.417000       1.00800           0
     25010 TIP3     2098     TIP3     H2       HT       0.417000       1.00800           0
     25011 TIP3     2099     TIP3     OH2      OT      -0.834000       15.9994           0
     25012 TIP3     2099     TIP3     H1       HT       0.417000       1.00800           0
     25013 TIP3     2099     TIP3     H2       HT       0.417000       1.00800           0
     25014 TIP3     2100     TIP3     OH2      OT      -0.834000       15.9994           0
     25015 TIP3     2100     TIP3     H1       HT       0.417000       1.00800           0
     25016 TIP3     2100     TIP3     H2       HT       0.417000       1.00800           0
     25017 TIP3     2101     TIP3     OH2      OT      -0.834000       15.9994           0
     25018 TIP3     2101     TIP3     H1       HT       0.417000       1.00800           0
     25019 TIP3     2101     TIP3     H2       HT       0.417000       1.00800           0
     25020 TIP3     2102     TIP3     OH2      OT      -0.834000       15.9994           0
     25021 TIP3     2102     TIP3     H1       HT       0.417000       1.00800           0
     25022 TIP3     2102     TIP3     H2       HT       0.417000       1.00800           0
     25023 TIP3     2103     TIP3     OH2      OT      -0.834000       15.9994           0
     25024 TIP3     2103     TIP3     H1       HT       0.417000       1.00800           0
     25025 TIP3     2103     TIP3     H2       HT       0.417000       1.00800           0
     25026 TIP3     2104     TIP3     OH2      OT      -0.834000       15.9994           0
     25027 TIP3     2104     TIP3     H1       HT       0.417000       1.00800           0
     25028 TIP3     2104     TIP3     H2       HT       0.417000       1.00800           0
     25029 TIP3     2105     TIP3     OH2      OT      -0.834000       15.9994           0
     25030 TIP3     2105     TIP3     H1       HT       0.417000       1.00800           0
     25031 TIP3     2105     TIP3     H2       HT       0.417000       1.00800           0
     25032 TIP3     2106     TIP3     OH2      OT      -0.834000       15.9994           0
     25033 TIP3     2106     TIP3     H1       HT       0.417000       1.00800           0
     25034 TIP3     2106     TIP3     H2       HT       0.417000       1.00800           0
     25035 TIP3     2107     TIP3     OH2      OT      -0.834000       15.9994           0
     25036 TIP3     2107     TIP3     H1       HT       0.417000       1.00800           0
     25037 TIP3     2107     TIP3     H2       HT       0.417000       1.00800           0
     25038 TIP3     2108     TIP3     OH2      OT      -0.834000       15.9994           0
     25039 TIP3     2108     TIP3     H1       HT       0.417000       1.00800           0
     25040 TIP3     2108     TIP3     H2       HT       0.417000       1.00800           0
     25041 TIP3     2109     TIP3     OH2      OT      -0.834000       15.9994           0
     25042 TIP3     2109     TIP3     H1       HT       0.417000       1.00800           0
     25043 TIP3     2109     TIP3     H2       HT       0.417000       1.00800           0
     25044 TIP3     2110     TIP3     OH2      OT      -0.834000       15.9994           0
     25045 TIP3     2110     TIP3     H1       HT       0.417000       1.00800           0
     25046 TIP3     2110     TIP3     H2       HT       0.417000       1.00800           0
     25047 TIP3     2111     TIP3     OH2      OT      -0.834000       15.9994           0
     25048 TIP3     2111     TIP3     H1       HT       0.417000       1.00800           0
     25049 TIP3     2111     TIP3     H2       HT       0.417000       1.00800           0
     25050 TIP3     2112     TIP3     OH2      OT      -0.834000       15.9994           0
     25051 TIP3     2112     TIP3     H1       HT       0.417000       1.00800           0
     25052 TIP3     2112     TIP3     H2       HT       0.417000       1.00800           0
     25053 TIP3     2113     TIP3     OH2      OT      -0.834000       15.9994           0
     25054 TIP3     2113     TIP3     H1       HT       0.417000       1.00800           0
     25055 TIP3     2113     TIP3     H2       HT       0.417000       1.00800           0
     25056 TIP3     2114     TIP3     OH2      OT      -0.834000       15.9994           0
     25057 TIP3     2114     TIP3     H1       HT       0.417000       1.00800           0
     25058 TIP3     2114     TIP3     H2       HT       0.417000       1.00800           0
     25059 TIP3     2115     TIP3     OH2      OT      -0.834000       15.9994           0
     25060 TIP3     2115     TIP3     H1       HT       0.417000       1.00800           0
     25061 TIP3     2115     TIP3     H2       HT       0.417000       1.00800           0
     25062 TIP3     2116     TIP3     OH2      OT      -0.834000       15.9994           0
     25063 TIP3     2116     TIP3     H1       HT       0.417000       1.00800           0
     25064 TIP3     2116     TIP3     H2       HT       0.417000       1.00800           0
     25065 TIP3     2117     TIP3     OH2      OT      -0.834000       15.9994           0
     25066 TIP3     2117     TIP3     H1       HT       0.417000       1.00800           0
     25067 TIP3     2117     TIP3     H2       HT       0.417000       1.00800           0
     25068 TIP3     2118     TIP3     OH2      OT      -0.834000       15.9994           0
     25069 TIP3     2118     TIP3     H1       HT       0.417000       1.00800           0
     25070 TIP3     2118     TIP3     H2       HT       0.417000       1.00800           0
     25071 TIP3     2119     TIP3     OH2      OT      -0.834000       15.9994           0
     25072 TIP3     2119     TIP3     H1       HT       0.417000       1.00800           0
     25073 TIP3     2119     TIP3     H2       HT       0.417000       1.00800           0
     25074 TIP3     2120     TIP3     OH2      OT      -0.834000       15.9994           0
     25075 TIP3     2120     TIP3     H1       HT       0.417000       1.00800           0
     25076 TIP3     2120     TIP3     H2       HT       0.417000       1.00800           0
     25077 TIP3     2121     TIP3     OH2      OT      -0.834000       15.9994           0
     25078 TIP3     2121     TIP3     H1       HT       0.417000       1.00800           0
     25079 TIP3     2121     TIP3     H2       HT       0.417000       1.00800           0
     25080 TIP3     2122     TIP3     OH2      OT      -0.834000       15.9994           0
     25081 TIP3     2122     TIP3     H1       HT       0.417000       1.00800           0
     25082 TIP3     2122     TIP3     H2       HT       0.417000       1.00800           0
     25083 TIP3     2123     TIP3     OH2      OT      -0.834000       15.9994           0
     25084 TIP3     2123     TIP3     H1       HT       0.417000       1.00800           0
     25085 TIP3     2123     TIP3     H2       HT       0.417000       1.00800           0
     25086 TIP3     2124     TIP3     OH2      OT      -0.834000       15.9994           0
     25087 TIP3     2124     TIP3     H1       HT       0.417000       1.00800           0
     25088 TIP3     2124     TIP3     H2       HT       0.417000       1.00800           0
     25089 TIP3     2125     TIP3     OH2      OT      -0.834000       15.9994           0
     25090 TIP3     2125     TIP3     H1       HT       0.417000       1.00800           0
     25091 TIP3     2125     TIP3     H2       HT       0.417000       1.00800           0
     25092 TIP3     2126     TIP3     OH2      OT      -0.834000       15.9994           0
     25093 TIP3     2126     TIP3     H1       HT       0.417000       1.00800           0
     25094 TIP3     2126     TIP3     H2       HT       0.417000       1.00800           0
     25095 TIP3     2127     TIP3     OH2      OT      -0.834000       15.9994           0
     25096 TIP3     2127     TIP3     H1       HT       0.417000       1.00800           0
     25097 TIP3     2127     TIP3     H2       HT       0.417000       1.00800           0
     25098 TIP3     2128     TIP3     OH2      OT      -0.834000       15.9994           0
     25099 TIP3     2128     TIP3     H1       HT       0.417000       1.00800           0
     25100 TIP3     2128     TIP3     H2       HT       0.417000       1.00800           0
     25101 TIP3     2129     TIP3     OH2      OT      -0.834000       15.9994           0
     25102 TIP3     2129     TIP3     H1       HT       0.417000       1.00800           0
     25103 TIP3     2129     TIP3     H2       HT       0.417000       1.00800           0
     25104 TIP3     2130     TIP3     OH2      OT      -0.834000       15.9994           0
     25105 TIP3     2130     TIP3     H1       HT       0.417000       1.00800           0
     25106 TIP3     2130     TIP3     H2       HT       0.417000       1.00800           0
     25107 TIP3     2131     TIP3     OH2      OT      -0.834000       15.9994           0
     25108 TIP3     2131     TIP3     H1       HT       0.417000       1.00800           0
     25109 TIP3     2131     TIP3     H2       HT       0.417000       1.00800           0
     25110 TIP3     2132     TIP3     OH2      OT      -0.834000       15.9994           0
     25111 TIP3     2132     TIP3     H1       HT       0.417000       1.00800           0
     25112 TIP3     2132     TIP3     H2       HT       0.417000       1.00800           0
     25113 TIP3     2133     TIP3     OH2      OT      -0.834000       15.9994           0
     25114 TIP3     2133     TIP3     H1       HT       0.417000       1.00800           0
     25115 TIP3     2133     TIP3     H2       HT       0.417000       1.00800           0
     25116 TIP3     2134     TIP3     OH2      OT      -0.834000       15.9994           0
     25117 TIP3     2134     TIP3     H1       HT       0.417000       1.00800           0
     25118 TIP3     2134     TIP3     H2       HT       0.417000       1.00800           0
     25119 TIP3     2135     TIP3     OH2      OT      -0.834000       15.9994           0
     25120 TIP3     2135     TIP3     H1       HT       0.417000       1.00800           0
     25121 TIP3     2135     TIP3     H2       HT       0.417000       1.00800           0
     25122 TIP3     2136     TIP3     OH2      OT      -0.834000       15.9994           0
     25123 TIP3     2136     TIP3     H1       HT       0.417000       1.00800           0
     25124 TIP3     2136     TIP3     H2       HT       0.417000       1.00800           0
     25125 TIP3     2137     TIP3     OH2      OT      -0.834000       15.9994           0
     25126 TIP3     2137     TIP3     H1       HT       0.417000       1.00800           0
     25127 TIP3     2137     TIP3     H2       HT       0.417000       1.00800           0
     25128 TIP3     2138     TIP3     OH2      OT      -0.834000       15.9994           0
     25129 TIP3     2138     TIP3     H1       HT       0.417000       1.00800           0
     25130 TIP3     2138     TIP3     H2       HT       0.417000       1.00800           0
     25131 TIP3     2139     TIP3     OH2      OT      -0.834000       15.9994           0
     25132 TIP3     2139     TIP3     H1       HT       0.417000       1.00800           0
     25133 TIP3     2139     TIP3     H2       HT       0.417000       1.00800           0
     25134 TIP3     2140     TIP3     OH2      OT      -0.834000       15.9994           0
     25135 TIP3     2140     TIP3     H1       HT       0.417000       1.00800           0
     25136 TIP3     2140     TIP3     H2       HT       0.417000       1.00800           0
     25137 TIP3     2141     TIP3     OH2      OT      -0.834000       15.9994           0
     25138 TIP3     2141     TIP3     H1       HT       0.417000       1.00800           0
     25139 TIP3     2141     TIP3     H2       HT       0.417000       1.00800           0
     25140 TIP3     2142     TIP3     OH2      OT      -0.834000       15.9994           0
     25141 TIP3     2142     TIP3     H1       HT       0.417000       1.00800           0
     25142 TIP3     2142     TIP3     H2       HT       0.417000       1.00800           0
     25143 TIP3     2143     TIP3     OH2      OT      -0.834000       15.9994           0
     25144 TIP3     2143     TIP3     H1       HT       0.417000       1.00800           0
     25145 TIP3     2143     TIP3     H2       HT       0.417000       1.00800           0
     25146 TIP3     2144     TIP3     OH2      OT      -0.834000       15.9994           0
     25147 TIP3     2144     TIP3     H1       HT       0.417000       1.00800           0
     25148 TIP3     2144     TIP3     H2       HT       0.417000       1.00800           0
     25149 TIP3     2145     TIP3     OH2      OT      -0.834000       15.9994           0
     25150 TIP3     2145     TIP3     H1       HT       0.417000       1.00800           0
     25151 TIP3     2145     TIP3     H2       HT       0.417000       1.00800           0
     25152 TIP3     2146     TIP3     OH2      OT      -0.834000       15.9994           0
     25153 TIP3     2146     TIP3     H1       HT       0.417000       1.00800           0
     25154 TIP3     2146     TIP3     H2       HT       0.417000       1.00800           0
     25155 TIP3     2147     TIP3     OH2      OT      -0.834000       15.9994           0
     25156 TIP3     2147     TIP3     H1       HT       0.417000       1.00800           0
     25157 TIP3     2147     TIP3     H2       HT       0.417000       1.00800           0
     25158 TIP3     2148     TIP3     OH2      OT      -0.834000       15.9994           0
     25159 TIP3     2148     TIP3     H1       HT       0.417000       1.00800           0
     25160 TIP3     2148     TIP3     H2       HT       0.417000       1.00800           0
     25161 TIP3     2149     TIP3     OH2      OT      -0.834000       15.9994           0
     25162 TIP3     2149     TIP3     H1       HT       0.417000       1.00800           0
     25163 TIP3     2149     TIP3     H2       HT       0.417000       1.00800           0
     25164 TIP3     2150     TIP3     OH2      OT      -0.834000       15.9994           0
     25165 TIP3     2150     TIP3     H1       HT       0.417000       1.00800           0
     25166 TIP3     2150     TIP3     H2       HT       0.417000       1.00800           0
     25167 TIP3     2151     TIP3     OH2      OT      -0.834000       15.9994           0
     25168 TIP3     2151     TIP3     H1       HT       0.417000       1.00800           0
     25169 TIP3     2151     TIP3     H2       HT       0.417000       1.00800           0
     25170 TIP3     2152     TIP3     OH2      OT      -0.834000       15.9994           0
     25171 TIP3     2152     TIP3     H1       HT       0.417000       1.00800           0
     25172 TIP3     2152     TIP3     H2       HT       0.417000       1.00800           0
     25173 TIP3     2153     TIP3     OH2      OT      -0.834000       15.9994           0
     25174 TIP3     2153     TIP3     H1       HT       0.417000       1.00800           0
     25175 TIP3     2153     TIP3     H2       HT       0.417000       1.00800           0
     25176 TIP3     2154     TIP3     OH2      OT      -0.834000       15.9994           0
     25177 TIP3     2154     TIP3     H1       HT       0.417000       1.00800           0
     25178 TIP3     2154     TIP3     H2       HT       0.417000       1.00800           0
     25179 TIP3     2155     TIP3     OH2      OT      -0.834000       15.9994           0
     25180 TIP3     2155     TIP3     H1       HT       0.417000       1.00800           0
     25181 TIP3     2155     TIP3     H2       HT       0.417000       1.00800           0
     25182 TIP3     2156     TIP3     OH2      OT      -0.834000       15.9994           0
     25183 TIP3     2156     TIP3     H1       HT       0.417000       1.00800           0
     25184 TIP3     2156     TIP3     H2       HT       0.417000       1.00800           0
     25185 TIP3     2157     TIP3     OH2      OT      -0.834000       15.9994           0
     25186 TIP3     2157     TIP3     H1       HT       0.417000       1.00800           0
     25187 TIP3     2157     TIP3     H2       HT       0.417000       1.00800           0
     25188 TIP3     2158     TIP3     OH2      OT      -0.834000       15.9994           0
     25189 TIP3     2158     TIP3     H1       HT       0.417000       1.00800           0
     25190 TIP3     2158     TIP3     H2       HT       0.417000       1.00800           0
     25191 TIP3     2159     TIP3     OH2      OT      -0.834000       15.9994           0
     25192 TIP3     2159     TIP3     H1       HT       0.417000       1.00800           0
     25193 TIP3     2159     TIP3     H2       HT       0.417000       1.00800           0
     25194 TIP3     2160     TIP3     OH2      OT      -0.834000       15.9994           0
     25195 TIP3     2160     TIP3     H1       HT       0.417000       1.00800           0
     25196 TIP3     2160     TIP3     H2       HT       0.417000       1.00800           0
     25197 TIP3     2161     TIP3     OH2      OT      -0.834000       15.9994           0
     25198 TIP3     2161     TIP3     H1       HT       0.417000       1.00800           0
     25199 TIP3     2161     TIP3     H2       HT       0.417000       1.00800           0
     25200 TIP3     2162     TIP3     OH2      OT      -0.834000       15.9994           0
     25201 TIP3     2162     TIP3     H1       HT       0.417000       1.00800           0
     25202 TIP3     2162     TIP3     H2       HT       0.417000       1.00800           0
     25203 TIP3     2163     TIP3     OH2      OT      -0.834000       15.9994           0
     25204 TIP3     2163     TIP3     H1       HT       0.417000       1.00800           0
     25205 TIP3     2163     TIP3     H2       HT       0.417000       1.00800           0
     25206 TIP3     2164     TIP3     OH2      OT      -0.834000       15.9994           0
     25207 TIP3     2164     TIP3     H1       HT       0.417000       1.00800           0
     25208 TIP3     2164     TIP3     H2       HT       0.417000       1.00800           0
     25209 TIP3     2165     TIP3     OH2      OT      -0.834000       15.9994           0
     25210 TIP3     2165     TIP3     H1       HT       0.417000       1.00800           0
     25211 TIP3     2165     TIP3     H2       HT       0.417000       1.00800           0
     25212 TIP3     2166     TIP3     OH2      OT      -0.834000       15.9994           0
     25213 TIP3     2166     TIP3     H1       HT       0.417000       1.00800           0
     25214 TIP3     2166     TIP3     H2       HT       0.417000       1.00800           0
     25215 TIP3     2167     TIP3     OH2      OT      -0.834000       15.9994           0
     25216 TIP3     2167     TIP3     H1       HT       0.417000       1.00800           0
     25217 TIP3     2167     TIP3     H2       HT       0.417000       1.00800           0
     25218 TIP3     2168     TIP3     OH2      OT      -0.834000       15.9994           0
     25219 TIP3     2168     TIP3     H1       HT       0.417000       1.00800           0
     25220 TIP3     2168     TIP3     H2       HT       0.417000       1.00800           0
     25221 TIP3     2169     TIP3     OH2      OT      -0.834000       15.9994           0
     25222 TIP3     2169     TIP3     H1       HT       0.417000       1.00800           0
     25223 TIP3     2169     TIP3     H2       HT       0.417000       1.00800           0
     25224 TIP3     2170     TIP3     OH2      OT      -0.834000       15.9994           0
     25225 TIP3     2170     TIP3     H1       HT       0.417000       1.00800           0
     25226 TIP3     2170     TIP3     H2       HT       0.417000       1.00800           0
     25227 TIP3     2171     TIP3     OH2      OT      -0.834000       15.9994           0
     25228 TIP3     2171     TIP3     H1       HT       0.417000       1.00800           0
     25229 TIP3     2171     TIP3     H2       HT       0.417000       1.00800           0
     25230 TIP3     2172     TIP3     OH2      OT      -0.834000       15.9994           0
     25231 TIP3     2172     TIP3     H1       HT       0.417000       1.00800           0
     25232 TIP3     2172     TIP3     H2       HT       0.417000       1.00800           0
     25233 TIP3     2173     TIP3     OH2      OT      -0.834000       15.9994           0
     25234 TIP3     2173     TIP3     H1       HT       0.417000       1.00800           0
     25235 TIP3     2173     TIP3     H2       HT       0.417000       1.00800           0
     25236 TIP3     2174     TIP3     OH2      OT      -0.834000       15.9994           0
     25237 TIP3     2174     TIP3     H1       HT       0.417000       1.00800           0
     25238 TIP3     2174     TIP3     H2       HT       0.417000       1.00800           0
     25239 TIP3     2175     TIP3     OH2      OT      -0.834000       15.9994           0
     25240 TIP3     2175     TIP3     H1       HT       0.417000       1.00800           0
     25241 TIP3     2175     TIP3     H2       HT       0.417000       1.00800           0
     25242 TIP3     2176     TIP3     OH2      OT      -0.834000       15.9994           0
     25243 TIP3     2176     TIP3     H1       HT       0.417000       1.00800           0
     25244 TIP3     2176     TIP3     H2       HT       0.417000       1.00800           0
     25245 TIP3     2177     TIP3     OH2      OT      -0.834000       15.9994           0
     25246 TIP3     2177     TIP3     H1       HT       0.417000       1.00800           0
     25247 TIP3     2177     TIP3     H2       HT       0.417000       1.00800           0
     25248 TIP3     2178     TIP3     OH2      OT      -0.834000       15.9994           0
     25249 TIP3     2178     TIP3     H1       HT       0.417000       1.00800           0
     25250 TIP3     2178     TIP3     H2       HT       0.417000       1.00800           0
     25251 TIP3     2179     TIP3     OH2      OT      -0.834000       15.9994           0
     25252 TIP3     2179     TIP3     H1       HT       0.417000       1.00800           0
     25253 TIP3     2179     TIP3     H2       HT       0.417000       1.00800           0
     25254 TIP3     2180     TIP3     OH2      OT      -0.834000       15.9994           0
     25255 TIP3     2180     TIP3     H1       HT       0.417000       1.00800           0
     25256 TIP3     2180     TIP3     H2       HT       0.417000       1.00800           0
     25257 TIP3     2181     TIP3     OH2      OT      -0.834000       15.9994           0
     25258 TIP3     2181     TIP3     H1       HT       0.417000       1.00800           0
     25259 TIP3     2181     TIP3     H2       HT       0.417000       1.00800           0
     25260 TIP3     2182     TIP3     OH2      OT      -0.834000       15.9994           0
     25261 TIP3     2182     TIP3     H1       HT       0.417000       1.00800           0
     25262 TIP3     2182     TIP3     H2       HT       0.417000       1.00800           0
     25263 TIP3     2183     TIP3     OH2      OT      -0.834000       15.9994           0
     25264 TIP3     2183     TIP3     H1       HT       0.417000       1.00800           0
     25265 TIP3     2183     TIP3     H2       HT       0.417000       1.00800           0
     25266 TIP3     2184     TIP3     OH2      OT      -0.834000       15.9994           0
     25267 TIP3     2184     TIP3     H1       HT       0.417000       1.00800           0
     25268 TIP3     2184     TIP3     H2       HT       0.417000       1.00800           0
     25269 TIP3     2185     TIP3     OH2      OT      -0.834000       15.9994           0
     25270 TIP3     2185     TIP3     H1       HT       0.417000       1.00800           0
     25271 TIP3     2185     TIP3     H2       HT       0.417000       1.00800           0
     25272 TIP3     2186     TIP3     OH2      OT      -0.834000       15.9994           0
     25273 TIP3     2186     TIP3     H1       HT       0.417000       1.00800           0
     25274 TIP3     2186     TIP3     H2       HT       0.417000       1.00800           0
     25275 TIP3     2187     TIP3     OH2      OT      -0.834000       15.9994           0
     25276 TIP3     2187     TIP3     H1       HT       0.417000       1.00800           0
     25277 TIP3     2187     TIP3     H2       HT       0.417000       1.00800           0
     25278 TIP3     2188     TIP3     OH2      OT      -0.834000       15.9994           0
     25279 TIP3     2188     TIP3     H1       HT       0.417000       1.00800           0
     25280 TIP3     2188     TIP3     H2       HT       0.417000       1.00800           0
     25281 TIP3     2189     TIP3     OH2      OT      -0.834000       15.9994           0
     25282 TIP3     2189     TIP3     H1       HT       0.417000       1.00800           0
     25283 TIP3     2189     TIP3     H2       HT       0.417000       1.00800           0
     25284 TIP3     2190     TIP3     OH2      OT      -0.834000       15.9994           0
     25285 TIP3     2190     TIP3     H1       HT       0.417000       1.00800           0
     25286 TIP3     2190     TIP3     H2       HT       0.417000       1.00800           0
     25287 TIP3     2191     TIP3     OH2      OT      -0.834000       15.9994           0
     25288 TIP3     2191     TIP3     H1       HT       0.417000       1.00800           0
     25289 TIP3     2191     TIP3     H2       HT       0.417000       1.00800           0
     25290 TIP3     2192     TIP3     OH2      OT      -0.834000       15.9994           0
     25291 TIP3     2192     TIP3     H1       HT       0.417000       1.00800           0
     25292 TIP3     2192     TIP3     H2       HT       0.417000       1.00800           0
     25293 TIP3     2193     TIP3     OH2      OT      -0.834000       15.9994           0
     25294 TIP3     2193     TIP3     H1       HT       0.417000       1.00800           0
     25295 TIP3     2193     TIP3     H2       HT       0.417000       1.00800           0
     25296 TIP3     2194     TIP3     OH2      OT      -0.834000       15.9994           0
     25297 TIP3     2194     TIP3     H1       HT       0.417000       1.00800           0
     25298 TIP3     2194     TIP3     H2       HT       0.417000       1.00800           0
     25299 TIP3     2195     TIP3     OH2      OT      -0.834000       15.9994           0
     25300 TIP3     2195     TIP3     H1       HT       0.417000       1.00800           0
     25301 TIP3     2195     TIP3     H2       HT       0.417000       1.00800           0
     25302 TIP3     2196     TIP3     OH2      OT      -0.834000       15.9994           0
     25303 TIP3     2196     TIP3     H1       HT       0.417000       1.00800           0
     25304 TIP3     2196     TIP3     H2       HT       0.417000       1.00800           0
     25305 TIP3     2197     TIP3     OH2      OT      -0.834000       15.9994           0
     25306 TIP3     2197     TIP3     H1       HT       0.417000       1.00800           0
     25307 TIP3     2197     TIP3     H2       HT       0.417000       1.00800           0
     25308 TIP3     2198     TIP3     OH2      OT      -0.834000       15.9994           0
     25309 TIP3     2198     TIP3     H1       HT       0.417000       1.00800           0
     25310 TIP3     2198     TIP3     H2       HT       0.417000       1.00800           0
     25311 TIP3     2199     TIP3     OH2      OT      -0.834000       15.9994           0
     25312 TIP3     2199     TIP3     H1       HT       0.417000       1.00800           0
     25313 TIP3     2199     TIP3     H2       HT       0.417000       1.00800           0
     25314 TIP3     2200     TIP3     OH2      OT      -0.834000       15.9994           0
     25315 TIP3     2200     TIP3     H1       HT       0.417000       1.00800           0
     25316 TIP3     2200     TIP3     H2       HT       0.417000       1.00800           0
     25317 TIP3     2201     TIP3     OH2      OT      -0.834000       15.9994           0
     25318 TIP3     2201     TIP3     H1       HT       0.417000       1.00800           0
     25319 TIP3     2201     TIP3     H2       HT       0.417000       1.00800           0
     25320 TIP3     2202     TIP3     OH2      OT      -0.834000       15.9994           0
     25321 TIP3     2202     TIP3     H1       HT       0.417000       1.00800           0
     25322 TIP3     2202     TIP3     H2       HT       0.417000       1.00800           0
     25323 TIP3     2203     TIP3     OH2      OT      -0.834000       15.9994           0
     25324 TIP3     2203     TIP3     H1       HT       0.417000       1.00800           0
     25325 TIP3     2203     TIP3     H2       HT       0.417000       1.00800           0
     25326 TIP3     2204     TIP3     OH2      OT      -0.834000       15.9994           0
     25327 TIP3     2204     TIP3     H1       HT       0.417000       1.00800           0
     25328 TIP3     2204     TIP3     H2       HT       0.417000       1.00800           0
     25329 TIP3     2205     TIP3     OH2      OT      -0.834000       15.9994           0
     25330 TIP3     2205     TIP3     H1       HT       0.417000       1.00800           0
     25331 TIP3     2205     TIP3     H2       HT       0.417000       1.00800           0
     25332 TIP3     2206     TIP3     OH2      OT      -0.834000       15.9994           0
     25333 TIP3     2206     TIP3     H1       HT       0.417000       1.00800           0
     25334 TIP3     2206     TIP3     H2       HT       0.417000       1.00800           0
     25335 TIP3     2207     TIP3     OH2      OT      -0.834000       15.9994           0
     25336 TIP3     2207     TIP3     H1       HT       0.417000       1.00800           0
     25337 TIP3     2207     TIP3     H2       HT       0.417000       1.00800           0
     25338 TIP3     2208     TIP3     OH2      OT      -0.834000       15.9994           0
     25339 TIP3     2208     TIP3     H1       HT       0.417000       1.00800           0
     25340 TIP3     2208     TIP3     H2       HT       0.417000       1.00800           0
     25341 TIP3     2209     TIP3     OH2      OT      -0.834000       15.9994           0
     25342 TIP3     2209     TIP3     H1       HT       0.417000       1.00800           0
     25343 TIP3     2209     TIP3     H2       HT       0.417000       1.00800           0
     25344 TIP3     2210     TIP3     OH2      OT      -0.834000       15.9994           0
     25345 TIP3     2210     TIP3     H1       HT       0.417000       1.00800           0
     25346 TIP3     2210     TIP3     H2       HT       0.417000       1.00800           0
     25347 TIP3     2211     TIP3     OH2      OT      -0.834000       15.9994           0
     25348 TIP3     2211     TIP3     H1       HT       0.417000       1.00800           0
     25349 TIP3     2211     TIP3     H2       HT       0.417000       1.00800           0
     25350 TIP3     2212     TIP3     OH2      OT      -0.834000       15.9994           0
     25351 TIP3     2212     TIP3     H1       HT       0.417000       1.00800           0
     25352 TIP3     2212     TIP3     H2       HT       0.417000       1.00800           0
     25353 TIP3     2213     TIP3     OH2      OT      -0.834000       15.9994           0
     25354 TIP3     2213     TIP3     H1       HT       0.417000       1.00800           0
     25355 TIP3     2213     TIP3     H2       HT       0.417000       1.00800           0
     25356 TIP3     2214     TIP3     OH2      OT      -0.834000       15.9994           0
     25357 TIP3     2214     TIP3     H1       HT       0.417000       1.00800           0
     25358 TIP3     2214     TIP3     H2       HT       0.417000       1.00800           0
     25359 TIP3     2215     TIP3     OH2      OT      -0.834000       15.9994           0
     25360 TIP3     2215     TIP3     H1       HT       0.417000       1.00800           0
     25361 TIP3     2215     TIP3     H2       HT       0.417000       1.00800           0
     25362 TIP3     2216     TIP3     OH2      OT      -0.834000       15.9994           0
     25363 TIP3     2216     TIP3     H1       HT       0.417000       1.00800           0
     25364 TIP3     2216     TIP3     H2       HT       0.417000       1.00800           0
     25365 TIP3     2217     TIP3     OH2      OT      -0.834000       15.9994           0
     25366 TIP3     2217     TIP3     H1       HT       0.417000       1.00800           0
     25367 TIP3     2217     TIP3     H2       HT       0.417000       1.00800           0
     25368 TIP3     2218     TIP3     OH2      OT      -0.834000       15.9994           0
     25369 TIP3     2218     TIP3     H1       HT       0.417000       1.00800           0
     25370 TIP3     2218     TIP3     H2       HT       0.417000       1.00800           0
     25371 TIP3     2219     TIP3     OH2      OT      -0.834000       15.9994           0
     25372 TIP3     2219     TIP3     H1       HT       0.417000       1.00800           0
     25373 TIP3     2219     TIP3     H2       HT       0.417000       1.00800           0
     25374 TIP3     2220     TIP3     OH2      OT      -0.834000       15.9994           0
     25375 TIP3     2220     TIP3     H1       HT       0.417000       1.00800           0
     25376 TIP3     2220     TIP3     H2       HT       0.417000       1.00800           0
     25377 TIP3     2221     TIP3     OH2      OT      -0.834000       15.9994           0
     25378 TIP3     2221     TIP3     H1       HT       0.417000       1.00800           0
     25379 TIP3     2221     TIP3     H2       HT       0.417000       1.00800           0
     25380 TIP3     2222     TIP3     OH2      OT      -0.834000       15.9994           0
     25381 TIP3     2222     TIP3     H1       HT       0.417000       1.00800           0
     25382 TIP3     2222     TIP3     H2       HT       0.417000       1.00800           0
     25383 TIP3     2223     TIP3     OH2      OT      -0.834000       15.9994           0
     25384 TIP3     2223     TIP3     H1       HT       0.417000       1.00800           0
     25385 TIP3     2223     TIP3     H2       HT       0.417000       1.00800           0
     25386 TIP3     2224     TIP3     OH2      OT      -0.834000       15.9994           0
     25387 TIP3     2224     TIP3     H1       HT       0.417000       1.00800           0
     25388 TIP3     2224     TIP3     H2       HT       0.417000       1.00800           0
     25389 TIP3     2225     TIP3     OH2      OT      -0.834000       15.9994           0
     25390 TIP3     2225     TIP3     H1       HT       0.417000       1.00800           0
     25391 TIP3     2225     TIP3     H2       HT       0.417000       1.00800           0
     25392 TIP3     2226     TIP3     OH2      OT      -0.834000       15.9994           0
     25393 TIP3     2226     TIP3     H1       HT       0.417000       1.00800           0
     25394 TIP3     2226     TIP3     H2       HT       0.417000       1.00800           0
     25395 TIP3     2227     TIP3     OH2      OT      -0.834000       15.9994           0
     25396 TIP3     2227     TIP3     H1       HT       0.417000       1.00800           0
     25397 TIP3     2227     TIP3     H2       HT       0.417000       1.00800           0
     25398 TIP3     2228     TIP3     OH2      OT      -0.834000       15.9994           0
     25399 TIP3     2228     TIP3     H1       HT       0.417000       1.00800           0
     25400 TIP3     2228     TIP3     H2       HT       0.417000       1.00800           0
     25401 TIP3     2229     TIP3     OH2      OT      -0.834000       15.9994           0
     25402 TIP3     2229     TIP3     H1       HT       0.417000       1.00800           0
     25403 TIP3     2229     TIP3     H2       HT       0.417000       1.00800           0
     25404 TIP3     2230     TIP3     OH2      OT      -0.834000       15.9994           0
     25405 TIP3     2230     TIP3     H1       HT       0.417000       1.00800           0
     25406 TIP3     2230     TIP3     H2       HT       0.417000       1.00800           0
     25407 TIP3     2231     TIP3     OH2      OT      -0.834000       15.9994           0
     25408 TIP3     2231     TIP3     H1       HT       0.417000       1.00800           0
     25409 TIP3     2231     TIP3     H2       HT       0.417000       1.00800           0
     25410 TIP3     2232     TIP3     OH2      OT      -0.834000       15.9994           0
     25411 TIP3     2232     TIP3     H1       HT       0.417000       1.00800           0
     25412 TIP3     2232     TIP3     H2       HT       0.417000       1.00800           0
     25413 TIP3     2233     TIP3     OH2      OT      -0.834000       15.9994           0
     25414 TIP3     2233     TIP3     H1       HT       0.417000       1.00800           0
     25415 TIP3     2233     TIP3     H2       HT       0.417000       1.00800           0
     25416 TIP3     2234     TIP3     OH2      OT      -0.834000       15.9994           0
     25417 TIP3     2234     TIP3     H1       HT       0.417000       1.00800           0
     25418 TIP3     2234     TIP3     H2       HT       0.417000       1.00800           0
     25419 TIP3     2235     TIP3     OH2      OT      -0.834000       15.9994           0
     25420 TIP3     2235     TIP3     H1       HT       0.417000       1.00800           0
     25421 TIP3     2235     TIP3     H2       HT       0.417000       1.00800           0
     25422 TIP3     2236     TIP3     OH2      OT      -0.834000       15.9994           0
     25423 TIP3     2236     TIP3     H1       HT       0.417000       1.00800           0
     25424 TIP3     2236     TIP3     H2       HT       0.417000       1.00800           0
     25425 TIP3     2237     TIP3     OH2      OT      -0.834000       15.9994           0
     25426 TIP3     2237     TIP3     H1       HT       0.417000       1.00800           0
     25427 TIP3     2237     TIP3     H2       HT       0.417000       1.00800           0
     25428 TIP3     2238     TIP3     OH2      OT      -0.834000       15.9994           0
     25429 TIP3     2238     TIP3     H1       HT       0.417000       1.00800           0
     25430 TIP3     2238     TIP3     H2       HT       0.417000       1.00800           0
     25431 TIP3     2239     TIP3     OH2      OT      -0.834000       15.9994           0
     25432 TIP3     2239     TIP3     H1       HT       0.417000       1.00800           0
     25433 TIP3     2239     TIP3     H2       HT       0.417000       1.00800           0
     25434 TIP3     2240     TIP3     OH2      OT      -0.834000       15.9994           0
     25435 TIP3     2240     TIP3     H1       HT       0.417000       1.00800           0
     25436 TIP3     2240     TIP3     H2       HT       0.417000       1.00800           0
     25437 TIP3     2241     TIP3     OH2      OT      -0.834000       15.9994           0
     25438 TIP3     2241     TIP3     H1       HT       0.417000       1.00800           0
     25439 TIP3     2241     TIP3     H2       HT       0.417000       1.00800           0
     25440 TIP3     2242     TIP3     OH2      OT      -0.834000       15.9994           0
     25441 TIP3     2242     TIP3     H1       HT       0.417000       1.00800           0
     25442 TIP3     2242     TIP3     H2       HT       0.417000       1.00800           0
     25443 TIP3     2243     TIP3     OH2      OT      -0.834000       15.9994           0
     25444 TIP3     2243     TIP3     H1       HT       0.417000       1.00800           0
     25445 TIP3     2243     TIP3     H2       HT       0.417000       1.00800           0
     25446 TIP3     2244     TIP3     OH2      OT      -0.834000       15.9994           0
     25447 TIP3     2244     TIP3     H1       HT       0.417000       1.00800           0
     25448 TIP3     2244     TIP3     H2       HT       0.417000       1.00800           0
     25449 TIP3     2245     TIP3     OH2      OT      -0.834000       15.9994           0
     25450 TIP3     2245     TIP3     H1       HT       0.417000       1.00800           0
     25451 TIP3     2245     TIP3     H2       HT       0.417000       1.00800           0
     25452 TIP3     2246     TIP3     OH2      OT      -0.834000       15.9994           0
     25453 TIP3     2246     TIP3     H1       HT       0.417000       1.00800           0
     25454 TIP3     2246     TIP3     H2       HT       0.417000       1.00800           0
     25455 TIP3     2247     TIP3     OH2      OT      -0.834000       15.9994           0
     25456 TIP3     2247     TIP3     H1       HT       0.417000       1.00800           0
     25457 TIP3     2247     TIP3     H2       HT       0.417000       1.00800           0
     25458 TIP3     2248     TIP3     OH2      OT      -0.834000       15.9994           0
     25459 TIP3     2248     TIP3     H1       HT       0.417000       1.00800           0
     25460 TIP3     2248     TIP3     H2       HT       0.417000       1.00800           0
     25461 TIP3     2249     TIP3     OH2      OT      -0.834000       15.9994           0
     25462 TIP3     2249     TIP3     H1       HT       0.417000       1.00800           0
     25463 TIP3     2249     TIP3     H2       HT       0.417000       1.00800           0
     25464 TIP3     2250     TIP3     OH2      OT      -0.834000       15.9994           0
     25465 TIP3     2250     TIP3     H1       HT       0.417000       1.00800           0
     25466 TIP3     2250     TIP3     H2       HT       0.417000       1.00800           0
     25467 TIP3     2251     TIP3     OH2      OT      -0.834000       15.9994           0
     25468 TIP3     2251     TIP3     H1       HT       0.417000       1.00800           0
     25469 TIP3     2251     TIP3     H2       HT       0.417000       1.00800           0
     25470 TIP3     2252     TIP3     OH2      OT      -0.834000       15.9994           0
     25471 TIP3     2252     TIP3     H1       HT       0.417000       1.00800           0
     25472 TIP3     2252     TIP3     H2       HT       0.417000       1.00800           0
     25473 TIP3     2253     TIP3     OH2      OT      -0.834000       15.9994           0
     25474 TIP3     2253     TIP3     H1       HT       0.417000       1.00800           0
     25475 TIP3     2253     TIP3     H2       HT       0.417000       1.00800           0
     25476 TIP3     2254     TIP3     OH2      OT      -0.834000       15.9994           0
     25477 TIP3     2254     TIP3     H1       HT       0.417000       1.00800           0
     25478 TIP3     2254     TIP3     H2       HT       0.417000       1.00800           0
     25479 TIP3     2255     TIP3     OH2      OT      -0.834000       15.9994           0
     25480 TIP3     2255     TIP3     H1       HT       0.417000       1.00800           0
     25481 TIP3     2255     TIP3     H2       HT       0.417000       1.00800           0
     25482 TIP3     2256     TIP3     OH2      OT      -0.834000       15.9994           0
     25483 TIP3     2256     TIP3     H1       HT       0.417000       1.00800           0
     25484 TIP3     2256     TIP3     H2       HT       0.417000       1.00800           0
     25485 TIP3     2257     TIP3     OH2      OT      -0.834000       15.9994           0
     25486 TIP3     2257     TIP3     H1       HT       0.417000       1.00800           0
     25487 TIP3     2257     TIP3     H2       HT       0.417000       1.00800           0
     25488 TIP3     2258     TIP3     OH2      OT      -0.834000       15.9994           0
     25489 TIP3     2258     TIP3     H1       HT       0.417000       1.00800           0
     25490 TIP3     2258     TIP3     H2       HT       0.417000       1.00800           0
     25491 TIP3     2259     TIP3     OH2      OT      -0.834000       15.9994           0
     25492 TIP3     2259     TIP3     H1       HT       0.417000       1.00800           0
     25493 TIP3     2259     TIP3     H2       HT       0.417000       1.00800           0
     25494 TIP3     2260     TIP3     OH2      OT      -0.834000       15.9994           0
     25495 TIP3     2260     TIP3     H1       HT       0.417000       1.00800           0
     25496 TIP3     2260     TIP3     H2       HT       0.417000       1.00800           0
     25497 TIP3     2261     TIP3     OH2      OT      -0.834000       15.9994           0
     25498 TIP3     2261     TIP3     H1       HT       0.417000       1.00800           0
     25499 TIP3     2261     TIP3     H2       HT       0.417000       1.00800           0
     25500 TIP3     2262     TIP3     OH2      OT      -0.834000       15.9994           0
     25501 TIP3     2262     TIP3     H1       HT       0.417000       1.00800           0
     25502 TIP3     2262     TIP3     H2       HT       0.417000       1.00800           0
     25503 TIP3     2263     TIP3     OH2      OT      -0.834000       15.9994           0
     25504 TIP3     2263     TIP3     H1       HT       0.417000       1.00800           0
     25505 TIP3     2263     TIP3     H2       HT       0.417000       1.00800           0
     25506 TIP3     2264     TIP3     OH2      OT      -0.834000       15.9994           0
     25507 TIP3     2264     TIP3     H1       HT       0.417000       1.00800           0
     25508 TIP3     2264     TIP3     H2       HT       0.417000       1.00800           0
     25509 TIP3     2265     TIP3     OH2      OT      -0.834000       15.9994           0
     25510 TIP3     2265     TIP3     H1       HT       0.417000       1.00800           0
     25511 TIP3     2265     TIP3     H2       HT       0.417000       1.00800           0
     25512 TIP3     2266     TIP3     OH2      OT      -0.834000       15.9994           0
     25513 TIP3     2266     TIP3     H1       HT       0.417000       1.00800           0
     25514 TIP3     2266     TIP3     H2       HT       0.417000       1.00800           0
     25515 TIP3     2267     TIP3     OH2      OT      -0.834000       15.9994           0
     25516 TIP3     2267     TIP3     H1       HT       0.417000       1.00800           0
     25517 TIP3     2267     TIP3     H2       HT       0.417000       1.00800           0
     25518 TIP3     2268     TIP3     OH2      OT      -0.834000       15.9994           0
     25519 TIP3     2268     TIP3     H1       HT       0.417000       1.00800           0
     25520 TIP3     2268     TIP3     H2       HT       0.417000       1.00800           0
     25521 TIP3     2269     TIP3     OH2      OT      -0.834000       15.9994           0
     25522 TIP3     2269     TIP3     H1       HT       0.417000       1.00800           0
     25523 TIP3     2269     TIP3     H2       HT       0.417000       1.00800           0
     25524 TIP3     2270     TIP3     OH2      OT      -0.834000       15.9994           0
     25525 TIP3     2270     TIP3     H1       HT       0.417000       1.00800           0
     25526 TIP3     2270     TIP3     H2       HT       0.417000       1.00800           0
     25527 TIP3     2271     TIP3     OH2      OT      -0.834000       15.9994           0
     25528 TIP3     2271     TIP3     H1       HT       0.417000       1.00800           0
     25529 TIP3     2271     TIP3     H2       HT       0.417000       1.00800           0
     25530 TIP3     2272     TIP3     OH2      OT      -0.834000       15.9994           0
     25531 TIP3     2272     TIP3     H1       HT       0.417000       1.00800           0
     25532 TIP3     2272     TIP3     H2       HT       0.417000       1.00800           0
     25533 TIP3     2273     TIP3     OH2      OT      -0.834000       15.9994           0
     25534 TIP3     2273     TIP3     H1       HT       0.417000       1.00800           0
     25535 TIP3     2273     TIP3     H2       HT       0.417000       1.00800           0
     25536 TIP3     2274     TIP3     OH2      OT      -0.834000       15.9994           0
     25537 TIP3     2274     TIP3     H1       HT       0.417000       1.00800           0
     25538 TIP3     2274     TIP3     H2       HT       0.417000       1.00800           0
     25539 TIP3     2275     TIP3     OH2      OT      -0.834000       15.9994           0
     25540 TIP3     2275     TIP3     H1       HT       0.417000       1.00800           0
     25541 TIP3     2275     TIP3     H2       HT       0.417000       1.00800           0
     25542 TIP3     2276     TIP3     OH2      OT      -0.834000       15.9994           0
     25543 TIP3     2276     TIP3     H1       HT       0.417000       1.00800           0
     25544 TIP3     2276     TIP3     H2       HT       0.417000       1.00800           0
     25545 TIP3     2277     TIP3     OH2      OT      -0.834000       15.9994           0
     25546 TIP3     2277     TIP3     H1       HT       0.417000       1.00800           0
     25547 TIP3     2277     TIP3     H2       HT       0.417000       1.00800           0
     25548 TIP3     2278     TIP3     OH2      OT      -0.834000       15.9994           0
     25549 TIP3     2278     TIP3     H1       HT       0.417000       1.00800           0
     25550 TIP3     2278     TIP3     H2       HT       0.417000       1.00800           0
     25551 TIP3     2279     TIP3     OH2      OT      -0.834000       15.9994           0
     25552 TIP3     2279     TIP3     H1       HT       0.417000       1.00800           0
     25553 TIP3     2279     TIP3     H2       HT       0.417000       1.00800           0
     25554 TIP3     2280     TIP3     OH2      OT      -0.834000       15.9994           0
     25555 TIP3     2280     TIP3     H1       HT       0.417000       1.00800           0
     25556 TIP3     2280     TIP3     H2       HT       0.417000       1.00800           0
     25557 TIP3     2281     TIP3     OH2      OT      -0.834000       15.9994           0
     25558 TIP3     2281     TIP3     H1       HT       0.417000       1.00800           0
     25559 TIP3     2281     TIP3     H2       HT       0.417000       1.00800           0
     25560 TIP3     2282     TIP3     OH2      OT      -0.834000       15.9994           0
     25561 TIP3     2282     TIP3     H1       HT       0.417000       1.00800           0
     25562 TIP3     2282     TIP3     H2       HT       0.417000       1.00800           0
     25563 TIP3     2283     TIP3     OH2      OT      -0.834000       15.9994           0
     25564 TIP3     2283     TIP3     H1       HT       0.417000       1.00800           0
     25565 TIP3     2283     TIP3     H2       HT       0.417000       1.00800           0
     25566 TIP3     2284     TIP3     OH2      OT      -0.834000       15.9994           0
     25567 TIP3     2284     TIP3     H1       HT       0.417000       1.00800           0
     25568 TIP3     2284     TIP3     H2       HT       0.417000       1.00800           0
     25569 TIP3     2285     TIP3     OH2      OT      -0.834000       15.9994           0
     25570 TIP3     2285     TIP3     H1       HT       0.417000       1.00800           0
     25571 TIP3     2285     TIP3     H2       HT       0.417000       1.00800           0
     25572 TIP3     2286     TIP3     OH2      OT      -0.834000       15.9994           0
     25573 TIP3     2286     TIP3     H1       HT       0.417000       1.00800           0
     25574 TIP3     2286     TIP3     H2       HT       0.417000       1.00800           0
     25575 TIP3     2287     TIP3     OH2      OT      -0.834000       15.9994           0
     25576 TIP3     2287     TIP3     H1       HT       0.417000       1.00800           0
     25577 TIP3     2287     TIP3     H2       HT       0.417000       1.00800           0
     25578 TIP3     2288     TIP3     OH2      OT      -0.834000       15.9994           0
     25579 TIP3     2288     TIP3     H1       HT       0.417000       1.00800           0
     25580 TIP3     2288     TIP3     H2       HT       0.417000       1.00800           0
     25581 TIP3     2289     TIP3     OH2      OT      -0.834000       15.9994           0
     25582 TIP3     2289     TIP3     H1       HT       0.417000       1.00800           0
     25583 TIP3     2289     TIP3     H2       HT       0.417000       1.00800           0
     25584 TIP3     2290     TIP3     OH2      OT      -0.834000       15.9994           0
     25585 TIP3     2290     TIP3     H1       HT       0.417000       1.00800           0
     25586 TIP3     2290     TIP3     H2       HT       0.417000       1.00800           0
     25587 TIP3     2291     TIP3     OH2      OT      -0.834000       15.9994           0
     25588 TIP3     2291     TIP3     H1       HT       0.417000       1.00800           0
     25589 TIP3     2291     TIP3     H2       HT       0.417000       1.00800           0
     25590 TIP3     2292     TIP3     OH2      OT      -0.834000       15.9994           0
     25591 TIP3     2292     TIP3     H1       HT       0.417000       1.00800           0
     25592 TIP3     2292     TIP3     H2       HT       0.417000       1.00800           0
     25593 TIP3     2293     TIP3     OH2      OT      -0.834000       15.9994           0
     25594 TIP3     2293     TIP3     H1       HT       0.417000       1.00800           0
     25595 TIP3     2293     TIP3     H2       HT       0.417000       1.00800           0
     25596 TIP3     2294     TIP3     OH2      OT      -0.834000       15.9994           0
     25597 TIP3     2294     TIP3     H1       HT       0.417000       1.00800           0
     25598 TIP3     2294     TIP3     H2       HT       0.417000       1.00800           0
     25599 TIP3     2295     TIP3     OH2      OT      -0.834000       15.9994           0
     25600 TIP3     2295     TIP3     H1       HT       0.417000       1.00800           0
     25601 TIP3     2295     TIP3     H2       HT       0.417000       1.00800           0
     25602 TIP3     2296     TIP3     OH2      OT      -0.834000       15.9994           0
     25603 TIP3     2296     TIP3     H1       HT       0.417000       1.00800           0
     25604 TIP3     2296     TIP3     H2       HT       0.417000       1.00800           0
     25605 TIP3     2297     TIP3     OH2      OT      -0.834000       15.9994           0
     25606 TIP3     2297     TIP3     H1       HT       0.417000       1.00800           0
     25607 TIP3     2297     TIP3     H2       HT       0.417000       1.00800           0
     25608 TIP3     2298     TIP3     OH2      OT      -0.834000       15.9994           0
     25609 TIP3     2298     TIP3     H1       HT       0.417000       1.00800           0
     25610 TIP3     2298     TIP3     H2       HT       0.417000       1.00800           0
     25611 TIP3     2299     TIP3     OH2      OT      -0.834000       15.9994           0
     25612 TIP3     2299     TIP3     H1       HT       0.417000       1.00800           0
     25613 TIP3     2299     TIP3     H2       HT       0.417000       1.00800           0
     25614 TIP3     2300     TIP3     OH2      OT      -0.834000       15.9994           0
     25615 TIP3     2300     TIP3     H1       HT       0.417000       1.00800           0
     25616 TIP3     2300     TIP3     H2       HT       0.417000       1.00800           0
     25617 TIP3     2301     TIP3     OH2      OT      -0.834000       15.9994           0
     25618 TIP3     2301     TIP3     H1       HT       0.417000       1.00800           0
     25619 TIP3     2301     TIP3     H2       HT       0.417000       1.00800           0
     25620 TIP3     2302     TIP3     OH2      OT      -0.834000       15.9994           0
     25621 TIP3     2302     TIP3     H1       HT       0.417000       1.00800           0
     25622 TIP3     2302     TIP3     H2       HT       0.417000       1.00800           0
     25623 TIP3     2303     TIP3     OH2      OT      -0.834000       15.9994           0
     25624 TIP3     2303     TIP3     H1       HT       0.417000       1.00800           0
     25625 TIP3     2303     TIP3     H2       HT       0.417000       1.00800           0
     25626 TIP3     2304     TIP3     OH2      OT      -0.834000       15.9994           0
     25627 TIP3     2304     TIP3     H1       HT       0.417000       1.00800           0
     25628 TIP3     2304     TIP3     H2       HT       0.417000       1.00800           0
     25629 TIP3     2305     TIP3     OH2      OT      -0.834000       15.9994           0
     25630 TIP3     2305     TIP3     H1       HT       0.417000       1.00800           0
     25631 TIP3     2305     TIP3     H2       HT       0.417000       1.00800           0
     25632 TIP3     2306     TIP3     OH2      OT      -0.834000       15.9994           0
     25633 TIP3     2306     TIP3     H1       HT       0.417000       1.00800           0
     25634 TIP3     2306     TIP3     H2       HT       0.417000       1.00800           0
     25635 TIP3     2307     TIP3     OH2      OT      -0.834000       15.9994           0
     25636 TIP3     2307     TIP3     H1       HT       0.417000       1.00800           0
     25637 TIP3     2307     TIP3     H2       HT       0.417000       1.00800           0
     25638 TIP3     2308     TIP3     OH2      OT      -0.834000       15.9994           0
     25639 TIP3     2308     TIP3     H1       HT       0.417000       1.00800           0
     25640 TIP3     2308     TIP3     H2       HT       0.417000       1.00800           0
     25641 TIP3     2309     TIP3     OH2      OT      -0.834000       15.9994           0
     25642 TIP3     2309     TIP3     H1       HT       0.417000       1.00800           0
     25643 TIP3     2309     TIP3     H2       HT       0.417000       1.00800           0
     25644 TIP3     2310     TIP3     OH2      OT      -0.834000       15.9994           0
     25645 TIP3     2310     TIP3     H1       HT       0.417000       1.00800           0
     25646 TIP3     2310     TIP3     H2       HT       0.417000       1.00800           0
     25647 TIP3     2311     TIP3     OH2      OT      -0.834000       15.9994           0
     25648 TIP3     2311     TIP3     H1       HT       0.417000       1.00800           0
     25649 TIP3     2311     TIP3     H2       HT       0.417000       1.00800           0
     25650 TIP3     2312     TIP3     OH2      OT      -0.834000       15.9994           0
     25651 TIP3     2312     TIP3     H1       HT       0.417000       1.00800           0
     25652 TIP3     2312     TIP3     H2       HT       0.417000       1.00800           0
     25653 TIP3     2313     TIP3     OH2      OT      -0.834000       15.9994           0
     25654 TIP3     2313     TIP3     H1       HT       0.417000       1.00800           0
     25655 TIP3     2313     TIP3     H2       HT       0.417000       1.00800           0
     25656 TIP3     2314     TIP3     OH2      OT      -0.834000       15.9994           0
     25657 TIP3     2314     TIP3     H1       HT       0.417000       1.00800           0
     25658 TIP3     2314     TIP3     H2       HT       0.417000       1.00800           0
     25659 TIP3     2315     TIP3     OH2      OT      -0.834000       15.9994           0
     25660 TIP3     2315     TIP3     H1       HT       0.417000       1.00800           0
     25661 TIP3     2315     TIP3     H2       HT       0.417000       1.00800           0
     25662 TIP3     2316     TIP3     OH2      OT      -0.834000       15.9994           0
     25663 TIP3     2316     TIP3     H1       HT       0.417000       1.00800           0
     25664 TIP3     2316     TIP3     H2       HT       0.417000       1.00800           0
     25665 TIP3     2317     TIP3     OH2      OT      -0.834000       15.9994           0
     25666 TIP3     2317     TIP3     H1       HT       0.417000       1.00800           0
     25667 TIP3     2317     TIP3     H2       HT       0.417000       1.00800           0
     25668 TIP3     2318     TIP3     OH2      OT      -0.834000       15.9994           0
     25669 TIP3     2318     TIP3     H1       HT       0.417000       1.00800           0
     25670 TIP3     2318     TIP3     H2       HT       0.417000       1.00800           0
     25671 TIP3     2319     TIP3     OH2      OT      -0.834000       15.9994           0
     25672 TIP3     2319     TIP3     H1       HT       0.417000       1.00800           0
     25673 TIP3     2319     TIP3     H2       HT       0.417000       1.00800           0
     25674 TIP3     2320     TIP3     OH2      OT      -0.834000       15.9994           0
     25675 TIP3     2320     TIP3     H1       HT       0.417000       1.00800           0
     25676 TIP3     2320     TIP3     H2       HT       0.417000       1.00800           0
     25677 TIP3     2321     TIP3     OH2      OT      -0.834000       15.9994           0
     25678 TIP3     2321     TIP3     H1       HT       0.417000       1.00800           0
     25679 TIP3     2321     TIP3     H2       HT       0.417000       1.00800           0
     25680 TIP3     2322     TIP3     OH2      OT      -0.834000       15.9994           0
     25681 TIP3     2322     TIP3     H1       HT       0.417000       1.00800           0
     25682 TIP3     2322     TIP3     H2       HT       0.417000       1.00800           0
     25683 TIP3     2323     TIP3     OH2      OT      -0.834000       15.9994           0
     25684 TIP3     2323     TIP3     H1       HT       0.417000       1.00800           0
     25685 TIP3     2323     TIP3     H2       HT       0.417000       1.00800           0
     25686 TIP3     2324     TIP3     OH2      OT      -0.834000       15.9994           0
     25687 TIP3     2324     TIP3     H1       HT       0.417000       1.00800           0
     25688 TIP3     2324     TIP3     H2       HT       0.417000       1.00800           0
     25689 TIP3     2325     TIP3     OH2      OT      -0.834000       15.9994           0
     25690 TIP3     2325     TIP3     H1       HT       0.417000       1.00800           0
     25691 TIP3     2325     TIP3     H2       HT       0.417000       1.00800           0
     25692 TIP3     2326     TIP3     OH2      OT      -0.834000       15.9994           0
     25693 TIP3     2326     TIP3     H1       HT       0.417000       1.00800           0
     25694 TIP3     2326     TIP3     H2       HT       0.417000       1.00800           0
     25695 TIP3     2327     TIP3     OH2      OT      -0.834000       15.9994           0
     25696 TIP3     2327     TIP3     H1       HT       0.417000       1.00800           0
     25697 TIP3     2327     TIP3     H2       HT       0.417000       1.00800           0
     25698 TIP3     2328     TIP3     OH2      OT      -0.834000       15.9994           0
     25699 TIP3     2328     TIP3     H1       HT       0.417000       1.00800           0
     25700 TIP3     2328     TIP3     H2       HT       0.417000       1.00800           0
     25701 TIP3     2329     TIP3     OH2      OT      -0.834000       15.9994           0
     25702 TIP3     2329     TIP3     H1       HT       0.417000       1.00800           0
     25703 TIP3     2329     TIP3     H2       HT       0.417000       1.00800           0
     25704 TIP3     2330     TIP3     OH2      OT      -0.834000       15.9994           0
     25705 TIP3     2330     TIP3     H1       HT       0.417000       1.00800           0
     25706 TIP3     2330     TIP3     H2       HT       0.417000       1.00800           0
     25707 TIP3     2331     TIP3     OH2      OT      -0.834000       15.9994           0
     25708 TIP3     2331     TIP3     H1       HT       0.417000       1.00800           0
     25709 TIP3     2331     TIP3     H2       HT       0.417000       1.00800           0
     25710 TIP3     2332     TIP3     OH2      OT      -0.834000       15.9994           0
     25711 TIP3     2332     TIP3     H1       HT       0.417000       1.00800           0
     25712 TIP3     2332     TIP3     H2       HT       0.417000       1.00800           0
     25713 TIP3     2333     TIP3     OH2      OT      -0.834000       15.9994           0
     25714 TIP3     2333     TIP3     H1       HT       0.417000       1.00800           0
     25715 TIP3     2333     TIP3     H2       HT       0.417000       1.00800           0
     25716 TIP3     2334     TIP3     OH2      OT      -0.834000       15.9994           0
     25717 TIP3     2334     TIP3     H1       HT       0.417000       1.00800           0
     25718 TIP3     2334     TIP3     H2       HT       0.417000       1.00800           0
     25719 TIP3     2335     TIP3     OH2      OT      -0.834000       15.9994           0
     25720 TIP3     2335     TIP3     H1       HT       0.417000       1.00800           0
     25721 TIP3     2335     TIP3     H2       HT       0.417000       1.00800           0
     25722 TIP3     2336     TIP3     OH2      OT      -0.834000       15.9994           0
     25723 TIP3     2336     TIP3     H1       HT       0.417000       1.00800           0
     25724 TIP3     2336     TIP3     H2       HT       0.417000       1.00800           0
     25725 TIP3     2337     TIP3     OH2      OT      -0.834000       15.9994           0
     25726 TIP3     2337     TIP3     H1       HT       0.417000       1.00800           0
     25727 TIP3     2337     TIP3     H2       HT       0.417000       1.00800           0
     25728 TIP3     2338     TIP3     OH2      OT      -0.834000       15.9994           0
     25729 TIP3     2338     TIP3     H1       HT       0.417000       1.00800           0
     25730 TIP3     2338     TIP3     H2       HT       0.417000       1.00800           0
     25731 TIP3     2339     TIP3     OH2      OT      -0.834000       15.9994           0
     25732 TIP3     2339     TIP3     H1       HT       0.417000       1.00800           0
     25733 TIP3     2339     TIP3     H2       HT       0.417000       1.00800           0
     25734 TIP3     2340     TIP3     OH2      OT      -0.834000       15.9994           0
     25735 TIP3     2340     TIP3     H1       HT       0.417000       1.00800           0
     25736 TIP3     2340     TIP3     H2       HT       0.417000       1.00800           0
     25737 TIP3     2341     TIP3     OH2      OT      -0.834000       15.9994           0
     25738 TIP3     2341     TIP3     H1       HT       0.417000       1.00800           0
     25739 TIP3     2341     TIP3     H2       HT       0.417000       1.00800           0
     25740 TIP3     2342     TIP3     OH2      OT      -0.834000       15.9994           0
     25741 TIP3     2342     TIP3     H1       HT       0.417000       1.00800           0
     25742 TIP3     2342     TIP3     H2       HT       0.417000       1.00800           0
     25743 TIP3     2343     TIP3     OH2      OT      -0.834000       15.9994           0
     25744 TIP3     2343     TIP3     H1       HT       0.417000       1.00800           0
     25745 TIP3     2343     TIP3     H2       HT       0.417000       1.00800           0
     25746 TIP3     2344     TIP3     OH2      OT      -0.834000       15.9994           0
     25747 TIP3     2344     TIP3     H1       HT       0.417000       1.00800           0
     25748 TIP3     2344     TIP3     H2       HT       0.417000       1.00800           0
     25749 TIP3     2345     TIP3     OH2      OT      -0.834000       15.9994           0
     25750 TIP3     2345     TIP3     H1       HT       0.417000       1.00800           0
     25751 TIP3     2345     TIP3     H2       HT       0.417000       1.00800           0
     25752 TIP3     2346     TIP3     OH2      OT      -0.834000       15.9994           0
     25753 TIP3     2346     TIP3     H1       HT       0.417000       1.00800           0
     25754 TIP3     2346     TIP3     H2       HT       0.417000       1.00800           0
     25755 TIP3     2347     TIP3     OH2      OT      -0.834000       15.9994           0
     25756 TIP3     2347     TIP3     H1       HT       0.417000       1.00800           0
     25757 TIP3     2347     TIP3     H2       HT       0.417000       1.00800           0
     25758 TIP3     2348     TIP3     OH2      OT      -0.834000       15.9994           0
     25759 TIP3     2348     TIP3     H1       HT       0.417000       1.00800           0
     25760 TIP3     2348     TIP3     H2       HT       0.417000       1.00800           0
     25761 TIP3     2349     TIP3     OH2      OT      -0.834000       15.9994           0
     25762 TIP3     2349     TIP3     H1       HT       0.417000       1.00800           0
     25763 TIP3     2349     TIP3     H2       HT       0.417000       1.00800           0
     25764 TIP3     2350     TIP3     OH2      OT      -0.834000       15.9994           0
     25765 TIP3     2350     TIP3     H1       HT       0.417000       1.00800           0
     25766 TIP3     2350     TIP3     H2       HT       0.417000       1.00800           0
     25767 TIP3     2351     TIP3     OH2      OT      -0.834000       15.9994           0
     25768 TIP3     2351     TIP3     H1       HT       0.417000       1.00800           0
     25769 TIP3     2351     TIP3     H2       HT       0.417000       1.00800           0
     25770 TIP3     2352     TIP3     OH2      OT      -0.834000       15.9994           0
     25771 TIP3     2352     TIP3     H1       HT       0.417000       1.00800           0
     25772 TIP3     2352     TIP3     H2       HT       0.417000       1.00800           0
     25773 TIP3     2353     TIP3     OH2      OT      -0.834000       15.9994           0
     25774 TIP3     2353     TIP3     H1       HT       0.417000       1.00800           0
     25775 TIP3     2353     TIP3     H2       HT       0.417000       1.00800           0
     25776 TIP3     2354     TIP3     OH2      OT      -0.834000       15.9994           0
     25777 TIP3     2354     TIP3     H1       HT       0.417000       1.00800           0
     25778 TIP3     2354     TIP3     H2       HT       0.417000       1.00800           0
     25779 TIP3     2355     TIP3     OH2      OT      -0.834000       15.9994           0
     25780 TIP3     2355     TIP3     H1       HT       0.417000       1.00800           0
     25781 TIP3     2355     TIP3     H2       HT       0.417000       1.00800           0
     25782 TIP3     2356     TIP3     OH2      OT      -0.834000       15.9994           0
     25783 TIP3     2356     TIP3     H1       HT       0.417000       1.00800           0
     25784 TIP3     2356     TIP3     H2       HT       0.417000       1.00800           0
     25785 TIP3     2357     TIP3     OH2      OT      -0.834000       15.9994           0
     25786 TIP3     2357     TIP3     H1       HT       0.417000       1.00800           0
     25787 TIP3     2357     TIP3     H2       HT       0.417000       1.00800           0
     25788 TIP3     2358     TIP3     OH2      OT      -0.834000       15.9994           0
     25789 TIP3     2358     TIP3     H1       HT       0.417000       1.00800           0
     25790 TIP3     2358     TIP3     H2       HT       0.417000       1.00800           0
     25791 TIP3     2359     TIP3     OH2      OT      -0.834000       15.9994           0
     25792 TIP3     2359     TIP3     H1       HT       0.417000       1.00800           0
     25793 TIP3     2359     TIP3     H2       HT       0.417000       1.00800           0
     25794 TIP3     2360     TIP3     OH2      OT      -0.834000       15.9994           0
     25795 TIP3     2360     TIP3     H1       HT       0.417000       1.00800           0
     25796 TIP3     2360     TIP3     H2       HT       0.417000       1.00800           0
     25797 TIP3     2361     TIP3     OH2      OT      -0.834000       15.9994           0
     25798 TIP3     2361     TIP3     H1       HT       0.417000       1.00800           0
     25799 TIP3     2361     TIP3     H2       HT       0.417000       1.00800           0
     25800 TIP3     2362     TIP3     OH2      OT      -0.834000       15.9994           0
     25801 TIP3     2362     TIP3     H1       HT       0.417000       1.00800           0
     25802 TIP3     2362     TIP3     H2       HT       0.417000       1.00800           0
     25803 TIP3     2363     TIP3     OH2      OT      -0.834000       15.9994           0
     25804 TIP3     2363     TIP3     H1       HT       0.417000       1.00800           0
     25805 TIP3     2363     TIP3     H2       HT       0.417000       1.00800           0
     25806 TIP3     2364     TIP3     OH2      OT      -0.834000       15.9994           0
     25807 TIP3     2364     TIP3     H1       HT       0.417000       1.00800           0
     25808 TIP3     2364     TIP3     H2       HT       0.417000       1.00800           0
     25809 TIP3     2365     TIP3     OH2      OT      -0.834000       15.9994           0
     25810 TIP3     2365     TIP3     H1       HT       0.417000       1.00800           0
     25811 TIP3     2365     TIP3     H2       HT       0.417000       1.00800           0
     25812 TIP3     2366     TIP3     OH2      OT      -0.834000       15.9994           0
     25813 TIP3     2366     TIP3     H1       HT       0.417000       1.00800           0
     25814 TIP3     2366     TIP3     H2       HT       0.417000       1.00800           0
     25815 TIP3     2367     TIP3     OH2      OT      -0.834000       15.9994           0
     25816 TIP3     2367     TIP3     H1       HT       0.417000       1.00800           0
     25817 TIP3     2367     TIP3     H2       HT       0.417000       1.00800           0
     25818 TIP3     2368     TIP3     OH2      OT      -0.834000       15.9994           0
     25819 TIP3     2368     TIP3     H1       HT       0.417000       1.00800           0
     25820 TIP3     2368     TIP3     H2       HT       0.417000       1.00800           0
     25821 TIP3     2369     TIP3     OH2      OT      -0.834000       15.9994           0
     25822 TIP3     2369     TIP3     H1       HT       0.417000       1.00800           0
     25823 TIP3     2369     TIP3     H2       HT       0.417000       1.00800           0
     25824 TIP3     2370     TIP3     OH2      OT      -0.834000       15.9994           0
     25825 TIP3     2370     TIP3     H1       HT       0.417000       1.00800           0
     25826 TIP3     2370     TIP3     H2       HT       0.417000       1.00800           0
     25827 TIP3     2371     TIP3     OH2      OT      -0.834000       15.9994           0
     25828 TIP3     2371     TIP3     H1       HT       0.417000       1.00800           0
     25829 TIP3     2371     TIP3     H2       HT       0.417000       1.00800           0
     25830 TIP3     2372     TIP3     OH2      OT      -0.834000       15.9994           0
     25831 TIP3     2372     TIP3     H1       HT       0.417000       1.00800           0
     25832 TIP3     2372     TIP3     H2       HT       0.417000       1.00800           0
     25833 TIP3     2373     TIP3     OH2      OT      -0.834000       15.9994           0
     25834 TIP3     2373     TIP3     H1       HT       0.417000       1.00800           0
     25835 TIP3     2373     TIP3     H2       HT       0.417000       1.00800           0
     25836 TIP3     2374     TIP3     OH2      OT      -0.834000       15.9994           0
     25837 TIP3     2374     TIP3     H1       HT       0.417000       1.00800           0
     25838 TIP3     2374     TIP3     H2       HT       0.417000       1.00800           0
     25839 TIP3     2375     TIP3     OH2      OT      -0.834000       15.9994           0
     25840 TIP3     2375     TIP3     H1       HT       0.417000       1.00800           0
     25841 TIP3     2375     TIP3     H2       HT       0.417000       1.00800           0
     25842 TIP3     2376     TIP3     OH2      OT      -0.834000       15.9994           0
     25843 TIP3     2376     TIP3     H1       HT       0.417000       1.00800           0
     25844 TIP3     2376     TIP3     H2       HT       0.417000       1.00800           0
     25845 TIP3     2377     TIP3     OH2      OT      -0.834000       15.9994           0
     25846 TIP3     2377     TIP3     H1       HT       0.417000       1.00800           0
     25847 TIP3     2377     TIP3     H2       HT       0.417000       1.00800           0
     25848 TIP3     2378     TIP3     OH2      OT      -0.834000       15.9994           0
     25849 TIP3     2378     TIP3     H1       HT       0.417000       1.00800           0
     25850 TIP3     2378     TIP3     H2       HT       0.417000       1.00800           0
     25851 TIP3     2379     TIP3     OH2      OT      -0.834000       15.9994           0
     25852 TIP3     2379     TIP3     H1       HT       0.417000       1.00800           0
     25853 TIP3     2379     TIP3     H2       HT       0.417000       1.00800           0
     25854 TIP3     2380     TIP3     OH2      OT      -0.834000       15.9994           0
     25855 TIP3     2380     TIP3     H1       HT       0.417000       1.00800           0
     25856 TIP3     2380     TIP3     H2       HT       0.417000       1.00800           0
     25857 TIP3     2381     TIP3     OH2      OT      -0.834000       15.9994           0
     25858 TIP3     2381     TIP3     H1       HT       0.417000       1.00800           0
     25859 TIP3     2381     TIP3     H2       HT       0.417000       1.00800           0
     25860 TIP3     2382     TIP3     OH2      OT      -0.834000       15.9994           0
     25861 TIP3     2382     TIP3     H1       HT       0.417000       1.00800           0
     25862 TIP3     2382     TIP3     H2       HT       0.417000       1.00800           0
     25863 TIP3     2383     TIP3     OH2      OT      -0.834000       15.9994           0
     25864 TIP3     2383     TIP3     H1       HT       0.417000       1.00800           0
     25865 TIP3     2383     TIP3     H2       HT       0.417000       1.00800           0
     25866 TIP3     2384     TIP3     OH2      OT      -0.834000       15.9994           0
     25867 TIP3     2384     TIP3     H1       HT       0.417000       1.00800           0
     25868 TIP3     2384     TIP3     H2       HT       0.417000       1.00800           0
     25869 TIP3     2385     TIP3     OH2      OT      -0.834000       15.9994           0
     25870 TIP3     2385     TIP3     H1       HT       0.417000       1.00800           0
     25871 TIP3     2385     TIP3     H2       HT       0.417000       1.00800           0
     25872 TIP3     2386     TIP3     OH2      OT      -0.834000       15.9994           0
     25873 TIP3     2386     TIP3     H1       HT       0.417000       1.00800           0
     25874 TIP3     2386     TIP3     H2       HT       0.417000       1.00800           0
     25875 TIP3     2387     TIP3     OH2      OT      -0.834000       15.9994           0
     25876 TIP3     2387     TIP3     H1       HT       0.417000       1.00800           0
     25877 TIP3     2387     TIP3     H2       HT       0.417000       1.00800           0
     25878 TIP3     2388     TIP3     OH2      OT      -0.834000       15.9994           0
     25879 TIP3     2388     TIP3     H1       HT       0.417000       1.00800           0
     25880 TIP3     2388     TIP3     H2       HT       0.417000       1.00800           0
     25881 TIP3     2389     TIP3     OH2      OT      -0.834000       15.9994           0
     25882 TIP3     2389     TIP3     H1       HT       0.417000       1.00800           0
     25883 TIP3     2389     TIP3     H2       HT       0.417000       1.00800           0
     25884 TIP3     2390     TIP3     OH2      OT      -0.834000       15.9994           0
     25885 TIP3     2390     TIP3     H1       HT       0.417000       1.00800           0
     25886 TIP3     2390     TIP3     H2       HT       0.417000       1.00800           0
     25887 TIP3     2391     TIP3     OH2      OT      -0.834000       15.9994           0
     25888 TIP3     2391     TIP3     H1       HT       0.417000       1.00800           0
     25889 TIP3     2391     TIP3     H2       HT       0.417000       1.00800           0
     25890 TIP3     2392     TIP3     OH2      OT      -0.834000       15.9994           0
     25891 TIP3     2392     TIP3     H1       HT       0.417000       1.00800           0
     25892 TIP3     2392     TIP3     H2       HT       0.417000       1.00800           0
     25893 TIP3     2393     TIP3     OH2      OT      -0.834000       15.9994           0
     25894 TIP3     2393     TIP3     H1       HT       0.417000       1.00800           0
     25895 TIP3     2393     TIP3     H2       HT       0.417000       1.00800           0
     25896 TIP3     2394     TIP3     OH2      OT      -0.834000       15.9994           0
     25897 TIP3     2394     TIP3     H1       HT       0.417000       1.00800           0
     25898 TIP3     2394     TIP3     H2       HT       0.417000       1.00800           0
     25899 TIP3     2395     TIP3     OH2      OT      -0.834000       15.9994           0
     25900 TIP3     2395     TIP3     H1       HT       0.417000       1.00800           0
     25901 TIP3     2395     TIP3     H2       HT       0.417000       1.00800           0
     25902 TIP3     2396     TIP3     OH2      OT      -0.834000       15.9994           0
     25903 TIP3     2396     TIP3     H1       HT       0.417000       1.00800           0
     25904 TIP3     2396     TIP3     H2       HT       0.417000       1.00800           0
     25905 TIP3     2397     TIP3     OH2      OT      -0.834000       15.9994           0
     25906 TIP3     2397     TIP3     H1       HT       0.417000       1.00800           0
     25907 TIP3     2397     TIP3     H2       HT       0.417000       1.00800           0
     25908 TIP3     2398     TIP3     OH2      OT      -0.834000       15.9994           0
     25909 TIP3     2398     TIP3     H1       HT       0.417000       1.00800           0
     25910 TIP3     2398     TIP3     H2       HT       0.417000       1.00800           0
     25911 TIP3     2399     TIP3     OH2      OT      -0.834000       15.9994           0
     25912 TIP3     2399     TIP3     H1       HT       0.417000       1.00800           0
     25913 TIP3     2399     TIP3     H2       HT       0.417000       1.00800           0
     25914 TIP3     2400     TIP3     OH2      OT      -0.834000       15.9994           0
     25915 TIP3     2400     TIP3     H1       HT       0.417000       1.00800           0
     25916 TIP3     2400     TIP3     H2       HT       0.417000       1.00800           0
     25917 TIP3     2401     TIP3     OH2      OT      -0.834000       15.9994           0
     25918 TIP3     2401     TIP3     H1       HT       0.417000       1.00800           0
     25919 TIP3     2401     TIP3     H2       HT       0.417000       1.00800           0
     25920 TIP3     2402     TIP3     OH2      OT      -0.834000       15.9994           0
     25921 TIP3     2402     TIP3     H1       HT       0.417000       1.00800           0
     25922 TIP3     2402     TIP3     H2       HT       0.417000       1.00800           0
     25923 TIP3     2403     TIP3     OH2      OT      -0.834000       15.9994           0
     25924 TIP3     2403     TIP3     H1       HT       0.417000       1.00800           0
     25925 TIP3     2403     TIP3     H2       HT       0.417000       1.00800           0
     25926 TIP3     2404     TIP3     OH2      OT      -0.834000       15.9994           0
     25927 TIP3     2404     TIP3     H1       HT       0.417000       1.00800           0
     25928 TIP3     2404     TIP3     H2       HT       0.417000       1.00800           0
     25929 TIP3     2405     TIP3     OH2      OT      -0.834000       15.9994           0
     25930 TIP3     2405     TIP3     H1       HT       0.417000       1.00800           0
     25931 TIP3     2405     TIP3     H2       HT       0.417000       1.00800           0
     25932 TIP3     2406     TIP3     OH2      OT      -0.834000       15.9994           0
     25933 TIP3     2406     TIP3     H1       HT       0.417000       1.00800           0
     25934 TIP3     2406     TIP3     H2       HT       0.417000       1.00800           0
     25935 TIP3     2407     TIP3     OH2      OT      -0.834000       15.9994           0
     25936 TIP3     2407     TIP3     H1       HT       0.417000       1.00800           0
     25937 TIP3     2407     TIP3     H2       HT       0.417000       1.00800           0
     25938 TIP3     2408     TIP3     OH2      OT      -0.834000       15.9994           0
     25939 TIP3     2408     TIP3     H1       HT       0.417000       1.00800           0
     25940 TIP3     2408     TIP3     H2       HT       0.417000       1.00800           0
     25941 TIP3     2409     TIP3     OH2      OT      -0.834000       15.9994           0
     25942 TIP3     2409     TIP3     H1       HT       0.417000       1.00800           0
     25943 TIP3     2409     TIP3     H2       HT       0.417000       1.00800           0
     25944 TIP3     2410     TIP3     OH2      OT      -0.834000       15.9994           0
     25945 TIP3     2410     TIP3     H1       HT       0.417000       1.00800           0
     25946 TIP3     2410     TIP3     H2       HT       0.417000       1.00800           0
     25947 TIP3     2411     TIP3     OH2      OT      -0.834000       15.9994           0
     25948 TIP3     2411     TIP3     H1       HT       0.417000       1.00800           0
     25949 TIP3     2411     TIP3     H2       HT       0.417000       1.00800           0
     25950 TIP3     2412     TIP3     OH2      OT      -0.834000       15.9994           0
     25951 TIP3     2412     TIP3     H1       HT       0.417000       1.00800           0
     25952 TIP3     2412     TIP3     H2       HT       0.417000       1.00800           0
     25953 TIP3     2413     TIP3     OH2      OT      -0.834000       15.9994           0
     25954 TIP3     2413     TIP3     H1       HT       0.417000       1.00800           0
     25955 TIP3     2413     TIP3     H2       HT       0.417000       1.00800           0
     25956 TIP3     2414     TIP3     OH2      OT      -0.834000       15.9994           0
     25957 TIP3     2414     TIP3     H1       HT       0.417000       1.00800           0
     25958 TIP3     2414     TIP3     H2       HT       0.417000       1.00800           0
     25959 TIP3     2415     TIP3     OH2      OT      -0.834000       15.9994           0
     25960 TIP3     2415     TIP3     H1       HT       0.417000       1.00800           0
     25961 TIP3     2415     TIP3     H2       HT       0.417000       1.00800           0
     25962 TIP3     2416     TIP3     OH2      OT      -0.834000       15.9994           0
     25963 TIP3     2416     TIP3     H1       HT       0.417000       1.00800           0
     25964 TIP3     2416     TIP3     H2       HT       0.417000       1.00800           0
     25965 TIP3     2417     TIP3     OH2      OT      -0.834000       15.9994           0
     25966 TIP3     2417     TIP3     H1       HT       0.417000       1.00800           0
     25967 TIP3     2417     TIP3     H2       HT       0.417000       1.00800           0
     25968 TIP3     2418     TIP3     OH2      OT      -0.834000       15.9994           0
     25969 TIP3     2418     TIP3     H1       HT       0.417000       1.00800           0
     25970 TIP3     2418     TIP3     H2       HT       0.417000       1.00800           0
     25971 TIP3     2419     TIP3     OH2      OT      -0.834000       15.9994           0
     25972 TIP3     2419     TIP3     H1       HT       0.417000       1.00800           0
     25973 TIP3     2419     TIP3     H2       HT       0.417000       1.00800           0
     25974 TIP3     2420     TIP3     OH2      OT      -0.834000       15.9994           0
     25975 TIP3     2420     TIP3     H1       HT       0.417000       1.00800           0
     25976 TIP3     2420     TIP3     H2       HT       0.417000       1.00800           0
     25977 TIP3     2421     TIP3     OH2      OT      -0.834000       15.9994           0
     25978 TIP3     2421     TIP3     H1       HT       0.417000       1.00800           0
     25979 TIP3     2421     TIP3     H2       HT       0.417000       1.00800           0
     25980 TIP3     2422     TIP3     OH2      OT      -0.834000       15.9994           0
     25981 TIP3     2422     TIP3     H1       HT       0.417000       1.00800           0
     25982 TIP3     2422     TIP3     H2       HT       0.417000       1.00800           0
     25983 TIP3     2423     TIP3     OH2      OT      -0.834000       15.9994           0
     25984 TIP3     2423     TIP3     H1       HT       0.417000       1.00800           0
     25985 TIP3     2423     TIP3     H2       HT       0.417000       1.00800           0
     25986 TIP3     2424     TIP3     OH2      OT      -0.834000       15.9994           0
     25987 TIP3     2424     TIP3     H1       HT       0.417000       1.00800           0
     25988 TIP3     2424     TIP3     H2       HT       0.417000       1.00800           0
     25989 TIP3     2425     TIP3     OH2      OT      -0.834000       15.9994           0
     25990 TIP3     2425     TIP3     H1       HT       0.417000       1.00800           0
     25991 TIP3     2425     TIP3     H2       HT       0.417000       1.00800           0
     25992 TIP3     2426     TIP3     OH2      OT      -0.834000       15.9994           0
     25993 TIP3     2426     TIP3     H1       HT       0.417000       1.00800           0
     25994 TIP3     2426     TIP3     H2       HT       0.417000       1.00800           0
     25995 TIP3     2427     TIP3     OH2      OT      -0.834000       15.9994           0
     25996 TIP3     2427     TIP3     H1       HT       0.417000       1.00800           0
     25997 TIP3     2427     TIP3     H2       HT       0.417000       1.00800           0
     25998 TIP3     2428     TIP3     OH2      OT      -0.834000       15.9994           0
     25999 TIP3     2428     TIP3     H1       HT       0.417000       1.00800           0
     26000 TIP3     2428     TIP3     H2       HT       0.417000       1.00800           0
     26001 TIP3     2429     TIP3     OH2      OT      -0.834000       15.9994           0
     26002 TIP3     2429     TIP3     H1       HT       0.417000       1.00800           0
     26003 TIP3     2429     TIP3     H2       HT       0.417000       1.00800           0
     26004 TIP3     2430     TIP3     OH2      OT      -0.834000       15.9994           0
     26005 TIP3     2430     TIP3     H1       HT       0.417000       1.00800           0
     26006 TIP3     2430     TIP3     H2       HT       0.417000       1.00800           0
     26007 TIP3     2431     TIP3     OH2      OT      -0.834000       15.9994           0
     26008 TIP3     2431     TIP3     H1       HT       0.417000       1.00800           0
     26009 TIP3     2431     TIP3     H2       HT       0.417000       1.00800           0
     26010 TIP3     2432     TIP3     OH2      OT      -0.834000       15.9994           0
     26011 TIP3     2432     TIP3     H1       HT       0.417000       1.00800           0
     26012 TIP3     2432     TIP3     H2       HT       0.417000       1.00800           0
     26013 TIP3     2433     TIP3     OH2      OT      -0.834000       15.9994           0
     26014 TIP3     2433     TIP3     H1       HT       0.417000       1.00800           0
     26015 TIP3     2433     TIP3     H2       HT       0.417000       1.00800           0
     26016 TIP3     2434     TIP3     OH2      OT      -0.834000       15.9994           0
     26017 TIP3     2434     TIP3     H1       HT       0.417000       1.00800           0
     26018 TIP3     2434     TIP3     H2       HT       0.417000       1.00800           0
     26019 TIP3     2435     TIP3     OH2      OT      -0.834000       15.9994           0
     26020 TIP3     2435     TIP3     H1       HT       0.417000       1.00800           0
     26021 TIP3     2435     TIP3     H2       HT       0.417000       1.00800           0
     26022 TIP3     2436     TIP3     OH2      OT      -0.834000       15.9994           0
     26023 TIP3     2436     TIP3     H1       HT       0.417000       1.00800           0
     26024 TIP3     2436     TIP3     H2       HT       0.417000       1.00800           0
     26025 TIP3     2437     TIP3     OH2      OT      -0.834000       15.9994           0
     26026 TIP3     2437     TIP3     H1       HT       0.417000       1.00800           0
     26027 TIP3     2437     TIP3     H2       HT       0.417000       1.00800           0
     26028 TIP3     2438     TIP3     OH2      OT      -0.834000       15.9994           0
     26029 TIP3     2438     TIP3     H1       HT       0.417000       1.00800           0
     26030 TIP3     2438     TIP3     H2       HT       0.417000       1.00800           0
     26031 TIP3     2439     TIP3     OH2      OT      -0.834000       15.9994           0
     26032 TIP3     2439     TIP3     H1       HT       0.417000       1.00800           0
     26033 TIP3     2439     TIP3     H2       HT       0.417000       1.00800           0
     26034 TIP3     2440     TIP3     OH2      OT      -0.834000       15.9994           0
     26035 TIP3     2440     TIP3     H1       HT       0.417000       1.00800           0
     26036 TIP3     2440     TIP3     H2       HT       0.417000       1.00800           0
     26037 TIP3     2441     TIP3     OH2      OT      -0.834000       15.9994           0
     26038 TIP3     2441     TIP3     H1       HT       0.417000       1.00800           0
     26039 TIP3     2441     TIP3     H2       HT       0.417000       1.00800           0
     26040 TIP3     2442     TIP3     OH2      OT      -0.834000       15.9994           0
     26041 TIP3     2442     TIP3     H1       HT       0.417000       1.00800           0
     26042 TIP3     2442     TIP3     H2       HT       0.417000       1.00800           0
     26043 TIP3     2443     TIP3     OH2      OT      -0.834000       15.9994           0
     26044 TIP3     2443     TIP3     H1       HT       0.417000       1.00800           0
     26045 TIP3     2443     TIP3     H2       HT       0.417000       1.00800           0
     26046 TIP3     2444     TIP3     OH2      OT      -0.834000       15.9994           0
     26047 TIP3     2444     TIP3     H1       HT       0.417000       1.00800           0
     26048 TIP3     2444     TIP3     H2       HT       0.417000       1.00800           0
     26049 TIP3     2445     TIP3     OH2      OT      -0.834000       15.9994           0
     26050 TIP3     2445     TIP3     H1       HT       0.417000       1.00800           0
     26051 TIP3     2445     TIP3     H2       HT       0.417000       1.00800           0
     26052 TIP3     2446     TIP3     OH2      OT      -0.834000       15.9994           0
     26053 TIP3     2446     TIP3     H1       HT       0.417000       1.00800           0
     26054 TIP3     2446     TIP3     H2       HT       0.417000       1.00800           0
     26055 TIP3     2447     TIP3     OH2      OT      -0.834000       15.9994           0
     26056 TIP3     2447     TIP3     H1       HT       0.417000       1.00800           0
     26057 TIP3     2447     TIP3     H2       HT       0.417000       1.00800           0
     26058 TIP3     2448     TIP3     OH2      OT      -0.834000       15.9994           0
     26059 TIP3     2448     TIP3     H1       HT       0.417000       1.00800           0
     26060 TIP3     2448     TIP3     H2       HT       0.417000       1.00800           0
     26061 TIP3     2449     TIP3     OH2      OT      -0.834000       15.9994           0
     26062 TIP3     2449     TIP3     H1       HT       0.417000       1.00800           0
     26063 TIP3     2449     TIP3     H2       HT       0.417000       1.00800           0
     26064 TIP3     2450     TIP3     OH2      OT      -0.834000       15.9994           0
     26065 TIP3     2450     TIP3     H1       HT       0.417000       1.00800           0
     26066 TIP3     2450     TIP3     H2       HT       0.417000       1.00800           0
     26067 TIP3     2451     TIP3     OH2      OT      -0.834000       15.9994           0
     26068 TIP3     2451     TIP3     H1       HT       0.417000       1.00800           0
     26069 TIP3     2451     TIP3     H2       HT       0.417000       1.00800           0
     26070 TIP3     2452     TIP3     OH2      OT      -0.834000       15.9994           0
     26071 TIP3     2452     TIP3     H1       HT       0.417000       1.00800           0
     26072 TIP3     2452     TIP3     H2       HT       0.417000       1.00800           0
     26073 TIP3     2453     TIP3     OH2      OT      -0.834000       15.9994           0
     26074 TIP3     2453     TIP3     H1       HT       0.417000       1.00800           0
     26075 TIP3     2453     TIP3     H2       HT       0.417000       1.00800           0
     26076 TIP3     2454     TIP3     OH2      OT      -0.834000       15.9994           0
     26077 TIP3     2454     TIP3     H1       HT       0.417000       1.00800           0
     26078 TIP3     2454     TIP3     H2       HT       0.417000       1.00800           0
     26079 TIP3     2455     TIP3     OH2      OT      -0.834000       15.9994           0
     26080 TIP3     2455     TIP3     H1       HT       0.417000       1.00800           0
     26081 TIP3     2455     TIP3     H2       HT       0.417000       1.00800           0
     26082 TIP3     2456     TIP3     OH2      OT      -0.834000       15.9994           0
     26083 TIP3     2456     TIP3     H1       HT       0.417000       1.00800           0
     26084 TIP3     2456     TIP3     H2       HT       0.417000       1.00800           0
     26085 TIP3     2457     TIP3     OH2      OT      -0.834000       15.9994           0
     26086 TIP3     2457     TIP3     H1       HT       0.417000       1.00800           0
     26087 TIP3     2457     TIP3     H2       HT       0.417000       1.00800           0
     26088 TIP3     2458     TIP3     OH2      OT      -0.834000       15.9994           0
     26089 TIP3     2458     TIP3     H1       HT       0.417000       1.00800           0
     26090 TIP3     2458     TIP3     H2       HT       0.417000       1.00800           0
     26091 TIP3     2459     TIP3     OH2      OT      -0.834000       15.9994           0
     26092 TIP3     2459     TIP3     H1       HT       0.417000       1.00800           0
     26093 TIP3     2459     TIP3     H2       HT       0.417000       1.00800           0
     26094 TIP3     2460     TIP3     OH2      OT      -0.834000       15.9994           0
     26095 TIP3     2460     TIP3     H1       HT       0.417000       1.00800           0
     26096 TIP3     2460     TIP3     H2       HT       0.417000       1.00800           0
     26097 TIP3     2461     TIP3     OH2      OT      -0.834000       15.9994           0
     26098 TIP3     2461     TIP3     H1       HT       0.417000       1.00800           0
     26099 TIP3     2461     TIP3     H2       HT       0.417000       1.00800           0
     26100 TIP3     2462     TIP3     OH2      OT      -0.834000       15.9994           0
     26101 TIP3     2462     TIP3     H1       HT       0.417000       1.00800           0
     26102 TIP3     2462     TIP3     H2       HT       0.417000       1.00800           0
     26103 TIP3     2463     TIP3     OH2      OT      -0.834000       15.9994           0
     26104 TIP3     2463     TIP3     H1       HT       0.417000       1.00800           0
     26105 TIP3     2463     TIP3     H2       HT       0.417000       1.00800           0
     26106 TIP3     2464     TIP3     OH2      OT      -0.834000       15.9994           0
     26107 TIP3     2464     TIP3     H1       HT       0.417000       1.00800           0
     26108 TIP3     2464     TIP3     H2       HT       0.417000       1.00800           0
     26109 TIP3     2465     TIP3     OH2      OT      -0.834000       15.9994           0
     26110 TIP3     2465     TIP3     H1       HT       0.417000       1.00800           0
     26111 TIP3     2465     TIP3     H2       HT       0.417000       1.00800           0
     26112 TIP3     2466     TIP3     OH2      OT      -0.834000       15.9994           0
     26113 TIP3     2466     TIP3     H1       HT       0.417000       1.00800           0
     26114 TIP3     2466     TIP3     H2       HT       0.417000       1.00800           0
     26115 TIP3     2467     TIP3     OH2      OT      -0.834000       15.9994           0
     26116 TIP3     2467     TIP3     H1       HT       0.417000       1.00800           0
     26117 TIP3     2467     TIP3     H2       HT       0.417000       1.00800           0
     26118 TIP3     2468     TIP3     OH2      OT      -0.834000       15.9994           0
     26119 TIP3     2468     TIP3     H1       HT       0.417000       1.00800           0
     26120 TIP3     2468     TIP3     H2       HT       0.417000       1.00800           0
     26121 TIP3     2469     TIP3     OH2      OT      -0.834000       15.9994           0
     26122 TIP3     2469     TIP3     H1       HT       0.417000       1.00800           0
     26123 TIP3     2469     TIP3     H2       HT       0.417000       1.00800           0
     26124 TIP3     2470     TIP3     OH2      OT      -0.834000       15.9994           0
     26125 TIP3     2470     TIP3     H1       HT       0.417000       1.00800           0
     26126 TIP3     2470     TIP3     H2       HT       0.417000       1.00800           0
     26127 TIP3     2471     TIP3     OH2      OT      -0.834000       15.9994           0
     26128 TIP3     2471     TIP3     H1       HT       0.417000       1.00800           0
     26129 TIP3     2471     TIP3     H2       HT       0.417000       1.00800           0
     26130 TIP3     2472     TIP3     OH2      OT      -0.834000       15.9994           0
     26131 TIP3     2472     TIP3     H1       HT       0.417000       1.00800           0
     26132 TIP3     2472     TIP3     H2       HT       0.417000       1.00800           0
     26133 TIP3     2473     TIP3     OH2      OT      -0.834000       15.9994           0
     26134 TIP3     2473     TIP3     H1       HT       0.417000       1.00800           0
     26135 TIP3     2473     TIP3     H2       HT       0.417000       1.00800           0
     26136 TIP3     2474     TIP3     OH2      OT      -0.834000       15.9994           0
     26137 TIP3     2474     TIP3     H1       HT       0.417000       1.00800           0
     26138 TIP3     2474     TIP3     H2       HT       0.417000       1.00800           0
     26139 TIP3     2475     TIP3     OH2      OT      -0.834000       15.9994           0
     26140 TIP3     2475     TIP3     H1       HT       0.417000       1.00800           0
     26141 TIP3     2475     TIP3     H2       HT       0.417000       1.00800           0
     26142 TIP3     2476     TIP3     OH2      OT      -0.834000       15.9994           0
     26143 TIP3     2476     TIP3     H1       HT       0.417000       1.00800           0
     26144 TIP3     2476     TIP3     H2       HT       0.417000       1.00800           0
     26145 TIP3     2477     TIP3     OH2      OT      -0.834000       15.9994           0
     26146 TIP3     2477     TIP3     H1       HT       0.417000       1.00800           0
     26147 TIP3     2477     TIP3     H2       HT       0.417000       1.00800           0
     26148 TIP3     2478     TIP3     OH2      OT      -0.834000       15.9994           0
     26149 TIP3     2478     TIP3     H1       HT       0.417000       1.00800           0
     26150 TIP3     2478     TIP3     H2       HT       0.417000       1.00800           0
     26151 TIP3     2479     TIP3     OH2      OT      -0.834000       15.9994           0
     26152 TIP3     2479     TIP3     H1       HT       0.417000       1.00800           0
     26153 TIP3     2479     TIP3     H2       HT       0.417000       1.00800           0
     26154 TIP3     2480     TIP3     OH2      OT      -0.834000       15.9994           0
     26155 TIP3     2480     TIP3     H1       HT       0.417000       1.00800           0
     26156 TIP3     2480     TIP3     H2       HT       0.417000       1.00800           0
     26157 TIP3     2481     TIP3     OH2      OT      -0.834000       15.9994           0
     26158 TIP3     2481     TIP3     H1       HT       0.417000       1.00800           0
     26159 TIP3     2481     TIP3     H2       HT       0.417000       1.00800           0
     26160 TIP3     2482     TIP3     OH2      OT      -0.834000       15.9994           0
     26161 TIP3     2482     TIP3     H1       HT       0.417000       1.00800           0
     26162 TIP3     2482     TIP3     H2       HT       0.417000       1.00800           0
     26163 TIP3     2483     TIP3     OH2      OT      -0.834000       15.9994           0
     26164 TIP3     2483     TIP3     H1       HT       0.417000       1.00800           0
     26165 TIP3     2483     TIP3     H2       HT       0.417000       1.00800           0
     26166 TIP3     2484     TIP3     OH2      OT      -0.834000       15.9994           0
     26167 TIP3     2484     TIP3     H1       HT       0.417000       1.00800           0
     26168 TIP3     2484     TIP3     H2       HT       0.417000       1.00800           0
     26169 TIP3     2485     TIP3     OH2      OT      -0.834000       15.9994           0
     26170 TIP3     2485     TIP3     H1       HT       0.417000       1.00800           0
     26171 TIP3     2485     TIP3     H2       HT       0.417000       1.00800           0
     26172 TIP3     2486     TIP3     OH2      OT      -0.834000       15.9994           0
     26173 TIP3     2486     TIP3     H1       HT       0.417000       1.00800           0
     26174 TIP3     2486     TIP3     H2       HT       0.417000       1.00800           0
     26175 TIP3     2487     TIP3     OH2      OT      -0.834000       15.9994           0
     26176 TIP3     2487     TIP3     H1       HT       0.417000       1.00800           0
     26177 TIP3     2487     TIP3     H2       HT       0.417000       1.00800           0
     26178 TIP3     2488     TIP3     OH2      OT      -0.834000       15.9994           0
     26179 TIP3     2488     TIP3     H1       HT       0.417000       1.00800           0
     26180 TIP3     2488     TIP3     H2       HT       0.417000       1.00800           0
     26181 TIP3     2489     TIP3     OH2      OT      -0.834000       15.9994           0
     26182 TIP3     2489     TIP3     H1       HT       0.417000       1.00800           0
     26183 TIP3     2489     TIP3     H2       HT       0.417000       1.00800           0
     26184 TIP3     2490     TIP3     OH2      OT      -0.834000       15.9994           0
     26185 TIP3     2490     TIP3     H1       HT       0.417000       1.00800           0
     26186 TIP3     2490     TIP3     H2       HT       0.417000       1.00800           0
     26187 TIP3     2491     TIP3     OH2      OT      -0.834000       15.9994           0
     26188 TIP3     2491     TIP3     H1       HT       0.417000       1.00800           0
     26189 TIP3     2491     TIP3     H2       HT       0.417000       1.00800           0
     26190 TIP3     2492     TIP3     OH2      OT      -0.834000       15.9994           0
     26191 TIP3     2492     TIP3     H1       HT       0.417000       1.00800           0
     26192 TIP3     2492     TIP3     H2       HT       0.417000       1.00800           0
     26193 TIP3     2493     TIP3     OH2      OT      -0.834000       15.9994           0
     26194 TIP3     2493     TIP3     H1       HT       0.417000       1.00800           0
     26195 TIP3     2493     TIP3     H2       HT       0.417000       1.00800           0
     26196 TIP3     2494     TIP3     OH2      OT      -0.834000       15.9994           0
     26197 TIP3     2494     TIP3     H1       HT       0.417000       1.00800           0
     26198 TIP3     2494     TIP3     H2       HT       0.417000       1.00800           0
     26199 TIP3     2495     TIP3     OH2      OT      -0.834000       15.9994           0
     26200 TIP3     2495     TIP3     H1       HT       0.417000       1.00800           0
     26201 TIP3     2495     TIP3     H2       HT       0.417000       1.00800           0
     26202 TIP3     2496     TIP3     OH2      OT      -0.834000       15.9994           0
     26203 TIP3     2496     TIP3     H1       HT       0.417000       1.00800           0
     26204 TIP3     2496     TIP3     H2       HT       0.417000       1.00800           0
     26205 TIP3     2497     TIP3     OH2      OT      -0.834000       15.9994           0
     26206 TIP3     2497     TIP3     H1       HT       0.417000       1.00800           0
     26207 TIP3     2497     TIP3     H2       HT       0.417000       1.00800           0
     26208 TIP3     2498     TIP3     OH2      OT      -0.834000       15.9994           0
     26209 TIP3     2498     TIP3     H1       HT       0.417000       1.00800           0
     26210 TIP3     2498     TIP3     H2       HT       0.417000       1.00800           0
     26211 TIP3     2499     TIP3     OH2      OT      -0.834000       15.9994           0
     26212 TIP3     2499     TIP3     H1       HT       0.417000       1.00800           0
     26213 TIP3     2499     TIP3     H2       HT       0.417000       1.00800           0
     26214 TIP3     2500     TIP3     OH2      OT      -0.834000       15.9994           0
     26215 TIP3     2500     TIP3     H1       HT       0.417000       1.00800           0
     26216 TIP3     2500     TIP3     H2       HT       0.417000       1.00800           0
     26217 TIP3     2501     TIP3     OH2      OT      -0.834000       15.9994           0
     26218 TIP3     2501     TIP3     H1       HT       0.417000       1.00800           0
     26219 TIP3     2501     TIP3     H2       HT       0.417000       1.00800           0
     26220 TIP3     2502     TIP3     OH2      OT      -0.834000       15.9994           0
     26221 TIP3     2502     TIP3     H1       HT       0.417000       1.00800           0
     26222 TIP3     2502     TIP3     H2       HT       0.417000       1.00800           0
     26223 TIP3     2503     TIP3     OH2      OT      -0.834000       15.9994           0
     26224 TIP3     2503     TIP3     H1       HT       0.417000       1.00800           0
     26225 TIP3     2503     TIP3     H2       HT       0.417000       1.00800           0
     26226 TIP3     2504     TIP3     OH2      OT      -0.834000       15.9994           0
     26227 TIP3     2504     TIP3     H1       HT       0.417000       1.00800           0
     26228 TIP3     2504     TIP3     H2       HT       0.417000       1.00800           0
     26229 TIP3     2505     TIP3     OH2      OT      -0.834000       15.9994           0
     26230 TIP3     2505     TIP3     H1       HT       0.417000       1.00800           0
     26231 TIP3     2505     TIP3     H2       HT       0.417000       1.00800           0
     26232 TIP3     2506     TIP3     OH2      OT      -0.834000       15.9994           0
     26233 TIP3     2506     TIP3     H1       HT       0.417000       1.00800           0
     26234 TIP3     2506     TIP3     H2       HT       0.417000       1.00800           0
     26235 TIP3     2507     TIP3     OH2      OT      -0.834000       15.9994           0
     26236 TIP3     2507     TIP3     H1       HT       0.417000       1.00800           0
     26237 TIP3     2507     TIP3     H2       HT       0.417000       1.00800           0
     26238 TIP3     2508     TIP3     OH2      OT      -0.834000       15.9994           0
     26239 TIP3     2508     TIP3     H1       HT       0.417000       1.00800           0
     26240 TIP3     2508     TIP3     H2       HT       0.417000       1.00800           0
     26241 TIP3     2509     TIP3     OH2      OT      -0.834000       15.9994           0
     26242 TIP3     2509     TIP3     H1       HT       0.417000       1.00800           0
     26243 TIP3     2509     TIP3     H2       HT       0.417000       1.00800           0
     26244 TIP3     2510     TIP3     OH2      OT      -0.834000       15.9994           0
     26245 TIP3     2510     TIP3     H1       HT       0.417000       1.00800           0
     26246 TIP3     2510     TIP3     H2       HT       0.417000       1.00800           0
     26247 TIP3     2511     TIP3     OH2      OT      -0.834000       15.9994           0
     26248 TIP3     2511     TIP3     H1       HT       0.417000       1.00800           0
     26249 TIP3     2511     TIP3     H2       HT       0.417000       1.00800           0
     26250 TIP3     2512     TIP3     OH2      OT      -0.834000       15.9994           0
     26251 TIP3     2512     TIP3     H1       HT       0.417000       1.00800           0
     26252 TIP3     2512     TIP3     H2       HT       0.417000       1.00800           0
     26253 TIP3     2513     TIP3     OH2      OT      -0.834000       15.9994           0
     26254 TIP3     2513     TIP3     H1       HT       0.417000       1.00800           0
     26255 TIP3     2513     TIP3     H2       HT       0.417000       1.00800           0
     26256 TIP3     2514     TIP3     OH2      OT      -0.834000       15.9994           0
     26257 TIP3     2514     TIP3     H1       HT       0.417000       1.00800           0
     26258 TIP3     2514     TIP3     H2       HT       0.417000       1.00800           0
     26259 TIP3     2515     TIP3     OH2      OT      -0.834000       15.9994           0
     26260 TIP3     2515     TIP3     H1       HT       0.417000       1.00800           0
     26261 TIP3     2515     TIP3     H2       HT       0.417000       1.00800           0
     26262 TIP3     2516     TIP3     OH2      OT      -0.834000       15.9994           0
     26263 TIP3     2516     TIP3     H1       HT       0.417000       1.00800           0
     26264 TIP3     2516     TIP3     H2       HT       0.417000       1.00800           0
     26265 TIP3     2517     TIP3     OH2      OT      -0.834000       15.9994           0
     26266 TIP3     2517     TIP3     H1       HT       0.417000       1.00800           0
     26267 TIP3     2517     TIP3     H2       HT       0.417000       1.00800           0
     26268 TIP3     2518     TIP3     OH2      OT      -0.834000       15.9994           0
     26269 TIP3     2518     TIP3     H1       HT       0.417000       1.00800           0
     26270 TIP3     2518     TIP3     H2       HT       0.417000       1.00800           0
     26271 TIP3     2519     TIP3     OH2      OT      -0.834000       15.9994           0
     26272 TIP3     2519     TIP3     H1       HT       0.417000       1.00800           0
     26273 TIP3     2519     TIP3     H2       HT       0.417000       1.00800           0
     26274 TIP3     2520     TIP3     OH2      OT      -0.834000       15.9994           0
     26275 TIP3     2520     TIP3     H1       HT       0.417000       1.00800           0
     26276 TIP3     2520     TIP3     H2       HT       0.417000       1.00800           0
     26277 TIP3     2521     TIP3     OH2      OT      -0.834000       15.9994           0
     26278 TIP3     2521     TIP3     H1       HT       0.417000       1.00800           0
     26279 TIP3     2521     TIP3     H2       HT       0.417000       1.00800           0
     26280 TIP3     2522     TIP3     OH2      OT      -0.834000       15.9994           0
     26281 TIP3     2522     TIP3     H1       HT       0.417000       1.00800           0
     26282 TIP3     2522     TIP3     H2       HT       0.417000       1.00800           0
     26283 TIP3     2523     TIP3     OH2      OT      -0.834000       15.9994           0
     26284 TIP3     2523     TIP3     H1       HT       0.417000       1.00800           0
     26285 TIP3     2523     TIP3     H2       HT       0.417000       1.00800           0
     26286 TIP3     2524     TIP3     OH2      OT      -0.834000       15.9994           0
     26287 TIP3     2524     TIP3     H1       HT       0.417000       1.00800           0
     26288 TIP3     2524     TIP3     H2       HT       0.417000       1.00800           0
     26289 TIP3     2525     TIP3     OH2      OT      -0.834000       15.9994           0
     26290 TIP3     2525     TIP3     H1       HT       0.417000       1.00800           0
     26291 TIP3     2525     TIP3     H2       HT       0.417000       1.00800           0
     26292 TIP3     2526     TIP3     OH2      OT      -0.834000       15.9994           0
     26293 TIP3     2526     TIP3     H1       HT       0.417000       1.00800           0
     26294 TIP3     2526     TIP3     H2       HT       0.417000       1.00800           0
     26295 TIP3     2527     TIP3     OH2      OT      -0.834000       15.9994           0
     26296 TIP3     2527     TIP3     H1       HT       0.417000       1.00800           0
     26297 TIP3     2527     TIP3     H2       HT       0.417000       1.00800           0
     26298 TIP3     2528     TIP3     OH2      OT      -0.834000       15.9994           0
     26299 TIP3     2528     TIP3     H1       HT       0.417000       1.00800           0
     26300 TIP3     2528     TIP3     H2       HT       0.417000       1.00800           0
     26301 TIP3     2529     TIP3     OH2      OT      -0.834000       15.9994           0
     26302 TIP3     2529     TIP3     H1       HT       0.417000       1.00800           0
     26303 TIP3     2529     TIP3     H2       HT       0.417000       1.00800           0
     26304 TIP3     2530     TIP3     OH2      OT      -0.834000       15.9994           0
     26305 TIP3     2530     TIP3     H1       HT       0.417000       1.00800           0
     26306 TIP3     2530     TIP3     H2       HT       0.417000       1.00800           0
     26307 TIP3     2531     TIP3     OH2      OT      -0.834000       15.9994           0
     26308 TIP3     2531     TIP3     H1       HT       0.417000       1.00800           0
     26309 TIP3     2531     TIP3     H2       HT       0.417000       1.00800           0
     26310 TIP3     2532     TIP3     OH2      OT      -0.834000       15.9994           0
     26311 TIP3     2532     TIP3     H1       HT       0.417000       1.00800           0
     26312 TIP3     2532     TIP3     H2       HT       0.417000       1.00800           0
     26313 TIP3     2533     TIP3     OH2      OT      -0.834000       15.9994           0
     26314 TIP3     2533     TIP3     H1       HT       0.417000       1.00800           0
     26315 TIP3     2533     TIP3     H2       HT       0.417000       1.00800           0
     26316 TIP3     2534     TIP3     OH2      OT      -0.834000       15.9994           0
     26317 TIP3     2534     TIP3     H1       HT       0.417000       1.00800           0
     26318 TIP3     2534     TIP3     H2       HT       0.417000       1.00800           0
     26319 TIP3     2535     TIP3     OH2      OT      -0.834000       15.9994           0
     26320 TIP3     2535     TIP3     H1       HT       0.417000       1.00800           0
     26321 TIP3     2535     TIP3     H2       HT       0.417000       1.00800           0
     26322 TIP3     2536     TIP3     OH2      OT      -0.834000       15.9994           0
     26323 TIP3     2536     TIP3     H1       HT       0.417000       1.00800           0
     26324 TIP3     2536     TIP3     H2       HT       0.417000       1.00800           0
     26325 TIP3     2537     TIP3     OH2      OT      -0.834000       15.9994           0
     26326 TIP3     2537     TIP3     H1       HT       0.417000       1.00800           0
     26327 TIP3     2537     TIP3     H2       HT       0.417000       1.00800           0
     26328 TIP3     2538     TIP3     OH2      OT      -0.834000       15.9994           0
     26329 TIP3     2538     TIP3     H1       HT       0.417000       1.00800           0
     26330 TIP3     2538     TIP3     H2       HT       0.417000       1.00800           0
     26331 TIP3     2539     TIP3     OH2      OT      -0.834000       15.9994           0
     26332 TIP3     2539     TIP3     H1       HT       0.417000       1.00800           0
     26333 TIP3     2539     TIP3     H2       HT       0.417000       1.00800           0
     26334 TIP3     2540     TIP3     OH2      OT      -0.834000       15.9994           0
     26335 TIP3     2540     TIP3     H1       HT       0.417000       1.00800           0
     26336 TIP3     2540     TIP3     H2       HT       0.417000       1.00800           0
     26337 TIP3     2541     TIP3     OH2      OT      -0.834000       15.9994           0
     26338 TIP3     2541     TIP3     H1       HT       0.417000       1.00800           0
     26339 TIP3     2541     TIP3     H2       HT       0.417000       1.00800           0
     26340 TIP3     2542     TIP3     OH2      OT      -0.834000       15.9994           0
     26341 TIP3     2542     TIP3     H1       HT       0.417000       1.00800           0
     26342 TIP3     2542     TIP3     H2       HT       0.417000       1.00800           0
     26343 TIP3     2543     TIP3     OH2      OT      -0.834000       15.9994           0
     26344 TIP3     2543     TIP3     H1       HT       0.417000       1.00800           0
     26345 TIP3     2543     TIP3     H2       HT       0.417000       1.00800           0
     26346 TIP3     2544     TIP3     OH2      OT      -0.834000       15.9994           0
     26347 TIP3     2544     TIP3     H1       HT       0.417000       1.00800           0
     26348 TIP3     2544     TIP3     H2       HT       0.417000       1.00800           0
     26349 TIP3     2545     TIP3     OH2      OT      -0.834000       15.9994           0
     26350 TIP3     2545     TIP3     H1       HT       0.417000       1.00800           0
     26351 TIP3     2545     TIP3     H2       HT       0.417000       1.00800           0
     26352 TIP3     2546     TIP3     OH2      OT      -0.834000       15.9994           0
     26353 TIP3     2546     TIP3     H1       HT       0.417000       1.00800           0
     26354 TIP3     2546     TIP3     H2       HT       0.417000       1.00800           0
     26355 TIP3     2547     TIP3     OH2      OT      -0.834000       15.9994           0
     26356 TIP3     2547     TIP3     H1       HT       0.417000       1.00800           0
     26357 TIP3     2547     TIP3     H2       HT       0.417000       1.00800           0
     26358 TIP3     2548     TIP3     OH2      OT      -0.834000       15.9994           0
     26359 TIP3     2548     TIP3     H1       HT       0.417000       1.00800           0
     26360 TIP3     2548     TIP3     H2       HT       0.417000       1.00800           0
     26361 TIP3     2549     TIP3     OH2      OT      -0.834000       15.9994           0
     26362 TIP3     2549     TIP3     H1       HT       0.417000       1.00800           0
     26363 TIP3     2549     TIP3     H2       HT       0.417000       1.00800           0
     26364 TIP3     2550     TIP3     OH2      OT      -0.834000       15.9994           0
     26365 TIP3     2550     TIP3     H1       HT       0.417000       1.00800           0
     26366 TIP3     2550     TIP3     H2       HT       0.417000       1.00800           0
     26367 TIP3     2551     TIP3     OH2      OT      -0.834000       15.9994           0
     26368 TIP3     2551     TIP3     H1       HT       0.417000       1.00800           0
     26369 TIP3     2551     TIP3     H2       HT       0.417000       1.00800           0
     26370 TIP3     2552     TIP3     OH2      OT      -0.834000       15.9994           0
     26371 TIP3     2552     TIP3     H1       HT       0.417000       1.00800           0
     26372 TIP3     2552     TIP3     H2       HT       0.417000       1.00800           0
     26373 TIP3     2553     TIP3     OH2      OT      -0.834000       15.9994           0
     26374 TIP3     2553     TIP3     H1       HT       0.417000       1.00800           0
     26375 TIP3     2553     TIP3     H2       HT       0.417000       1.00800           0
     26376 TIP3     2554     TIP3     OH2      OT      -0.834000       15.9994           0
     26377 TIP3     2554     TIP3     H1       HT       0.417000       1.00800           0
     26378 TIP3     2554     TIP3     H2       HT       0.417000       1.00800           0
     26379 TIP3     2555     TIP3     OH2      OT      -0.834000       15.9994           0
     26380 TIP3     2555     TIP3     H1       HT       0.417000       1.00800           0
     26381 TIP3     2555     TIP3     H2       HT       0.417000       1.00800           0
     26382 TIP3     2556     TIP3     OH2      OT      -0.834000       15.9994           0
     26383 TIP3     2556     TIP3     H1       HT       0.417000       1.00800           0
     26384 TIP3     2556     TIP3     H2       HT       0.417000       1.00800           0
     26385 TIP3     2557     TIP3     OH2      OT      -0.834000       15.9994           0
     26386 TIP3     2557     TIP3     H1       HT       0.417000       1.00800           0
     26387 TIP3     2557     TIP3     H2       HT       0.417000       1.00800           0
     26388 TIP3     2558     TIP3     OH2      OT      -0.834000       15.9994           0
     26389 TIP3     2558     TIP3     H1       HT       0.417000       1.00800           0
     26390 TIP3     2558     TIP3     H2       HT       0.417000       1.00800           0
     26391 TIP3     2559     TIP3     OH2      OT      -0.834000       15.9994           0
     26392 TIP3     2559     TIP3     H1       HT       0.417000       1.00800           0
     26393 TIP3     2559     TIP3     H2       HT       0.417000       1.00800           0
     26394 TIP3     2560     TIP3     OH2      OT      -0.834000       15.9994           0
     26395 TIP3     2560     TIP3     H1       HT       0.417000       1.00800           0
     26396 TIP3     2560     TIP3     H2       HT       0.417000       1.00800           0
     26397 TIP3     2561     TIP3     OH2      OT      -0.834000       15.9994           0
     26398 TIP3     2561     TIP3     H1       HT       0.417000       1.00800           0
     26399 TIP3     2561     TIP3     H2       HT       0.417000       1.00800           0
     26400 TIP3     2562     TIP3     OH2      OT      -0.834000       15.9994           0
     26401 TIP3     2562     TIP3     H1       HT       0.417000       1.00800           0
     26402 TIP3     2562     TIP3     H2       HT       0.417000       1.00800           0
     26403 TIP3     2563     TIP3     OH2      OT      -0.834000       15.9994           0
     26404 TIP3     2563     TIP3     H1       HT       0.417000       1.00800           0
     26405 TIP3     2563     TIP3     H2       HT       0.417000       1.00800           0
     26406 TIP3     2564     TIP3     OH2      OT      -0.834000       15.9994           0
     26407 TIP3     2564     TIP3     H1       HT       0.417000       1.00800           0
     26408 TIP3     2564     TIP3     H2       HT       0.417000       1.00800           0
     26409 TIP3     2565     TIP3     OH2      OT      -0.834000       15.9994           0
     26410 TIP3     2565     TIP3     H1       HT       0.417000       1.00800           0
     26411 TIP3     2565     TIP3     H2       HT       0.417000       1.00800           0
     26412 TIP3     2566     TIP3     OH2      OT      -0.834000       15.9994           0
     26413 TIP3     2566     TIP3     H1       HT       0.417000       1.00800           0
     26414 TIP3     2566     TIP3     H2       HT       0.417000       1.00800           0
     26415 TIP3     2567     TIP3     OH2      OT      -0.834000       15.9994           0
     26416 TIP3     2567     TIP3     H1       HT       0.417000       1.00800           0
     26417 TIP3     2567     TIP3     H2       HT       0.417000       1.00800           0
     26418 TIP3     2568     TIP3     OH2      OT      -0.834000       15.9994           0
     26419 TIP3     2568     TIP3     H1       HT       0.417000       1.00800           0
     26420 TIP3     2568     TIP3     H2       HT       0.417000       1.00800           0
     26421 TIP3     2569     TIP3     OH2      OT      -0.834000       15.9994           0
     26422 TIP3     2569     TIP3     H1       HT       0.417000       1.00800           0
     26423 TIP3     2569     TIP3     H2       HT       0.417000       1.00800           0
     26424 TIP3     2570     TIP3     OH2      OT      -0.834000       15.9994           0
     26425 TIP3     2570     TIP3     H1       HT       0.417000       1.00800           0
     26426 TIP3     2570     TIP3     H2       HT       0.417000       1.00800           0
     26427 TIP3     2571     TIP3     OH2      OT      -0.834000       15.9994           0
     26428 TIP3     2571     TIP3     H1       HT       0.417000       1.00800           0
     26429 TIP3     2571     TIP3     H2       HT       0.417000       1.00800           0
     26430 TIP3     2572     TIP3     OH2      OT      -0.834000       15.9994           0
     26431 TIP3     2572     TIP3     H1       HT       0.417000       1.00800           0
     26432 TIP3     2572     TIP3     H2       HT       0.417000       1.00800           0
     26433 TIP3     2573     TIP3     OH2      OT      -0.834000       15.9994           0
     26434 TIP3     2573     TIP3     H1       HT       0.417000       1.00800           0
     26435 TIP3     2573     TIP3     H2       HT       0.417000       1.00800           0
     26436 TIP3     2574     TIP3     OH2      OT      -0.834000       15.9994           0
     26437 TIP3     2574     TIP3     H1       HT       0.417000       1.00800           0
     26438 TIP3     2574     TIP3     H2       HT       0.417000       1.00800           0
     26439 TIP3     2575     TIP3     OH2      OT      -0.834000       15.9994           0
     26440 TIP3     2575     TIP3     H1       HT       0.417000       1.00800           0
     26441 TIP3     2575     TIP3     H2       HT       0.417000       1.00800           0
     26442 TIP3     2576     TIP3     OH2      OT      -0.834000       15.9994           0
     26443 TIP3     2576     TIP3     H1       HT       0.417000       1.00800           0
     26444 TIP3     2576     TIP3     H2       HT       0.417000       1.00800           0
     26445 TIP3     2577     TIP3     OH2      OT      -0.834000       15.9994           0
     26446 TIP3     2577     TIP3     H1       HT       0.417000       1.00800           0
     26447 TIP3     2577     TIP3     H2       HT       0.417000       1.00800           0
     26448 TIP3     2578     TIP3     OH2      OT      -0.834000       15.9994           0
     26449 TIP3     2578     TIP3     H1       HT       0.417000       1.00800           0
     26450 TIP3     2578     TIP3     H2       HT       0.417000       1.00800           0
     26451 TIP3     2579     TIP3     OH2      OT      -0.834000       15.9994           0
     26452 TIP3     2579     TIP3     H1       HT       0.417000       1.00800           0
     26453 TIP3     2579     TIP3     H2       HT       0.417000       1.00800           0
     26454 TIP3     2580     TIP3     OH2      OT      -0.834000       15.9994           0
     26455 TIP3     2580     TIP3     H1       HT       0.417000       1.00800           0
     26456 TIP3     2580     TIP3     H2       HT       0.417000       1.00800           0
     26457 TIP3     2581     TIP3     OH2      OT      -0.834000       15.9994           0
     26458 TIP3     2581     TIP3     H1       HT       0.417000       1.00800           0
     26459 TIP3     2581     TIP3     H2       HT       0.417000       1.00800           0
     26460 TIP3     2582     TIP3     OH2      OT      -0.834000       15.9994           0
     26461 TIP3     2582     TIP3     H1       HT       0.417000       1.00800           0
     26462 TIP3     2582     TIP3     H2       HT       0.417000       1.00800           0
     26463 TIP3     2583     TIP3     OH2      OT      -0.834000       15.9994           0
     26464 TIP3     2583     TIP3     H1       HT       0.417000       1.00800           0
     26465 TIP3     2583     TIP3     H2       HT       0.417000       1.00800           0
     26466 TIP3     2584     TIP3     OH2      OT      -0.834000       15.9994           0
     26467 TIP3     2584     TIP3     H1       HT       0.417000       1.00800           0
     26468 TIP3     2584     TIP3     H2       HT       0.417000       1.00800           0
     26469 TIP3     2585     TIP3     OH2      OT      -0.834000       15.9994           0
     26470 TIP3     2585     TIP3     H1       HT       0.417000       1.00800           0
     26471 TIP3     2585     TIP3     H2       HT       0.417000       1.00800           0
     26472 TIP3     2586     TIP3     OH2      OT      -0.834000       15.9994           0
     26473 TIP3     2586     TIP3     H1       HT       0.417000       1.00800           0
     26474 TIP3     2586     TIP3     H2       HT       0.417000       1.00800           0
     26475 TIP3     2587     TIP3     OH2      OT      -0.834000       15.9994           0
     26476 TIP3     2587     TIP3     H1       HT       0.417000       1.00800           0
     26477 TIP3     2587     TIP3     H2       HT       0.417000       1.00800           0
     26478 TIP3     2588     TIP3     OH2      OT      -0.834000       15.9994           0
     26479 TIP3     2588     TIP3     H1       HT       0.417000       1.00800           0
     26480 TIP3     2588     TIP3     H2       HT       0.417000       1.00800           0
     26481 TIP3     2589     TIP3     OH2      OT      -0.834000       15.9994           0
     26482 TIP3     2589     TIP3     H1       HT       0.417000       1.00800           0
     26483 TIP3     2589     TIP3     H2       HT       0.417000       1.00800           0
     26484 TIP3     2590     TIP3     OH2      OT      -0.834000       15.9994           0
     26485 TIP3     2590     TIP3     H1       HT       0.417000       1.00800           0
     26486 TIP3     2590     TIP3     H2       HT       0.417000       1.00800           0
     26487 TIP3     2591     TIP3     OH2      OT      -0.834000       15.9994           0
     26488 TIP3     2591     TIP3     H1       HT       0.417000       1.00800           0
     26489 TIP3     2591     TIP3     H2       HT       0.417000       1.00800           0
     26490 TIP3     2592     TIP3     OH2      OT      -0.834000       15.9994           0
     26491 TIP3     2592     TIP3     H1       HT       0.417000       1.00800           0
     26492 TIP3     2592     TIP3     H2       HT       0.417000       1.00800           0
     26493 TIP3     2593     TIP3     OH2      OT      -0.834000       15.9994           0
     26494 TIP3     2593     TIP3     H1       HT       0.417000       1.00800           0
     26495 TIP3     2593     TIP3     H2       HT       0.417000       1.00800           0
     26496 TIP3     2594     TIP3     OH2      OT      -0.834000       15.9994           0
     26497 TIP3     2594     TIP3     H1       HT       0.417000       1.00800           0
     26498 TIP3     2594     TIP3     H2       HT       0.417000       1.00800           0
     26499 TIP3     2595     TIP3     OH2      OT      -0.834000       15.9994           0
     26500 TIP3     2595     TIP3     H1       HT       0.417000       1.00800           0
     26501 TIP3     2595     TIP3     H2       HT       0.417000       1.00800           0
     26502 TIP3     2596     TIP3     OH2      OT      -0.834000       15.9994           0
     26503 TIP3     2596     TIP3     H1       HT       0.417000       1.00800           0
     26504 TIP3     2596     TIP3     H2       HT       0.417000       1.00800           0
     26505 TIP3     2597     TIP3     OH2      OT      -0.834000       15.9994           0
     26506 TIP3     2597     TIP3     H1       HT       0.417000       1.00800           0
     26507 TIP3     2597     TIP3     H2       HT       0.417000       1.00800           0
     26508 TIP3     2598     TIP3     OH2      OT      -0.834000       15.9994           0
     26509 TIP3     2598     TIP3     H1       HT       0.417000       1.00800           0
     26510 TIP3     2598     TIP3     H2       HT       0.417000       1.00800           0
     26511 TIP3     2599     TIP3     OH2      OT      -0.834000       15.9994           0
     26512 TIP3     2599     TIP3     H1       HT       0.417000       1.00800           0
     26513 TIP3     2599     TIP3     H2       HT       0.417000       1.00800           0
     26514 TIP3     2600     TIP3     OH2      OT      -0.834000       15.9994           0
     26515 TIP3     2600     TIP3     H1       HT       0.417000       1.00800           0
     26516 TIP3     2600     TIP3     H2       HT       0.417000       1.00800           0
     26517 TIP3     2601     TIP3     OH2      OT      -0.834000       15.9994           0
     26518 TIP3     2601     TIP3     H1       HT       0.417000       1.00800           0
     26519 TIP3     2601     TIP3     H2       HT       0.417000       1.00800           0
     26520 TIP3     2602     TIP3     OH2      OT      -0.834000       15.9994           0
     26521 TIP3     2602     TIP3     H1       HT       0.417000       1.00800           0
     26522 TIP3     2602     TIP3     H2       HT       0.417000       1.00800           0
     26523 TIP3     2603     TIP3     OH2      OT      -0.834000       15.9994           0
     26524 TIP3     2603     TIP3     H1       HT       0.417000       1.00800           0
     26525 TIP3     2603     TIP3     H2       HT       0.417000       1.00800           0
     26526 TIP3     2604     TIP3     OH2      OT      -0.834000       15.9994           0
     26527 TIP3     2604     TIP3     H1       HT       0.417000       1.00800           0
     26528 TIP3     2604     TIP3     H2       HT       0.417000       1.00800           0
     26529 TIP3     2605     TIP3     OH2      OT      -0.834000       15.9994           0
     26530 TIP3     2605     TIP3     H1       HT       0.417000       1.00800           0
     26531 TIP3     2605     TIP3     H2       HT       0.417000       1.00800           0
     26532 TIP3     2606     TIP3     OH2      OT      -0.834000       15.9994           0
     26533 TIP3     2606     TIP3     H1       HT       0.417000       1.00800           0
     26534 TIP3     2606     TIP3     H2       HT       0.417000       1.00800           0
     26535 TIP3     2607     TIP3     OH2      OT      -0.834000       15.9994           0
     26536 TIP3     2607     TIP3     H1       HT       0.417000       1.00800           0
     26537 TIP3     2607     TIP3     H2       HT       0.417000       1.00800           0
     26538 TIP3     2608     TIP3     OH2      OT      -0.834000       15.9994           0
     26539 TIP3     2608     TIP3     H1       HT       0.417000       1.00800           0
     26540 TIP3     2608     TIP3     H2       HT       0.417000       1.00800           0
     26541 TIP3     2609     TIP3     OH2      OT      -0.834000       15.9994           0
     26542 TIP3     2609     TIP3     H1       HT       0.417000       1.00800           0
     26543 TIP3     2609     TIP3     H2       HT       0.417000       1.00800           0
     26544 TIP3     2610     TIP3     OH2      OT      -0.834000       15.9994           0
     26545 TIP3     2610     TIP3     H1       HT       0.417000       1.00800           0
     26546 TIP3     2610     TIP3     H2       HT       0.417000       1.00800           0
     26547 TIP3     2611     TIP3     OH2      OT      -0.834000       15.9994           0
     26548 TIP3     2611     TIP3     H1       HT       0.417000       1.00800           0
     26549 TIP3     2611     TIP3     H2       HT       0.417000       1.00800           0
     26550 TIP3     2612     TIP3     OH2      OT      -0.834000       15.9994           0
     26551 TIP3     2612     TIP3     H1       HT       0.417000       1.00800           0
     26552 TIP3     2612     TIP3     H2       HT       0.417000       1.00800           0
     26553 TIP3     2613     TIP3     OH2      OT      -0.834000       15.9994           0
     26554 TIP3     2613     TIP3     H1       HT       0.417000       1.00800           0
     26555 TIP3     2613     TIP3     H2       HT       0.417000       1.00800           0
     26556 TIP3     2614     TIP3     OH2      OT      -0.834000       15.9994           0
     26557 TIP3     2614     TIP3     H1       HT       0.417000       1.00800           0
     26558 TIP3     2614     TIP3     H2       HT       0.417000       1.00800           0
     26559 TIP3     2615     TIP3     OH2      OT      -0.834000       15.9994           0
     26560 TIP3     2615     TIP3     H1       HT       0.417000       1.00800           0
     26561 TIP3     2615     TIP3     H2       HT       0.417000       1.00800           0
     26562 TIP3     2616     TIP3     OH2      OT      -0.834000       15.9994           0
     26563 TIP3     2616     TIP3     H1       HT       0.417000       1.00800           0
     26564 TIP3     2616     TIP3     H2       HT       0.417000       1.00800           0
     26565 TIP3     2617     TIP3     OH2      OT      -0.834000       15.9994           0
     26566 TIP3     2617     TIP3     H1       HT       0.417000       1.00800           0
     26567 TIP3     2617     TIP3     H2       HT       0.417000       1.00800           0
     26568 TIP3     2618     TIP3     OH2      OT      -0.834000       15.9994           0
     26569 TIP3     2618     TIP3     H1       HT       0.417000       1.00800           0
     26570 TIP3     2618     TIP3     H2       HT       0.417000       1.00800           0
     26571 TIP3     2619     TIP3     OH2      OT      -0.834000       15.9994           0
     26572 TIP3     2619     TIP3     H1       HT       0.417000       1.00800           0
     26573 TIP3     2619     TIP3     H2       HT       0.417000       1.00800           0
     26574 TIP3     2620     TIP3     OH2      OT      -0.834000       15.9994           0
     26575 TIP3     2620     TIP3     H1       HT       0.417000       1.00800           0
     26576 TIP3     2620     TIP3     H2       HT       0.417000       1.00800           0
     26577 TIP3     2621     TIP3     OH2      OT      -0.834000       15.9994           0
     26578 TIP3     2621     TIP3     H1       HT       0.417000       1.00800           0
     26579 TIP3     2621     TIP3     H2       HT       0.417000       1.00800           0
     26580 TIP3     2622     TIP3     OH2      OT      -0.834000       15.9994           0
     26581 TIP3     2622     TIP3     H1       HT       0.417000       1.00800           0
     26582 TIP3     2622     TIP3     H2       HT       0.417000       1.00800           0
     26583 TIP3     2623     TIP3     OH2      OT      -0.834000       15.9994           0
     26584 TIP3     2623     TIP3     H1       HT       0.417000       1.00800           0
     26585 TIP3     2623     TIP3     H2       HT       0.417000       1.00800           0
     26586 TIP3     2624     TIP3     OH2      OT      -0.834000       15.9994           0
     26587 TIP3     2624     TIP3     H1       HT       0.417000       1.00800           0
     26588 TIP3     2624     TIP3     H2       HT       0.417000       1.00800           0
     26589 TIP3     2625     TIP3     OH2      OT      -0.834000       15.9994           0
     26590 TIP3     2625     TIP3     H1       HT       0.417000       1.00800           0
     26591 TIP3     2625     TIP3     H2       HT       0.417000       1.00800           0
     26592 TIP3     2626     TIP3     OH2      OT      -0.834000       15.9994           0
     26593 TIP3     2626     TIP3     H1       HT       0.417000       1.00800           0
     26594 TIP3     2626     TIP3     H2       HT       0.417000       1.00800           0
     26595 TIP3     2627     TIP3     OH2      OT      -0.834000       15.9994           0
     26596 TIP3     2627     TIP3     H1       HT       0.417000       1.00800           0
     26597 TIP3     2627     TIP3     H2       HT       0.417000       1.00800           0
     26598 TIP3     2628     TIP3     OH2      OT      -0.834000       15.9994           0
     26599 TIP3     2628     TIP3     H1       HT       0.417000       1.00800           0
     26600 TIP3     2628     TIP3     H2       HT       0.417000       1.00800           0
     26601 TIP3     2629     TIP3     OH2      OT      -0.834000       15.9994           0
     26602 TIP3     2629     TIP3     H1       HT       0.417000       1.00800           0
     26603 TIP3     2629     TIP3     H2       HT       0.417000       1.00800           0
     26604 TIP3     2630     TIP3     OH2      OT      -0.834000       15.9994           0
     26605 TIP3     2630     TIP3     H1       HT       0.417000       1.00800           0
     26606 TIP3     2630     TIP3     H2       HT       0.417000       1.00800           0
     26607 TIP3     2631     TIP3     OH2      OT      -0.834000       15.9994           0
     26608 TIP3     2631     TIP3     H1       HT       0.417000       1.00800           0
     26609 TIP3     2631     TIP3     H2       HT       0.417000       1.00800           0
     26610 TIP3     2632     TIP3     OH2      OT      -0.834000       15.9994           0
     26611 TIP3     2632     TIP3     H1       HT       0.417000       1.00800           0
     26612 TIP3     2632     TIP3     H2       HT       0.417000       1.00800           0
     26613 TIP3     2633     TIP3     OH2      OT      -0.834000       15.9994           0
     26614 TIP3     2633     TIP3     H1       HT       0.417000       1.00800           0
     26615 TIP3     2633     TIP3     H2       HT       0.417000       1.00800           0
     26616 TIP3     2634     TIP3     OH2      OT      -0.834000       15.9994           0
     26617 TIP3     2634     TIP3     H1       HT       0.417000       1.00800           0
     26618 TIP3     2634     TIP3     H2       HT       0.417000       1.00800           0
     26619 TIP3     2635     TIP3     OH2      OT      -0.834000       15.9994           0
     26620 TIP3     2635     TIP3     H1       HT       0.417000       1.00800           0
     26621 TIP3     2635     TIP3     H2       HT       0.417000       1.00800           0
     26622 TIP3     2636     TIP3     OH2      OT      -0.834000       15.9994           0
     26623 TIP3     2636     TIP3     H1       HT       0.417000       1.00800           0
     26624 TIP3     2636     TIP3     H2       HT       0.417000       1.00800           0
     26625 TIP3     2637     TIP3     OH2      OT      -0.834000       15.9994           0
     26626 TIP3     2637     TIP3     H1       HT       0.417000       1.00800           0
     26627 TIP3     2637     TIP3     H2       HT       0.417000       1.00800           0
     26628 TIP3     2638     TIP3     OH2      OT      -0.834000       15.9994           0
     26629 TIP3     2638     TIP3     H1       HT       0.417000       1.00800           0
     26630 TIP3     2638     TIP3     H2       HT       0.417000       1.00800           0
     26631 TIP3     2639     TIP3     OH2      OT      -0.834000       15.9994           0
     26632 TIP3     2639     TIP3     H1       HT       0.417000       1.00800           0
     26633 TIP3     2639     TIP3     H2       HT       0.417000       1.00800           0
     26634 TIP3     2640     TIP3     OH2      OT      -0.834000       15.9994           0
     26635 TIP3     2640     TIP3     H1       HT       0.417000       1.00800           0
     26636 TIP3     2640     TIP3     H2       HT       0.417000       1.00800           0
     26637 TIP3     2641     TIP3     OH2      OT      -0.834000       15.9994           0
     26638 TIP3     2641     TIP3     H1       HT       0.417000       1.00800           0
     26639 TIP3     2641     TIP3     H2       HT       0.417000       1.00800           0
     26640 TIP3     2642     TIP3     OH2      OT      -0.834000       15.9994           0
     26641 TIP3     2642     TIP3     H1       HT       0.417000       1.00800           0
     26642 TIP3     2642     TIP3     H2       HT       0.417000       1.00800           0
     26643 TIP3     2643     TIP3     OH2      OT      -0.834000       15.9994           0
     26644 TIP3     2643     TIP3     H1       HT       0.417000       1.00800           0
     26645 TIP3     2643     TIP3     H2       HT       0.417000       1.00800           0
     26646 TIP3     2644     TIP3     OH2      OT      -0.834000       15.9994           0
     26647 TIP3     2644     TIP3     H1       HT       0.417000       1.00800           0
     26648 TIP3     2644     TIP3     H2       HT       0.417000       1.00800           0
     26649 TIP3     2645     TIP3     OH2      OT      -0.834000       15.9994           0
     26650 TIP3     2645     TIP3     H1       HT       0.417000       1.00800           0
     26651 TIP3     2645     TIP3     H2       HT       0.417000       1.00800           0
     26652 TIP3     2646     TIP3     OH2      OT      -0.834000       15.9994           0
     26653 TIP3     2646     TIP3     H1       HT       0.417000       1.00800           0
     26654 TIP3     2646     TIP3     H2       HT       0.417000       1.00800           0
     26655 TIP3     2647     TIP3     OH2      OT      -0.834000       15.9994           0
     26656 TIP3     2647     TIP3     H1       HT       0.417000       1.00800           0
     26657 TIP3     2647     TIP3     H2       HT       0.417000       1.00800           0
     26658 TIP3     2648     TIP3     OH2      OT      -0.834000       15.9994           0
     26659 TIP3     2648     TIP3     H1       HT       0.417000       1.00800           0
     26660 TIP3     2648     TIP3     H2       HT       0.417000       1.00800           0
     26661 TIP3     2649     TIP3     OH2      OT      -0.834000       15.9994           0
     26662 TIP3     2649     TIP3     H1       HT       0.417000       1.00800           0
     26663 TIP3     2649     TIP3     H2       HT       0.417000       1.00800           0
     26664 TIP3     2650     TIP3     OH2      OT      -0.834000       15.9994           0
     26665 TIP3     2650     TIP3     H1       HT       0.417000       1.00800           0
     26666 TIP3     2650     TIP3     H2       HT       0.417000       1.00800           0
     26667 TIP3     2651     TIP3     OH2      OT      -0.834000       15.9994           0
     26668 TIP3     2651     TIP3     H1       HT       0.417000       1.00800           0
     26669 TIP3     2651     TIP3     H2       HT       0.417000       1.00800           0
     26670 TIP3     2652     TIP3     OH2      OT      -0.834000       15.9994           0
     26671 TIP3     2652     TIP3     H1       HT       0.417000       1.00800           0
     26672 TIP3     2652     TIP3     H2       HT       0.417000       1.00800           0
     26673 TIP3     2653     TIP3     OH2      OT      -0.834000       15.9994           0
     26674 TIP3     2653     TIP3     H1       HT       0.417000       1.00800           0
     26675 TIP3     2653     TIP3     H2       HT       0.417000       1.00800           0
     26676 TIP3     2654     TIP3     OH2      OT      -0.834000       15.9994           0
     26677 TIP3     2654     TIP3     H1       HT       0.417000       1.00800           0
     26678 TIP3     2654     TIP3     H2       HT       0.417000       1.00800           0
     26679 TIP3     2655     TIP3     OH2      OT      -0.834000       15.9994           0
     26680 TIP3     2655     TIP3     H1       HT       0.417000       1.00800           0
     26681 TIP3     2655     TIP3     H2       HT       0.417000       1.00800           0
     26682 TIP3     2656     TIP3     OH2      OT      -0.834000       15.9994           0
     26683 TIP3     2656     TIP3     H1       HT       0.417000       1.00800           0
     26684 TIP3     2656     TIP3     H2       HT       0.417000       1.00800           0
     26685 TIP3     2657     TIP3     OH2      OT      -0.834000       15.9994           0
     26686 TIP3     2657     TIP3     H1       HT       0.417000       1.00800           0
     26687 TIP3     2657     TIP3     H2       HT       0.417000       1.00800           0
     26688 TIP3     2658     TIP3     OH2      OT      -0.834000       15.9994           0
     26689 TIP3     2658     TIP3     H1       HT       0.417000       1.00800           0
     26690 TIP3     2658     TIP3     H2       HT       0.417000       1.00800           0
     26691 TIP3     2659     TIP3     OH2      OT      -0.834000       15.9994           0
     26692 TIP3     2659     TIP3     H1       HT       0.417000       1.00800           0
     26693 TIP3     2659     TIP3     H2       HT       0.417000       1.00800           0
     26694 TIP3     2660     TIP3     OH2      OT      -0.834000       15.9994           0
     26695 TIP3     2660     TIP3     H1       HT       0.417000       1.00800           0
     26696 TIP3     2660     TIP3     H2       HT       0.417000       1.00800           0
     26697 TIP3     2661     TIP3     OH2      OT      -0.834000       15.9994           0
     26698 TIP3     2661     TIP3     H1       HT       0.417000       1.00800           0
     26699 TIP3     2661     TIP3     H2       HT       0.417000       1.00800           0
     26700 TIP3     2662     TIP3     OH2      OT      -0.834000       15.9994           0
     26701 TIP3     2662     TIP3     H1       HT       0.417000       1.00800           0
     26702 TIP3     2662     TIP3     H2       HT       0.417000       1.00800           0
     26703 TIP3     2663     TIP3     OH2      OT      -0.834000       15.9994           0
     26704 TIP3     2663     TIP3     H1       HT       0.417000       1.00800           0
     26705 TIP3     2663     TIP3     H2       HT       0.417000       1.00800           0
     26706 TIP3     2664     TIP3     OH2      OT      -0.834000       15.9994           0
     26707 TIP3     2664     TIP3     H1       HT       0.417000       1.00800           0
     26708 TIP3     2664     TIP3     H2       HT       0.417000       1.00800           0
     26709 TIP3     2665     TIP3     OH2      OT      -0.834000       15.9994           0
     26710 TIP3     2665     TIP3     H1       HT       0.417000       1.00800           0
     26711 TIP3     2665     TIP3     H2       HT       0.417000       1.00800           0
     26712 TIP3     2666     TIP3     OH2      OT      -0.834000       15.9994           0
     26713 TIP3     2666     TIP3     H1       HT       0.417000       1.00800           0
     26714 TIP3     2666     TIP3     H2       HT       0.417000       1.00800           0
     26715 TIP3     2667     TIP3     OH2      OT      -0.834000       15.9994           0
     26716 TIP3     2667     TIP3     H1       HT       0.417000       1.00800           0
     26717 TIP3     2667     TIP3     H2       HT       0.417000       1.00800           0
     26718 TIP3     2668     TIP3     OH2      OT      -0.834000       15.9994           0
     26719 TIP3     2668     TIP3     H1       HT       0.417000       1.00800           0
     26720 TIP3     2668     TIP3     H2       HT       0.417000       1.00800           0
     26721 TIP3     2669     TIP3     OH2      OT      -0.834000       15.9994           0
     26722 TIP3     2669     TIP3     H1       HT       0.417000       1.00800           0
     26723 TIP3     2669     TIP3     H2       HT       0.417000       1.00800           0
     26724 TIP3     2670     TIP3     OH2      OT      -0.834000       15.9994           0
     26725 TIP3     2670     TIP3     H1       HT       0.417000       1.00800           0
     26726 TIP3     2670     TIP3     H2       HT       0.417000       1.00800           0
     26727 TIP3     2671     TIP3     OH2      OT      -0.834000       15.9994           0
     26728 TIP3     2671     TIP3     H1       HT       0.417000       1.00800           0
     26729 TIP3     2671     TIP3     H2       HT       0.417000       1.00800           0
     26730 TIP3     2672     TIP3     OH2      OT      -0.834000       15.9994           0
     26731 TIP3     2672     TIP3     H1       HT       0.417000       1.00800           0
     26732 TIP3     2672     TIP3     H2       HT       0.417000       1.00800           0
     26733 TIP3     2673     TIP3     OH2      OT      -0.834000       15.9994           0
     26734 TIP3     2673     TIP3     H1       HT       0.417000       1.00800           0
     26735 TIP3     2673     TIP3     H2       HT       0.417000       1.00800           0
     26736 TIP3     2674     TIP3     OH2      OT      -0.834000       15.9994           0
     26737 TIP3     2674     TIP3     H1       HT       0.417000       1.00800           0
     26738 TIP3     2674     TIP3     H2       HT       0.417000       1.00800           0
     26739 TIP3     2675     TIP3     OH2      OT      -0.834000       15.9994           0
     26740 TIP3     2675     TIP3     H1       HT       0.417000       1.00800           0
     26741 TIP3     2675     TIP3     H2       HT       0.417000       1.00800           0
     26742 TIP3     2676     TIP3     OH2      OT      -0.834000       15.9994           0
     26743 TIP3     2676     TIP3     H1       HT       0.417000       1.00800           0
     26744 TIP3     2676     TIP3     H2       HT       0.417000       1.00800           0
     26745 TIP3     2677     TIP3     OH2      OT      -0.834000       15.9994           0
     26746 TIP3     2677     TIP3     H1       HT       0.417000       1.00800           0
     26747 TIP3     2677     TIP3     H2       HT       0.417000       1.00800           0
     26748 TIP3     2678     TIP3     OH2      OT      -0.834000       15.9994           0
     26749 TIP3     2678     TIP3     H1       HT       0.417000       1.00800           0
     26750 TIP3     2678     TIP3     H2       HT       0.417000       1.00800           0
     26751 TIP3     2679     TIP3     OH2      OT      -0.834000       15.9994           0
     26752 TIP3     2679     TIP3     H1       HT       0.417000       1.00800           0
     26753 TIP3     2679     TIP3     H2       HT       0.417000       1.00800           0
     26754 TIP3     2680     TIP3     OH2      OT      -0.834000       15.9994           0
     26755 TIP3     2680     TIP3     H1       HT       0.417000       1.00800           0
     26756 TIP3     2680     TIP3     H2       HT       0.417000       1.00800           0
     26757 TIP3     2681     TIP3     OH2      OT      -0.834000       15.9994           0
     26758 TIP3     2681     TIP3     H1       HT       0.417000       1.00800           0
     26759 TIP3     2681     TIP3     H2       HT       0.417000       1.00800           0
     26760 TIP3     2682     TIP3     OH2      OT      -0.834000       15.9994           0
     26761 TIP3     2682     TIP3     H1       HT       0.417000       1.00800           0
     26762 TIP3     2682     TIP3     H2       HT       0.417000       1.00800           0
     26763 TIP3     2683     TIP3     OH2      OT      -0.834000       15.9994           0
     26764 TIP3     2683     TIP3     H1       HT       0.417000       1.00800           0
     26765 TIP3     2683     TIP3     H2       HT       0.417000       1.00800           0
     26766 TIP3     2684     TIP3     OH2      OT      -0.834000       15.9994           0
     26767 TIP3     2684     TIP3     H1       HT       0.417000       1.00800           0
     26768 TIP3     2684     TIP3     H2       HT       0.417000       1.00800           0
     26769 TIP3     2685     TIP3     OH2      OT      -0.834000       15.9994           0
     26770 TIP3     2685     TIP3     H1       HT       0.417000       1.00800           0
     26771 TIP3     2685     TIP3     H2       HT       0.417000       1.00800           0
     26772 TIP3     2686     TIP3     OH2      OT      -0.834000       15.9994           0
     26773 TIP3     2686     TIP3     H1       HT       0.417000       1.00800           0
     26774 TIP3     2686     TIP3     H2       HT       0.417000       1.00800           0
     26775 TIP3     2687     TIP3     OH2      OT      -0.834000       15.9994           0
     26776 TIP3     2687     TIP3     H1       HT       0.417000       1.00800           0
     26777 TIP3     2687     TIP3     H2       HT       0.417000       1.00800           0
     26778 TIP3     2688     TIP3     OH2      OT      -0.834000       15.9994           0
     26779 TIP3     2688     TIP3     H1       HT       0.417000       1.00800           0
     26780 TIP3     2688     TIP3     H2       HT       0.417000       1.00800           0
     26781 TIP3     2689     TIP3     OH2      OT      -0.834000       15.9994           0
     26782 TIP3     2689     TIP3     H1       HT       0.417000       1.00800           0
     26783 TIP3     2689     TIP3     H2       HT       0.417000       1.00800           0
     26784 TIP3     2690     TIP3     OH2      OT      -0.834000       15.9994           0
     26785 TIP3     2690     TIP3     H1       HT       0.417000       1.00800           0
     26786 TIP3     2690     TIP3     H2       HT       0.417000       1.00800           0
     26787 TIP3     2691     TIP3     OH2      OT      -0.834000       15.9994           0
     26788 TIP3     2691     TIP3     H1       HT       0.417000       1.00800           0
     26789 TIP3     2691     TIP3     H2       HT       0.417000       1.00800           0
     26790 TIP3     2692     TIP3     OH2      OT      -0.834000       15.9994           0
     26791 TIP3     2692     TIP3     H1       HT       0.417000       1.00800           0
     26792 TIP3     2692     TIP3     H2       HT       0.417000       1.00800           0
     26793 TIP3     2693     TIP3     OH2      OT      -0.834000       15.9994           0
     26794 TIP3     2693     TIP3     H1       HT       0.417000       1.00800           0
     26795 TIP3     2693     TIP3     H2       HT       0.417000       1.00800           0
     26796 TIP3     2694     TIP3     OH2      OT      -0.834000       15.9994           0
     26797 TIP3     2694     TIP3     H1       HT       0.417000       1.00800           0
     26798 TIP3     2694     TIP3     H2       HT       0.417000       1.00800           0
     26799 TIP3     2695     TIP3     OH2      OT      -0.834000       15.9994           0
     26800 TIP3     2695     TIP3     H1       HT       0.417000       1.00800           0
     26801 TIP3     2695     TIP3     H2       HT       0.417000       1.00800           0
     26802 TIP3     2696     TIP3     OH2      OT      -0.834000       15.9994           0
     26803 TIP3     2696     TIP3     H1       HT       0.417000       1.00800           0
     26804 TIP3     2696     TIP3     H2       HT       0.417000       1.00800           0
     26805 TIP3     2697     TIP3     OH2      OT      -0.834000       15.9994           0
     26806 TIP3     2697     TIP3     H1       HT       0.417000       1.00800           0
     26807 TIP3     2697     TIP3     H2       HT       0.417000       1.00800           0
     26808 TIP3     2698     TIP3     OH2      OT      -0.834000       15.9994           0
     26809 TIP3     2698     TIP3     H1       HT       0.417000       1.00800           0
     26810 TIP3     2698     TIP3     H2       HT       0.417000       1.00800           0
     26811 TIP3     2699     TIP3     OH2      OT      -0.834000       15.9994           0
     26812 TIP3     2699     TIP3     H1       HT       0.417000       1.00800           0
     26813 TIP3     2699     TIP3     H2       HT       0.417000       1.00800           0
     26814 TIP3     2700     TIP3     OH2      OT      -0.834000       15.9994           0
     26815 TIP3     2700     TIP3     H1       HT       0.417000       1.00800           0
     26816 TIP3     2700     TIP3     H2       HT       0.417000       1.00800           0
     26817 TIP3     2701     TIP3     OH2      OT      -0.834000       15.9994           0
     26818 TIP3     2701     TIP3     H1       HT       0.417000       1.00800           0
     26819 TIP3     2701     TIP3     H2       HT       0.417000       1.00800           0
     26820 TIP3     2702     TIP3     OH2      OT      -0.834000       15.9994           0
     26821 TIP3     2702     TIP3     H1       HT       0.417000       1.00800           0
     26822 TIP3     2702     TIP3     H2       HT       0.417000       1.00800           0
     26823 TIP3     2703     TIP3     OH2      OT      -0.834000       15.9994           0
     26824 TIP3     2703     TIP3     H1       HT       0.417000       1.00800           0
     26825 TIP3     2703     TIP3     H2       HT       0.417000       1.00800           0
     26826 TIP3     2704     TIP3     OH2      OT      -0.834000       15.9994           0
     26827 TIP3     2704     TIP3     H1       HT       0.417000       1.00800           0
     26828 TIP3     2704     TIP3     H2       HT       0.417000       1.00800           0
     26829 TIP3     2705     TIP3     OH2      OT      -0.834000       15.9994           0
     26830 TIP3     2705     TIP3     H1       HT       0.417000       1.00800           0
     26831 TIP3     2705     TIP3     H2       HT       0.417000       1.00800           0
     26832 TIP3     2706     TIP3     OH2      OT      -0.834000       15.9994           0
     26833 TIP3     2706     TIP3     H1       HT       0.417000       1.00800           0
     26834 TIP3     2706     TIP3     H2       HT       0.417000       1.00800           0
     26835 TIP3     2707     TIP3     OH2      OT      -0.834000       15.9994           0
     26836 TIP3     2707     TIP3     H1       HT       0.417000       1.00800           0
     26837 TIP3     2707     TIP3     H2       HT       0.417000       1.00800           0
     26838 TIP3     2708     TIP3     OH2      OT      -0.834000       15.9994           0
     26839 TIP3     2708     TIP3     H1       HT       0.417000       1.00800           0
     26840 TIP3     2708     TIP3     H2       HT       0.417000       1.00800           0
     26841 TIP3     2709     TIP3     OH2      OT      -0.834000       15.9994           0
     26842 TIP3     2709     TIP3     H1       HT       0.417000       1.00800           0
     26843 TIP3     2709     TIP3     H2       HT       0.417000       1.00800           0
     26844 TIP3     2710     TIP3     OH2      OT      -0.834000       15.9994           0
     26845 TIP3     2710     TIP3     H1       HT       0.417000       1.00800           0
     26846 TIP3     2710     TIP3     H2       HT       0.417000       1.00800           0
     26847 TIP3     2711     TIP3     OH2      OT      -0.834000       15.9994           0
     26848 TIP3     2711     TIP3     H1       HT       0.417000       1.00800           0
     26849 TIP3     2711     TIP3     H2       HT       0.417000       1.00800           0
     26850 TIP3     2712     TIP3     OH2      OT      -0.834000       15.9994           0
     26851 TIP3     2712     TIP3     H1       HT       0.417000       1.00800           0
     26852 TIP3     2712     TIP3     H2       HT       0.417000       1.00800           0
     26853 TIP3     2713     TIP3     OH2      OT      -0.834000       15.9994           0
     26854 TIP3     2713     TIP3     H1       HT       0.417000       1.00800           0
     26855 TIP3     2713     TIP3     H2       HT       0.417000       1.00800           0
     26856 TIP3     2714     TIP3     OH2      OT      -0.834000       15.9994           0
     26857 TIP3     2714     TIP3     H1       HT       0.417000       1.00800           0
     26858 TIP3     2714     TIP3     H2       HT       0.417000       1.00800           0
     26859 TIP3     2715     TIP3     OH2      OT      -0.834000       15.9994           0
     26860 TIP3     2715     TIP3     H1       HT       0.417000       1.00800           0
     26861 TIP3     2715     TIP3     H2       HT       0.417000       1.00800           0
     26862 TIP3     2716     TIP3     OH2      OT      -0.834000       15.9994           0
     26863 TIP3     2716     TIP3     H1       HT       0.417000       1.00800           0
     26864 TIP3     2716     TIP3     H2       HT       0.417000       1.00800           0
     26865 TIP3     2717     TIP3     OH2      OT      -0.834000       15.9994           0
     26866 TIP3     2717     TIP3     H1       HT       0.417000       1.00800           0
     26867 TIP3     2717     TIP3     H2       HT       0.417000       1.00800           0
     26868 TIP3     2718     TIP3     OH2      OT      -0.834000       15.9994           0
     26869 TIP3     2718     TIP3     H1       HT       0.417000       1.00800           0
     26870 TIP3     2718     TIP3     H2       HT       0.417000       1.00800           0
     26871 TIP3     2719     TIP3     OH2      OT      -0.834000       15.9994           0
     26872 TIP3     2719     TIP3     H1       HT       0.417000       1.00800           0
     26873 TIP3     2719     TIP3     H2       HT       0.417000       1.00800           0
     26874 TIP3     2720     TIP3     OH2      OT      -0.834000       15.9994           0
     26875 TIP3     2720     TIP3     H1       HT       0.417000       1.00800           0
     26876 TIP3     2720     TIP3     H2       HT       0.417000       1.00800           0
     26877 TIP3     2721     TIP3     OH2      OT      -0.834000       15.9994           0
     26878 TIP3     2721     TIP3     H1       HT       0.417000       1.00800           0
     26879 TIP3     2721     TIP3     H2       HT       0.417000       1.00800           0
     26880 TIP3     2722     TIP3     OH2      OT      -0.834000       15.9994           0
     26881 TIP3     2722     TIP3     H1       HT       0.417000       1.00800           0
     26882 TIP3     2722     TIP3     H2       HT       0.417000       1.00800           0
     26883 TIP3     2723     TIP3     OH2      OT      -0.834000       15.9994           0
     26884 TIP3     2723     TIP3     H1       HT       0.417000       1.00800           0
     26885 TIP3     2723     TIP3     H2       HT       0.417000       1.00800           0
     26886 TIP3     2724     TIP3     OH2      OT      -0.834000       15.9994           0
     26887 TIP3     2724     TIP3     H1       HT       0.417000       1.00800           0
     26888 TIP3     2724     TIP3     H2       HT       0.417000       1.00800           0
     26889 TIP3     2725     TIP3     OH2      OT      -0.834000       15.9994           0
     26890 TIP3     2725     TIP3     H1       HT       0.417000       1.00800           0
     26891 TIP3     2725     TIP3     H2       HT       0.417000       1.00800           0
     26892 TIP3     2726     TIP3     OH2      OT      -0.834000       15.9994           0
     26893 TIP3     2726     TIP3     H1       HT       0.417000       1.00800           0
     26894 TIP3     2726     TIP3     H2       HT       0.417000       1.00800           0
     26895 TIP3     2727     TIP3     OH2      OT      -0.834000       15.9994           0
     26896 TIP3     2727     TIP3     H1       HT       0.417000       1.00800           0
     26897 TIP3     2727     TIP3     H2       HT       0.417000       1.00800           0
     26898 TIP3     2728     TIP3     OH2      OT      -0.834000       15.9994           0
     26899 TIP3     2728     TIP3     H1       HT       0.417000       1.00800           0
     26900 TIP3     2728     TIP3     H2       HT       0.417000       1.00800           0
     26901 TIP3     2729     TIP3     OH2      OT      -0.834000       15.9994           0
     26902 TIP3     2729     TIP3     H1       HT       0.417000       1.00800           0
     26903 TIP3     2729     TIP3     H2       HT       0.417000       1.00800           0
     26904 TIP3     2730     TIP3     OH2      OT      -0.834000       15.9994           0
     26905 TIP3     2730     TIP3     H1       HT       0.417000       1.00800           0
     26906 TIP3     2730     TIP3     H2       HT       0.417000       1.00800           0
     26907 TIP3     2731     TIP3     OH2      OT      -0.834000       15.9994           0
     26908 TIP3     2731     TIP3     H1       HT       0.417000       1.00800           0
     26909 TIP3     2731     TIP3     H2       HT       0.417000       1.00800           0
     26910 TIP3     2732     TIP3     OH2      OT      -0.834000       15.9994           0
     26911 TIP3     2732     TIP3     H1       HT       0.417000       1.00800           0
     26912 TIP3     2732     TIP3     H2       HT       0.417000       1.00800           0
     26913 TIP3     2733     TIP3     OH2      OT      -0.834000       15.9994           0
     26914 TIP3     2733     TIP3     H1       HT       0.417000       1.00800           0
     26915 TIP3     2733     TIP3     H2       HT       0.417000       1.00800           0
     26916 TIP3     2734     TIP3     OH2      OT      -0.834000       15.9994           0
     26917 TIP3     2734     TIP3     H1       HT       0.417000       1.00800           0
     26918 TIP3     2734     TIP3     H2       HT       0.417000       1.00800           0
     26919 TIP3     2735     TIP3     OH2      OT      -0.834000       15.9994           0
     26920 TIP3     2735     TIP3     H1       HT       0.417000       1.00800           0
     26921 TIP3     2735     TIP3     H2       HT       0.417000       1.00800           0
     26922 TIP3     2736     TIP3     OH2      OT      -0.834000       15.9994           0
     26923 TIP3     2736     TIP3     H1       HT       0.417000       1.00800           0
     26924 TIP3     2736     TIP3     H2       HT       0.417000       1.00800           0
     26925 TIP3     2737     TIP3     OH2      OT      -0.834000       15.9994           0
     26926 TIP3     2737     TIP3     H1       HT       0.417000       1.00800           0
     26927 TIP3     2737     TIP3     H2       HT       0.417000       1.00800           0
     26928 TIP3     2738     TIP3     OH2      OT      -0.834000       15.9994           0
     26929 TIP3     2738     TIP3     H1       HT       0.417000       1.00800           0
     26930 TIP3     2738     TIP3     H2       HT       0.417000       1.00800           0
     26931 TIP3     2739     TIP3     OH2      OT      -0.834000       15.9994           0
     26932 TIP3     2739     TIP3     H1       HT       0.417000       1.00800           0
     26933 TIP3     2739     TIP3     H2       HT       0.417000       1.00800           0
     26934 TIP3     2740     TIP3     OH2      OT      -0.834000       15.9994           0
     26935 TIP3     2740     TIP3     H1       HT       0.417000       1.00800           0
     26936 TIP3     2740     TIP3     H2       HT       0.417000       1.00800           0
     26937 TIP3     2741     TIP3     OH2      OT      -0.834000       15.9994           0
     26938 TIP3     2741     TIP3     H1       HT       0.417000       1.00800           0
     26939 TIP3     2741     TIP3     H2       HT       0.417000       1.00800           0
     26940 TIP3     2742     TIP3     OH2      OT      -0.834000       15.9994           0
     26941 TIP3     2742     TIP3     H1       HT       0.417000       1.00800           0
     26942 TIP3     2742     TIP3     H2       HT       0.417000       1.00800           0
     26943 TIP3     2743     TIP3     OH2      OT      -0.834000       15.9994           0
     26944 TIP3     2743     TIP3     H1       HT       0.417000       1.00800           0
     26945 TIP3     2743     TIP3     H2       HT       0.417000       1.00800           0
     26946 TIP3     2744     TIP3     OH2      OT      -0.834000       15.9994           0
     26947 TIP3     2744     TIP3     H1       HT       0.417000       1.00800           0
     26948 TIP3     2744     TIP3     H2       HT       0.417000       1.00800           0
     26949 TIP3     2745     TIP3     OH2      OT      -0.834000       15.9994           0
     26950 TIP3     2745     TIP3     H1       HT       0.417000       1.00800           0
     26951 TIP3     2745     TIP3     H2       HT       0.417000       1.00800           0
     26952 TIP3     2746     TIP3     OH2      OT      -0.834000       15.9994           0
     26953 TIP3     2746     TIP3     H1       HT       0.417000       1.00800           0
     26954 TIP3     2746     TIP3     H2       HT       0.417000       1.00800           0
     26955 TIP3     2747     TIP3     OH2      OT      -0.834000       15.9994           0
     26956 TIP3     2747     TIP3     H1       HT       0.417000       1.00800           0
     26957 TIP3     2747     TIP3     H2       HT       0.417000       1.00800           0
     26958 TIP3     2748     TIP3     OH2      OT      -0.834000       15.9994           0
     26959 TIP3     2748     TIP3     H1       HT       0.417000       1.00800           0
     26960 TIP3     2748     TIP3     H2       HT       0.417000       1.00800           0
     26961 TIP3     2749     TIP3     OH2      OT      -0.834000       15.9994           0
     26962 TIP3     2749     TIP3     H1       HT       0.417000       1.00800           0
     26963 TIP3     2749     TIP3     H2       HT       0.417000       1.00800           0
     26964 TIP3     2750     TIP3     OH2      OT      -0.834000       15.9994           0
     26965 TIP3     2750     TIP3     H1       HT       0.417000       1.00800           0
     26966 TIP3     2750     TIP3     H2       HT       0.417000       1.00800           0
     26967 TIP3     2751     TIP3     OH2      OT      -0.834000       15.9994           0
     26968 TIP3     2751     TIP3     H1       HT       0.417000       1.00800           0
     26969 TIP3     2751     TIP3     H2       HT       0.417000       1.00800           0
     26970 TIP3     2752     TIP3     OH2      OT      -0.834000       15.9994           0
     26971 TIP3     2752     TIP3     H1       HT       0.417000       1.00800           0
     26972 TIP3     2752     TIP3     H2       HT       0.417000       1.00800           0
     26973 TIP3     2753     TIP3     OH2      OT      -0.834000       15.9994           0
     26974 TIP3     2753     TIP3     H1       HT       0.417000       1.00800           0
     26975 TIP3     2753     TIP3     H2       HT       0.417000       1.00800           0
     26976 TIP3     2754     TIP3     OH2      OT      -0.834000       15.9994           0
     26977 TIP3     2754     TIP3     H1       HT       0.417000       1.00800           0
     26978 TIP3     2754     TIP3     H2       HT       0.417000       1.00800           0
     26979 TIP3     2755     TIP3     OH2      OT      -0.834000       15.9994           0
     26980 TIP3     2755     TIP3     H1       HT       0.417000       1.00800           0
     26981 TIP3     2755     TIP3     H2       HT       0.417000       1.00800           0
     26982 TIP3     2756     TIP3     OH2      OT      -0.834000       15.9994           0
     26983 TIP3     2756     TIP3     H1       HT       0.417000       1.00800           0
     26984 TIP3     2756     TIP3     H2       HT       0.417000       1.00800           0
     26985 TIP3     2757     TIP3     OH2      OT      -0.834000       15.9994           0
     26986 TIP3     2757     TIP3     H1       HT       0.417000       1.00800           0
     26987 TIP3     2757     TIP3     H2       HT       0.417000       1.00800           0
     26988 TIP3     2758     TIP3     OH2      OT      -0.834000       15.9994           0
     26989 TIP3     2758     TIP3     H1       HT       0.417000       1.00800           0
     26990 TIP3     2758     TIP3     H2       HT       0.417000       1.00800           0
     26991 TIP3     2759     TIP3     OH2      OT      -0.834000       15.9994           0
     26992 TIP3     2759     TIP3     H1       HT       0.417000       1.00800           0
     26993 TIP3     2759     TIP3     H2       HT       0.417000       1.00800           0
     26994 TIP3     2760     TIP3     OH2      OT      -0.834000       15.9994           0
     26995 TIP3     2760     TIP3     H1       HT       0.417000       1.00800           0
     26996 TIP3     2760     TIP3     H2       HT       0.417000       1.00800           0
     26997 TIP3     2761     TIP3     OH2      OT      -0.834000       15.9994           0
     26998 TIP3     2761     TIP3     H1       HT       0.417000       1.00800           0
     26999 TIP3     2761     TIP3     H2       HT       0.417000       1.00800           0
     27000 TIP3     2762     TIP3     OH2      OT      -0.834000       15.9994           0
     27001 TIP3     2762     TIP3     H1       HT       0.417000       1.00800           0
     27002 TIP3     2762     TIP3     H2       HT       0.417000       1.00800           0
     27003 TIP3     2763     TIP3     OH2      OT      -0.834000       15.9994           0
     27004 TIP3     2763     TIP3     H1       HT       0.417000       1.00800           0
     27005 TIP3     2763     TIP3     H2       HT       0.417000       1.00800           0
     27006 TIP3     2764     TIP3     OH2      OT      -0.834000       15.9994           0
     27007 TIP3     2764     TIP3     H1       HT       0.417000       1.00800           0
     27008 TIP3     2764     TIP3     H2       HT       0.417000       1.00800           0
     27009 TIP3     2765     TIP3     OH2      OT      -0.834000       15.9994           0
     27010 TIP3     2765     TIP3     H1       HT       0.417000       1.00800           0
     27011 TIP3     2765     TIP3     H2       HT       0.417000       1.00800           0
     27012 TIP3     2766     TIP3     OH2      OT      -0.834000       15.9994           0
     27013 TIP3     2766     TIP3     H1       HT       0.417000       1.00800           0
     27014 TIP3     2766     TIP3     H2       HT       0.417000       1.00800           0
     27015 TIP3     2767     TIP3     OH2      OT      -0.834000       15.9994           0
     27016 TIP3     2767     TIP3     H1       HT       0.417000       1.00800           0
     27017 TIP3     2767     TIP3     H2       HT       0.417000       1.00800           0
     27018 TIP3     2768     TIP3     OH2      OT      -0.834000       15.9994           0
     27019 TIP3     2768     TIP3     H1       HT       0.417000       1.00800           0
     27020 TIP3     2768     TIP3     H2       HT       0.417000       1.00800           0
     27021 TIP3     2769     TIP3     OH2      OT      -0.834000       15.9994           0
     27022 TIP3     2769     TIP3     H1       HT       0.417000       1.00800           0
     27023 TIP3     2769     TIP3     H2       HT       0.417000       1.00800           0
     27024 TIP3     2770     TIP3     OH2      OT      -0.834000       15.9994           0
     27025 TIP3     2770     TIP3     H1       HT       0.417000       1.00800           0
     27026 TIP3     2770     TIP3     H2       HT       0.417000       1.00800           0
     27027 TIP3     2771     TIP3     OH2      OT      -0.834000       15.9994           0
     27028 TIP3     2771     TIP3     H1       HT       0.417000       1.00800           0
     27029 TIP3     2771     TIP3     H2       HT       0.417000       1.00800           0
     27030 TIP3     2772     TIP3     OH2      OT      -0.834000       15.9994           0
     27031 TIP3     2772     TIP3     H1       HT       0.417000       1.00800           0
     27032 TIP3     2772     TIP3     H2       HT       0.417000       1.00800           0
     27033 TIP3     2773     TIP3     OH2      OT      -0.834000       15.9994           0
     27034 TIP3     2773     TIP3     H1       HT       0.417000       1.00800           0
     27035 TIP3     2773     TIP3     H2       HT       0.417000       1.00800           0
     27036 TIP3     2774     TIP3     OH2      OT      -0.834000       15.9994           0
     27037 TIP3     2774     TIP3     H1       HT       0.417000       1.00800           0
     27038 TIP3     2774     TIP3     H2       HT       0.417000       1.00800           0
     27039 TIP3     2775     TIP3     OH2      OT      -0.834000       15.9994           0
     27040 TIP3     2775     TIP3     H1       HT       0.417000       1.00800           0
     27041 TIP3     2775     TIP3     H2       HT       0.417000       1.00800           0
     27042 TIP3     2776     TIP3     OH2      OT      -0.834000       15.9994           0
     27043 TIP3     2776     TIP3     H1       HT       0.417000       1.00800           0
     27044 TIP3     2776     TIP3     H2       HT       0.417000       1.00800           0
     27045 TIP3     2777     TIP3     OH2      OT      -0.834000       15.9994           0
     27046 TIP3     2777     TIP3     H1       HT       0.417000       1.00800           0
     27047 TIP3     2777     TIP3     H2       HT       0.417000       1.00800           0
     27048 TIP3     2778     TIP3     OH2      OT      -0.834000       15.9994           0
     27049 TIP3     2778     TIP3     H1       HT       0.417000       1.00800           0
     27050 TIP3     2778     TIP3     H2       HT       0.417000       1.00800           0
     27051 TIP3     2779     TIP3     OH2      OT      -0.834000       15.9994           0
     27052 TIP3     2779     TIP3     H1       HT       0.417000       1.00800           0
     27053 TIP3     2779     TIP3     H2       HT       0.417000       1.00800           0
     27054 TIP3     2780     TIP3     OH2      OT      -0.834000       15.9994           0
     27055 TIP3     2780     TIP3     H1       HT       0.417000       1.00800           0
     27056 TIP3     2780     TIP3     H2       HT       0.417000       1.00800           0
     27057 TIP3     2781     TIP3     OH2      OT      -0.834000       15.9994           0
     27058 TIP3     2781     TIP3     H1       HT       0.417000       1.00800           0
     27059 TIP3     2781     TIP3     H2       HT       0.417000       1.00800           0
     27060 TIP3     2782     TIP3     OH2      OT      -0.834000       15.9994           0
     27061 TIP3     2782     TIP3     H1       HT       0.417000       1.00800           0
     27062 TIP3     2782     TIP3     H2       HT       0.417000       1.00800           0
     27063 TIP3     2783     TIP3     OH2      OT      -0.834000       15.9994           0
     27064 TIP3     2783     TIP3     H1       HT       0.417000       1.00800           0
     27065 TIP3     2783     TIP3     H2       HT       0.417000       1.00800           0
     27066 TIP3     2784     TIP3     OH2      OT      -0.834000       15.9994           0
     27067 TIP3     2784     TIP3     H1       HT       0.417000       1.00800           0
     27068 TIP3     2784     TIP3     H2       HT       0.417000       1.00800           0
     27069 TIP3     2785     TIP3     OH2      OT      -0.834000       15.9994           0
     27070 TIP3     2785     TIP3     H1       HT       0.417000       1.00800           0
     27071 TIP3     2785     TIP3     H2       HT       0.417000       1.00800           0
     27072 TIP3     2786     TIP3     OH2      OT      -0.834000       15.9994           0
     27073 TIP3     2786     TIP3     H1       HT       0.417000       1.00800           0
     27074 TIP3     2786     TIP3     H2       HT       0.417000       1.00800           0
     27075 TIP3     2787     TIP3     OH2      OT      -0.834000       15.9994           0
     27076 TIP3     2787     TIP3     H1       HT       0.417000       1.00800           0
     27077 TIP3     2787     TIP3     H2       HT       0.417000       1.00800           0
     27078 TIP3     2788     TIP3     OH2      OT      -0.834000       15.9994           0
     27079 TIP3     2788     TIP3     H1       HT       0.417000       1.00800           0
     27080 TIP3     2788     TIP3     H2       HT       0.417000       1.00800           0
     27081 TIP3     2789     TIP3     OH2      OT      -0.834000       15.9994           0
     27082 TIP3     2789     TIP3     H1       HT       0.417000       1.00800           0
     27083 TIP3     2789     TIP3     H2       HT       0.417000       1.00800           0
     27084 TIP3     2790     TIP3     OH2      OT      -0.834000       15.9994           0
     27085 TIP3     2790     TIP3     H1       HT       0.417000       1.00800           0
     27086 TIP3     2790     TIP3     H2       HT       0.417000       1.00800           0
     27087 TIP3     2791     TIP3     OH2      OT      -0.834000       15.9994           0
     27088 TIP3     2791     TIP3     H1       HT       0.417000       1.00800           0
     27089 TIP3     2791     TIP3     H2       HT       0.417000       1.00800           0
     27090 TIP3     2792     TIP3     OH2      OT      -0.834000       15.9994           0
     27091 TIP3     2792     TIP3     H1       HT       0.417000       1.00800           0
     27092 TIP3     2792     TIP3     H2       HT       0.417000       1.00800           0
     27093 TIP3     2793     TIP3     OH2      OT      -0.834000       15.9994           0
     27094 TIP3     2793     TIP3     H1       HT       0.417000       1.00800           0
     27095 TIP3     2793     TIP3     H2       HT       0.417000       1.00800           0
     27096 TIP3     2794     TIP3     OH2      OT      -0.834000       15.9994           0
     27097 TIP3     2794     TIP3     H1       HT       0.417000       1.00800           0
     27098 TIP3     2794     TIP3     H2       HT       0.417000       1.00800           0
     27099 TIP3     2795     TIP3     OH2      OT      -0.834000       15.9994           0
     27100 TIP3     2795     TIP3     H1       HT       0.417000       1.00800           0
     27101 TIP3     2795     TIP3     H2       HT       0.417000       1.00800           0
     27102 TIP3     2796     TIP3     OH2      OT      -0.834000       15.9994           0
     27103 TIP3     2796     TIP3     H1       HT       0.417000       1.00800           0
     27104 TIP3     2796     TIP3     H2       HT       0.417000       1.00800           0
     27105 TIP3     2797     TIP3     OH2      OT      -0.834000       15.9994           0
     27106 TIP3     2797     TIP3     H1       HT       0.417000       1.00800           0
     27107 TIP3     2797     TIP3     H2       HT       0.417000       1.00800           0
     27108 TIP3     2798     TIP3     OH2      OT      -0.834000       15.9994           0
     27109 TIP3     2798     TIP3     H1       HT       0.417000       1.00800           0
     27110 TIP3     2798     TIP3     H2       HT       0.417000       1.00800           0
     27111 TIP3     2799     TIP3     OH2      OT      -0.834000       15.9994           0
     27112 TIP3     2799     TIP3     H1       HT       0.417000       1.00800           0
     27113 TIP3     2799     TIP3     H2       HT       0.417000       1.00800           0
     27114 TIP3     2800     TIP3     OH2      OT      -0.834000       15.9994           0
     27115 TIP3     2800     TIP3     H1       HT       0.417000       1.00800           0
     27116 TIP3     2800     TIP3     H2       HT       0.417000       1.00800           0
     27117 TIP3     2801     TIP3     OH2      OT      -0.834000       15.9994           0
     27118 TIP3     2801     TIP3     H1       HT       0.417000       1.00800           0
     27119 TIP3     2801     TIP3     H2       HT       0.417000       1.00800           0
     27120 TIP3     2802     TIP3     OH2      OT      -0.834000       15.9994           0
     27121 TIP3     2802     TIP3     H1       HT       0.417000       1.00800           0
     27122 TIP3     2802     TIP3     H2       HT       0.417000       1.00800           0
     27123 TIP3     2803     TIP3     OH2      OT      -0.834000       15.9994           0
     27124 TIP3     2803     TIP3     H1       HT       0.417000       1.00800           0
     27125 TIP3     2803     TIP3     H2       HT       0.417000       1.00800           0
     27126 TIP3     2804     TIP3     OH2      OT      -0.834000       15.9994           0
     27127 TIP3     2804     TIP3     H1       HT       0.417000       1.00800           0
     27128 TIP3     2804     TIP3     H2       HT       0.417000       1.00800           0
     27129 TIP3     2805     TIP3     OH2      OT      -0.834000       15.9994           0
     27130 TIP3     2805     TIP3     H1       HT       0.417000       1.00800           0
     27131 TIP3     2805     TIP3     H2       HT       0.417000       1.00800           0
     27132 TIP3     2806     TIP3     OH2      OT      -0.834000       15.9994           0
     27133 TIP3     2806     TIP3     H1       HT       0.417000       1.00800           0
     27134 TIP3     2806     TIP3     H2       HT       0.417000       1.00800           0
     27135 TIP3     2807     TIP3     OH2      OT      -0.834000       15.9994           0
     27136 TIP3     2807     TIP3     H1       HT       0.417000       1.00800           0
     27137 TIP3     2807     TIP3     H2       HT       0.417000       1.00800           0
     27138 TIP3     2808     TIP3     OH2      OT      -0.834000       15.9994           0
     27139 TIP3     2808     TIP3     H1       HT       0.417000       1.00800           0
     27140 TIP3     2808     TIP3     H2       HT       0.417000       1.00800           0
     27141 TIP3     2809     TIP3     OH2      OT      -0.834000       15.9994           0
     27142 TIP3     2809     TIP3     H1       HT       0.417000       1.00800           0
     27143 TIP3     2809     TIP3     H2       HT       0.417000       1.00800           0
     27144 TIP3     2810     TIP3     OH2      OT      -0.834000       15.9994           0
     27145 TIP3     2810     TIP3     H1       HT       0.417000       1.00800           0
     27146 TIP3     2810     TIP3     H2       HT       0.417000       1.00800           0
     27147 TIP3     2811     TIP3     OH2      OT      -0.834000       15.9994           0
     27148 TIP3     2811     TIP3     H1       HT       0.417000       1.00800           0
     27149 TIP3     2811     TIP3     H2       HT       0.417000       1.00800           0
     27150 TIP3     2812     TIP3     OH2      OT      -0.834000       15.9994           0
     27151 TIP3     2812     TIP3     H1       HT       0.417000       1.00800           0
     27152 TIP3     2812     TIP3     H2       HT       0.417000       1.00800           0
     27153 TIP3     2813     TIP3     OH2      OT      -0.834000       15.9994           0
     27154 TIP3     2813     TIP3     H1       HT       0.417000       1.00800           0
     27155 TIP3     2813     TIP3     H2       HT       0.417000       1.00800           0
     27156 TIP3     2814     TIP3     OH2      OT      -0.834000       15.9994           0
     27157 TIP3     2814     TIP3     H1       HT       0.417000       1.00800           0
     27158 TIP3     2814     TIP3     H2       HT       0.417000       1.00800           0
     27159 TIP3     2815     TIP3     OH2      OT      -0.834000       15.9994           0
     27160 TIP3     2815     TIP3     H1       HT       0.417000       1.00800           0
     27161 TIP3     2815     TIP3     H2       HT       0.417000       1.00800           0
     27162 TIP3     2816     TIP3     OH2      OT      -0.834000       15.9994           0
     27163 TIP3     2816     TIP3     H1       HT       0.417000       1.00800           0
     27164 TIP3     2816     TIP3     H2       HT       0.417000       1.00800           0
     27165 TIP3     2817     TIP3     OH2      OT      -0.834000       15.9994           0
     27166 TIP3     2817     TIP3     H1       HT       0.417000       1.00800           0
     27167 TIP3     2817     TIP3     H2       HT       0.417000       1.00800           0
     27168 TIP3     2818     TIP3     OH2      OT      -0.834000       15.9994           0
     27169 TIP3     2818     TIP3     H1       HT       0.417000       1.00800           0
     27170 TIP3     2818     TIP3     H2       HT       0.417000       1.00800           0
     27171 TIP3     2819     TIP3     OH2      OT      -0.834000       15.9994           0
     27172 TIP3     2819     TIP3     H1       HT       0.417000       1.00800           0
     27173 TIP3     2819     TIP3     H2       HT       0.417000       1.00800           0
     27174 TIP3     2820     TIP3     OH2      OT      -0.834000       15.9994           0
     27175 TIP3     2820     TIP3     H1       HT       0.417000       1.00800           0
     27176 TIP3     2820     TIP3     H2       HT       0.417000       1.00800           0
     27177 TIP3     2821     TIP3     OH2      OT      -0.834000       15.9994           0
     27178 TIP3     2821     TIP3     H1       HT       0.417000       1.00800           0
     27179 TIP3     2821     TIP3     H2       HT       0.417000       1.00800           0
     27180 TIP3     2822     TIP3     OH2      OT      -0.834000       15.9994           0
     27181 TIP3     2822     TIP3     H1       HT       0.417000       1.00800           0
     27182 TIP3     2822     TIP3     H2       HT       0.417000       1.00800           0
     27183 TIP3     2823     TIP3     OH2      OT      -0.834000       15.9994           0
     27184 TIP3     2823     TIP3     H1       HT       0.417000       1.00800           0
     27185 TIP3     2823     TIP3     H2       HT       0.417000       1.00800           0
     27186 TIP3     2824     TIP3     OH2      OT      -0.834000       15.9994           0
     27187 TIP3     2824     TIP3     H1       HT       0.417000       1.00800           0
     27188 TIP3     2824     TIP3     H2       HT       0.417000       1.00800           0
     27189 TIP3     2825     TIP3     OH2      OT      -0.834000       15.9994           0
     27190 TIP3     2825     TIP3     H1       HT       0.417000       1.00800           0
     27191 TIP3     2825     TIP3     H2       HT       0.417000       1.00800           0
     27192 TIP3     2826     TIP3     OH2      OT      -0.834000       15.9994           0
     27193 TIP3     2826     TIP3     H1       HT       0.417000       1.00800           0
     27194 TIP3     2826     TIP3     H2       HT       0.417000       1.00800           0
     27195 TIP3     2827     TIP3     OH2      OT      -0.834000       15.9994           0
     27196 TIP3     2827     TIP3     H1       HT       0.417000       1.00800           0
     27197 TIP3     2827     TIP3     H2       HT       0.417000       1.00800           0
     27198 TIP3     2828     TIP3     OH2      OT      -0.834000       15.9994           0
     27199 TIP3     2828     TIP3     H1       HT       0.417000       1.00800           0
     27200 TIP3     2828     TIP3     H2       HT       0.417000       1.00800           0
     27201 TIP3     2829     TIP3     OH2      OT      -0.834000       15.9994           0
     27202 TIP3     2829     TIP3     H1       HT       0.417000       1.00800           0
     27203 TIP3     2829     TIP3     H2       HT       0.417000       1.00800           0
     27204 TIP3     2830     TIP3     OH2      OT      -0.834000       15.9994           0
     27205 TIP3     2830     TIP3     H1       HT       0.417000       1.00800           0
     27206 TIP3     2830     TIP3     H2       HT       0.417000       1.00800           0
     27207 TIP3     2831     TIP3     OH2      OT      -0.834000       15.9994           0
     27208 TIP3     2831     TIP3     H1       HT       0.417000       1.00800           0
     27209 TIP3     2831     TIP3     H2       HT       0.417000       1.00800           0
     27210 TIP3     2832     TIP3     OH2      OT      -0.834000       15.9994           0
     27211 TIP3     2832     TIP3     H1       HT       0.417000       1.00800           0
     27212 TIP3     2832     TIP3     H2       HT       0.417000       1.00800           0
     27213 TIP3     2833     TIP3     OH2      OT      -0.834000       15.9994           0
     27214 TIP3     2833     TIP3     H1       HT       0.417000       1.00800           0
     27215 TIP3     2833     TIP3     H2       HT       0.417000       1.00800           0
     27216 TIP3     2834     TIP3     OH2      OT      -0.834000       15.9994           0
     27217 TIP3     2834     TIP3     H1       HT       0.417000       1.00800           0
     27218 TIP3     2834     TIP3     H2       HT       0.417000       1.00800           0
     27219 TIP3     2835     TIP3     OH2      OT      -0.834000       15.9994           0
     27220 TIP3     2835     TIP3     H1       HT       0.417000       1.00800           0
     27221 TIP3     2835     TIP3     H2       HT       0.417000       1.00800           0
     27222 TIP3     2836     TIP3     OH2      OT      -0.834000       15.9994           0
     27223 TIP3     2836     TIP3     H1       HT       0.417000       1.00800           0
     27224 TIP3     2836     TIP3     H2       HT       0.417000       1.00800           0
     27225 TIP3     2837     TIP3     OH2      OT      -0.834000       15.9994           0
     27226 TIP3     2837     TIP3     H1       HT       0.417000       1.00800           0
     27227 TIP3     2837     TIP3     H2       HT       0.417000       1.00800           0
     27228 TIP3     2838     TIP3     OH2      OT      -0.834000       15.9994           0
     27229 TIP3     2838     TIP3     H1       HT       0.417000       1.00800           0
     27230 TIP3     2838     TIP3     H2       HT       0.417000       1.00800           0
     27231 TIP3     2839     TIP3     OH2      OT      -0.834000       15.9994           0
     27232 TIP3     2839     TIP3     H1       HT       0.417000       1.00800           0
     27233 TIP3     2839     TIP3     H2       HT       0.417000       1.00800           0
     27234 TIP3     2840     TIP3     OH2      OT      -0.834000       15.9994           0
     27235 TIP3     2840     TIP3     H1       HT       0.417000       1.00800           0
     27236 TIP3     2840     TIP3     H2       HT       0.417000       1.00800           0
     27237 TIP3     2841     TIP3     OH2      OT      -0.834000       15.9994           0
     27238 TIP3     2841     TIP3     H1       HT       0.417000       1.00800           0
     27239 TIP3     2841     TIP3     H2       HT       0.417000       1.00800           0
     27240 TIP3     2842     TIP3     OH2      OT      -0.834000       15.9994           0
     27241 TIP3     2842     TIP3     H1       HT       0.417000       1.00800           0
     27242 TIP3     2842     TIP3     H2       HT       0.417000       1.00800           0
     27243 TIP3     2843     TIP3     OH2      OT      -0.834000       15.9994           0
     27244 TIP3     2843     TIP3     H1       HT       0.417000       1.00800           0
     27245 TIP3     2843     TIP3     H2       HT       0.417000       1.00800           0
     27246 TIP3     2844     TIP3     OH2      OT      -0.834000       15.9994           0
     27247 TIP3     2844     TIP3     H1       HT       0.417000       1.00800           0
     27248 TIP3     2844     TIP3     H2       HT       0.417000       1.00800           0
     27249 TIP3     2845     TIP3     OH2      OT      -0.834000       15.9994           0
     27250 TIP3     2845     TIP3     H1       HT       0.417000       1.00800           0
     27251 TIP3     2845     TIP3     H2       HT       0.417000       1.00800           0
     27252 TIP3     2846     TIP3     OH2      OT      -0.834000       15.9994           0
     27253 TIP3     2846     TIP3     H1       HT       0.417000       1.00800           0
     27254 TIP3     2846     TIP3     H2       HT       0.417000       1.00800           0
     27255 TIP3     2847     TIP3     OH2      OT      -0.834000       15.9994           0
     27256 TIP3     2847     TIP3     H1       HT       0.417000       1.00800           0
     27257 TIP3     2847     TIP3     H2       HT       0.417000       1.00800           0
     27258 TIP3     2848     TIP3     OH2      OT      -0.834000       15.9994           0
     27259 TIP3     2848     TIP3     H1       HT       0.417000       1.00800           0
     27260 TIP3     2848     TIP3     H2       HT       0.417000       1.00800           0
     27261 TIP3     2849     TIP3     OH2      OT      -0.834000       15.9994           0
     27262 TIP3     2849     TIP3     H1       HT       0.417000       1.00800           0
     27263 TIP3     2849     TIP3     H2       HT       0.417000       1.00800           0
     27264 TIP3     2850     TIP3     OH2      OT      -0.834000       15.9994           0
     27265 TIP3     2850     TIP3     H1       HT       0.417000       1.00800           0
     27266 TIP3     2850     TIP3     H2       HT       0.417000       1.00800           0
     27267 TIP3     2851     TIP3     OH2      OT      -0.834000       15.9994           0
     27268 TIP3     2851     TIP3     H1       HT       0.417000       1.00800           0
     27269 TIP3     2851     TIP3     H2       HT       0.417000       1.00800           0
     27270 TIP3     2852     TIP3     OH2      OT      -0.834000       15.9994           0
     27271 TIP3     2852     TIP3     H1       HT       0.417000       1.00800           0
     27272 TIP3     2852     TIP3     H2       HT       0.417000       1.00800           0
     27273 TIP3     2853     TIP3     OH2      OT      -0.834000       15.9994           0
     27274 TIP3     2853     TIP3     H1       HT       0.417000       1.00800           0
     27275 TIP3     2853     TIP3     H2       HT       0.417000       1.00800           0
     27276 TIP3     2854     TIP3     OH2      OT      -0.834000       15.9994           0
     27277 TIP3     2854     TIP3     H1       HT       0.417000       1.00800           0
     27278 TIP3     2854     TIP3     H2       HT       0.417000       1.00800           0
     27279 TIP3     2855     TIP3     OH2      OT      -0.834000       15.9994           0
     27280 TIP3     2855     TIP3     H1       HT       0.417000       1.00800           0
     27281 TIP3     2855     TIP3     H2       HT       0.417000       1.00800           0
     27282 TIP3     2856     TIP3     OH2      OT      -0.834000       15.9994           0
     27283 TIP3     2856     TIP3     H1       HT       0.417000       1.00800           0
     27284 TIP3     2856     TIP3     H2       HT       0.417000       1.00800           0
     27285 TIP3     2857     TIP3     OH2      OT      -0.834000       15.9994           0
     27286 TIP3     2857     TIP3     H1       HT       0.417000       1.00800           0
     27287 TIP3     2857     TIP3     H2       HT       0.417000       1.00800           0
     27288 TIP3     2858     TIP3     OH2      OT      -0.834000       15.9994           0
     27289 TIP3     2858     TIP3     H1       HT       0.417000       1.00800           0
     27290 TIP3     2858     TIP3     H2       HT       0.417000       1.00800           0
     27291 TIP3     2859     TIP3     OH2      OT      -0.834000       15.9994           0
     27292 TIP3     2859     TIP3     H1       HT       0.417000       1.00800           0
     27293 TIP3     2859     TIP3     H2       HT       0.417000       1.00800           0
     27294 TIP3     2860     TIP3     OH2      OT      -0.834000       15.9994           0
     27295 TIP3     2860     TIP3     H1       HT       0.417000       1.00800           0
     27296 TIP3     2860     TIP3     H2       HT       0.417000       1.00800           0
     27297 TIP3     2861     TIP3     OH2      OT      -0.834000       15.9994           0
     27298 TIP3     2861     TIP3     H1       HT       0.417000       1.00800           0
     27299 TIP3     2861     TIP3     H2       HT       0.417000       1.00800           0
     27300 TIP3     2862     TIP3     OH2      OT      -0.834000       15.9994           0
     27301 TIP3     2862     TIP3     H1       HT       0.417000       1.00800           0
     27302 TIP3     2862     TIP3     H2       HT       0.417000       1.00800           0
     27303 TIP3     2863     TIP3     OH2      OT      -0.834000       15.9994           0
     27304 TIP3     2863     TIP3     H1       HT       0.417000       1.00800           0
     27305 TIP3     2863     TIP3     H2       HT       0.417000       1.00800           0
     27306 TIP3     2864     TIP3     OH2      OT      -0.834000       15.9994           0
     27307 TIP3     2864     TIP3     H1       HT       0.417000       1.00800           0
     27308 TIP3     2864     TIP3     H2       HT       0.417000       1.00800           0
     27309 TIP3     2865     TIP3     OH2      OT      -0.834000       15.9994           0
     27310 TIP3     2865     TIP3     H1       HT       0.417000       1.00800           0
     27311 TIP3     2865     TIP3     H2       HT       0.417000       1.00800           0
     27312 TIP3     2866     TIP3     OH2      OT      -0.834000       15.9994           0
     27313 TIP3     2866     TIP3     H1       HT       0.417000       1.00800           0
     27314 TIP3     2866     TIP3     H2       HT       0.417000       1.00800           0
     27315 TIP3     2867     TIP3     OH2      OT      -0.834000       15.9994           0
     27316 TIP3     2867     TIP3     H1       HT       0.417000       1.00800           0
     27317 TIP3     2867     TIP3     H2       HT       0.417000       1.00800           0
     27318 TIP3     2868     TIP3     OH2      OT      -0.834000       15.9994           0
     27319 TIP3     2868     TIP3     H1       HT       0.417000       1.00800           0
     27320 TIP3     2868     TIP3     H2       HT       0.417000       1.00800           0
     27321 TIP3     2869     TIP3     OH2      OT      -0.834000       15.9994           0
     27322 TIP3     2869     TIP3     H1       HT       0.417000       1.00800           0
     27323 TIP3     2869     TIP3     H2       HT       0.417000       1.00800           0
     27324 TIP3     2870     TIP3     OH2      OT      -0.834000       15.9994           0
     27325 TIP3     2870     TIP3     H1       HT       0.417000       1.00800           0
     27326 TIP3     2870     TIP3     H2       HT       0.417000       1.00800           0
     27327 TIP3     2871     TIP3     OH2      OT      -0.834000       15.9994           0
     27328 TIP3     2871     TIP3     H1       HT       0.417000       1.00800           0
     27329 TIP3     2871     TIP3     H2       HT       0.417000       1.00800           0
     27330 TIP3     2872     TIP3     OH2      OT      -0.834000       15.9994           0
     27331 TIP3     2872     TIP3     H1       HT       0.417000       1.00800           0
     27332 TIP3     2872     TIP3     H2       HT       0.417000       1.00800           0
     27333 TIP3     2873     TIP3     OH2      OT      -0.834000       15.9994           0
     27334 TIP3     2873     TIP3     H1       HT       0.417000       1.00800           0
     27335 TIP3     2873     TIP3     H2       HT       0.417000       1.00800           0
     27336 TIP3     2874     TIP3     OH2      OT      -0.834000       15.9994           0
     27337 TIP3     2874     TIP3     H1       HT       0.417000       1.00800           0
     27338 TIP3     2874     TIP3     H2       HT       0.417000       1.00800           0
     27339 TIP3     2875     TIP3     OH2      OT      -0.834000       15.9994           0
     27340 TIP3     2875     TIP3     H1       HT       0.417000       1.00800           0
     27341 TIP3     2875     TIP3     H2       HT       0.417000       1.00800           0
     27342 TIP3     2876     TIP3     OH2      OT      -0.834000       15.9994           0
     27343 TIP3     2876     TIP3     H1       HT       0.417000       1.00800           0
     27344 TIP3     2876     TIP3     H2       HT       0.417000       1.00800           0
     27345 TIP3     2877     TIP3     OH2      OT      -0.834000       15.9994           0
     27346 TIP3     2877     TIP3     H1       HT       0.417000       1.00800           0
     27347 TIP3     2877     TIP3     H2       HT       0.417000       1.00800           0
     27348 TIP3     2878     TIP3     OH2      OT      -0.834000       15.9994           0
     27349 TIP3     2878     TIP3     H1       HT       0.417000       1.00800           0
     27350 TIP3     2878     TIP3     H2       HT       0.417000       1.00800           0
     27351 TIP3     2879     TIP3     OH2      OT      -0.834000       15.9994           0
     27352 TIP3     2879     TIP3     H1       HT       0.417000       1.00800           0
     27353 TIP3     2879     TIP3     H2       HT       0.417000       1.00800           0
     27354 TIP3     2880     TIP3     OH2      OT      -0.834000       15.9994           0
     27355 TIP3     2880     TIP3     H1       HT       0.417000       1.00800           0
     27356 TIP3     2880     TIP3     H2       HT       0.417000       1.00800           0
     27357 TIP3     2881     TIP3     OH2      OT      -0.834000       15.9994           0
     27358 TIP3     2881     TIP3     H1       HT       0.417000       1.00800           0
     27359 TIP3     2881     TIP3     H2       HT       0.417000       1.00800           0
     27360 TIP3     2882     TIP3     OH2      OT      -0.834000       15.9994           0
     27361 TIP3     2882     TIP3     H1       HT       0.417000       1.00800           0
     27362 TIP3     2882     TIP3     H2       HT       0.417000       1.00800           0
     27363 TIP3     2883     TIP3     OH2      OT      -0.834000       15.9994           0
     27364 TIP3     2883     TIP3     H1       HT       0.417000       1.00800           0
     27365 TIP3     2883     TIP3     H2       HT       0.417000       1.00800           0
     27366 TIP3     2884     TIP3     OH2      OT      -0.834000       15.9994           0
     27367 TIP3     2884     TIP3     H1       HT       0.417000       1.00800           0
     27368 TIP3     2884     TIP3     H2       HT       0.417000       1.00800           0
     27369 TIP3     2885     TIP3     OH2      OT      -0.834000       15.9994           0
     27370 TIP3     2885     TIP3     H1       HT       0.417000       1.00800           0
     27371 TIP3     2885     TIP3     H2       HT       0.417000       1.00800           0
     27372 TIP3     2886     TIP3     OH2      OT      -0.834000       15.9994           0
     27373 TIP3     2886     TIP3     H1       HT       0.417000       1.00800           0
     27374 TIP3     2886     TIP3     H2       HT       0.417000       1.00800           0
     27375 TIP3     2887     TIP3     OH2      OT      -0.834000       15.9994           0
     27376 TIP3     2887     TIP3     H1       HT       0.417000       1.00800           0
     27377 TIP3     2887     TIP3     H2       HT       0.417000       1.00800           0
     27378 TIP3     2888     TIP3     OH2      OT      -0.834000       15.9994           0
     27379 TIP3     2888     TIP3     H1       HT       0.417000       1.00800           0
     27380 TIP3     2888     TIP3     H2       HT       0.417000       1.00800           0
     27381 TIP3     2889     TIP3     OH2      OT      -0.834000       15.9994           0
     27382 TIP3     2889     TIP3     H1       HT       0.417000       1.00800           0
     27383 TIP3     2889     TIP3     H2       HT       0.417000       1.00800           0
     27384 TIP3     2890     TIP3     OH2      OT      -0.834000       15.9994           0
     27385 TIP3     2890     TIP3     H1       HT       0.417000       1.00800           0
     27386 TIP3     2890     TIP3     H2       HT       0.417000       1.00800           0
     27387 TIP3     2891     TIP3     OH2      OT      -0.834000       15.9994           0
     27388 TIP3     2891     TIP3     H1       HT       0.417000       1.00800           0
     27389 TIP3     2891     TIP3     H2       HT       0.417000       1.00800           0
     27390 TIP3     2892     TIP3     OH2      OT      -0.834000       15.9994           0
     27391 TIP3     2892     TIP3     H1       HT       0.417000       1.00800           0
     27392 TIP3     2892     TIP3     H2       HT       0.417000       1.00800           0
     27393 TIP3     2893     TIP3     OH2      OT      -0.834000       15.9994           0
     27394 TIP3     2893     TIP3     H1       HT       0.417000       1.00800           0
     27395 TIP3     2893     TIP3     H2       HT       0.417000       1.00800           0
     27396 TIP3     2894     TIP3     OH2      OT      -0.834000       15.9994           0
     27397 TIP3     2894     TIP3     H1       HT       0.417000       1.00800           0
     27398 TIP3     2894     TIP3     H2       HT       0.417000       1.00800           0
     27399 TIP3     2895     TIP3     OH2      OT      -0.834000       15.9994           0
     27400 TIP3     2895     TIP3     H1       HT       0.417000       1.00800           0
     27401 TIP3     2895     TIP3     H2       HT       0.417000       1.00800           0
     27402 TIP3     2896     TIP3     OH2      OT      -0.834000       15.9994           0
     27403 TIP3     2896     TIP3     H1       HT       0.417000       1.00800           0
     27404 TIP3     2896     TIP3     H2       HT       0.417000       1.00800           0
     27405 TIP3     2897     TIP3     OH2      OT      -0.834000       15.9994           0
     27406 TIP3     2897     TIP3     H1       HT       0.417000       1.00800           0
     27407 TIP3     2897     TIP3     H2       HT       0.417000       1.00800           0
     27408 TIP3     2898     TIP3     OH2      OT      -0.834000       15.9994           0
     27409 TIP3     2898     TIP3     H1       HT       0.417000       1.00800           0
     27410 TIP3     2898     TIP3     H2       HT       0.417000       1.00800           0
     27411 TIP3     2899     TIP3     OH2      OT      -0.834000       15.9994           0
     27412 TIP3     2899     TIP3     H1       HT       0.417000       1.00800           0
     27413 TIP3     2899     TIP3     H2       HT       0.417000       1.00800           0
     27414 TIP3     2900     TIP3     OH2      OT      -0.834000       15.9994           0
     27415 TIP3     2900     TIP3     H1       HT       0.417000       1.00800           0
     27416 TIP3     2900     TIP3     H2       HT       0.417000       1.00800           0
     27417 TIP3     2901     TIP3     OH2      OT      -0.834000       15.9994           0
     27418 TIP3     2901     TIP3     H1       HT       0.417000       1.00800           0
     27419 TIP3     2901     TIP3     H2       HT       0.417000       1.00800           0
     27420 TIP3     2902     TIP3     OH2      OT      -0.834000       15.9994           0
     27421 TIP3     2902     TIP3     H1       HT       0.417000       1.00800           0
     27422 TIP3     2902     TIP3     H2       HT       0.417000       1.00800           0
     27423 TIP3     2903     TIP3     OH2      OT      -0.834000       15.9994           0
     27424 TIP3     2903     TIP3     H1       HT       0.417000       1.00800           0
     27425 TIP3     2903     TIP3     H2       HT       0.417000       1.00800           0
     27426 TIP3     2904     TIP3     OH2      OT      -0.834000       15.9994           0
     27427 TIP3     2904     TIP3     H1       HT       0.417000       1.00800           0
     27428 TIP3     2904     TIP3     H2       HT       0.417000       1.00800           0
     27429 TIP3     2905     TIP3     OH2      OT      -0.834000       15.9994           0
     27430 TIP3     2905     TIP3     H1       HT       0.417000       1.00800           0
     27431 TIP3     2905     TIP3     H2       HT       0.417000       1.00800           0
     27432 TIP3     2906     TIP3     OH2      OT      -0.834000       15.9994           0
     27433 TIP3     2906     TIP3     H1       HT       0.417000       1.00800           0
     27434 TIP3     2906     TIP3     H2       HT       0.417000       1.00800           0
     27435 TIP3     2907     TIP3     OH2      OT      -0.834000       15.9994           0
     27436 TIP3     2907     TIP3     H1       HT       0.417000       1.00800           0
     27437 TIP3     2907     TIP3     H2       HT       0.417000       1.00800           0
     27438 TIP3     2908     TIP3     OH2      OT      -0.834000       15.9994           0
     27439 TIP3     2908     TIP3     H1       HT       0.417000       1.00800           0
     27440 TIP3     2908     TIP3     H2       HT       0.417000       1.00800           0
     27441 TIP3     2909     TIP3     OH2      OT      -0.834000       15.9994           0
     27442 TIP3     2909     TIP3     H1       HT       0.417000       1.00800           0
     27443 TIP3     2909     TIP3     H2       HT       0.417000       1.00800           0
     27444 TIP3     2910     TIP3     OH2      OT      -0.834000       15.9994           0
     27445 TIP3     2910     TIP3     H1       HT       0.417000       1.00800           0
     27446 TIP3     2910     TIP3     H2       HT       0.417000       1.00800           0
     27447 TIP3     2911     TIP3     OH2      OT      -0.834000       15.9994           0
     27448 TIP3     2911     TIP3     H1       HT       0.417000       1.00800           0
     27449 TIP3     2911     TIP3     H2       HT       0.417000       1.00800           0
     27450 TIP3     2912     TIP3     OH2      OT      -0.834000       15.9994           0
     27451 TIP3     2912     TIP3     H1       HT       0.417000       1.00800           0
     27452 TIP3     2912     TIP3     H2       HT       0.417000       1.00800           0
     27453 TIP3     2913     TIP3     OH2      OT      -0.834000       15.9994           0
     27454 TIP3     2913     TIP3     H1       HT       0.417000       1.00800           0
     27455 TIP3     2913     TIP3     H2       HT       0.417000       1.00800           0
     27456 TIP3     2914     TIP3     OH2      OT      -0.834000       15.9994           0
     27457 TIP3     2914     TIP3     H1       HT       0.417000       1.00800           0
     27458 TIP3     2914     TIP3     H2       HT       0.417000       1.00800           0
     27459 TIP3     2915     TIP3     OH2      OT      -0.834000       15.9994           0
     27460 TIP3     2915     TIP3     H1       HT       0.417000       1.00800           0
     27461 TIP3     2915     TIP3     H2       HT       0.417000       1.00800           0
     27462 TIP3     2916     TIP3     OH2      OT      -0.834000       15.9994           0
     27463 TIP3     2916     TIP3     H1       HT       0.417000       1.00800           0
     27464 TIP3     2916     TIP3     H2       HT       0.417000       1.00800           0
     27465 TIP3     2917     TIP3     OH2      OT      -0.834000       15.9994           0
     27466 TIP3     2917     TIP3     H1       HT       0.417000       1.00800           0
     27467 TIP3     2917     TIP3     H2       HT       0.417000       1.00800           0
     27468 TIP3     2918     TIP3     OH2      OT      -0.834000       15.9994           0
     27469 TIP3     2918     TIP3     H1       HT       0.417000       1.00800           0
     27470 TIP3     2918     TIP3     H2       HT       0.417000       1.00800           0
     27471 TIP3     2919     TIP3     OH2      OT      -0.834000       15.9994           0
     27472 TIP3     2919     TIP3     H1       HT       0.417000       1.00800           0
     27473 TIP3     2919     TIP3     H2       HT       0.417000       1.00800           0
     27474 TIP3     2920     TIP3     OH2      OT      -0.834000       15.9994           0
     27475 TIP3     2920     TIP3     H1       HT       0.417000       1.00800           0
     27476 TIP3     2920     TIP3     H2       HT       0.417000       1.00800           0
     27477 TIP3     2921     TIP3     OH2      OT      -0.834000       15.9994           0
     27478 TIP3     2921     TIP3     H1       HT       0.417000       1.00800           0
     27479 TIP3     2921     TIP3     H2       HT       0.417000       1.00800           0
     27480 TIP3     2922     TIP3     OH2      OT      -0.834000       15.9994           0
     27481 TIP3     2922     TIP3     H1       HT       0.417000       1.00800           0
     27482 TIP3     2922     TIP3     H2       HT       0.417000       1.00800           0
     27483 TIP3     2923     TIP3     OH2      OT      -0.834000       15.9994           0
     27484 TIP3     2923     TIP3     H1       HT       0.417000       1.00800           0
     27485 TIP3     2923     TIP3     H2       HT       0.417000       1.00800           0
     27486 TIP3     2924     TIP3     OH2      OT      -0.834000       15.9994           0
     27487 TIP3     2924     TIP3     H1       HT       0.417000       1.00800           0
     27488 TIP3     2924     TIP3     H2       HT       0.417000       1.00800           0
     27489 TIP3     2925     TIP3     OH2      OT      -0.834000       15.9994           0
     27490 TIP3     2925     TIP3     H1       HT       0.417000       1.00800           0
     27491 TIP3     2925     TIP3     H2       HT       0.417000       1.00800           0
     27492 TIP3     2926     TIP3     OH2      OT      -0.834000       15.9994           0
     27493 TIP3     2926     TIP3     H1       HT       0.417000       1.00800           0
     27494 TIP3     2926     TIP3     H2       HT       0.417000       1.00800           0
     27495 TIP3     2927     TIP3     OH2      OT      -0.834000       15.9994           0
     27496 TIP3     2927     TIP3     H1       HT       0.417000       1.00800           0
     27497 TIP3     2927     TIP3     H2       HT       0.417000       1.00800           0
     27498 TIP3     2928     TIP3     OH2      OT      -0.834000       15.9994           0
     27499 TIP3     2928     TIP3     H1       HT       0.417000       1.00800           0
     27500 TIP3     2928     TIP3     H2       HT       0.417000       1.00800           0
     27501 TIP3     2929     TIP3     OH2      OT      -0.834000       15.9994           0
     27502 TIP3     2929     TIP3     H1       HT       0.417000       1.00800           0
     27503 TIP3     2929     TIP3     H2       HT       0.417000       1.00800           0
     27504 TIP3     2930     TIP3     OH2      OT      -0.834000       15.9994           0
     27505 TIP3     2930     TIP3     H1       HT       0.417000       1.00800           0
     27506 TIP3     2930     TIP3     H2       HT       0.417000       1.00800           0
     27507 TIP3     2931     TIP3     OH2      OT      -0.834000       15.9994           0
     27508 TIP3     2931     TIP3     H1       HT       0.417000       1.00800           0
     27509 TIP3     2931     TIP3     H2       HT       0.417000       1.00800           0
     27510 TIP3     2932     TIP3     OH2      OT      -0.834000       15.9994           0
     27511 TIP3     2932     TIP3     H1       HT       0.417000       1.00800           0
     27512 TIP3     2932     TIP3     H2       HT       0.417000       1.00800           0
     27513 TIP3     2933     TIP3     OH2      OT      -0.834000       15.9994           0
     27514 TIP3     2933     TIP3     H1       HT       0.417000       1.00800           0
     27515 TIP3     2933     TIP3     H2       HT       0.417000       1.00800           0
     27516 TIP3     2934     TIP3     OH2      OT      -0.834000       15.9994           0
     27517 TIP3     2934     TIP3     H1       HT       0.417000       1.00800           0
     27518 TIP3     2934     TIP3     H2       HT       0.417000       1.00800           0
     27519 TIP3     2935     TIP3     OH2      OT      -0.834000       15.9994           0
     27520 TIP3     2935     TIP3     H1       HT       0.417000       1.00800           0
     27521 TIP3     2935     TIP3     H2       HT       0.417000       1.00800           0
     27522 TIP3     2936     TIP3     OH2      OT      -0.834000       15.9994           0
     27523 TIP3     2936     TIP3     H1       HT       0.417000       1.00800           0
     27524 TIP3     2936     TIP3     H2       HT       0.417000       1.00800           0
     27525 TIP3     2937     TIP3     OH2      OT      -0.834000       15.9994           0
     27526 TIP3     2937     TIP3     H1       HT       0.417000       1.00800           0
     27527 TIP3     2937     TIP3     H2       HT       0.417000       1.00800           0
     27528 TIP3     2938     TIP3     OH2      OT      -0.834000       15.9994           0
     27529 TIP3     2938     TIP3     H1       HT       0.417000       1.00800           0
     27530 TIP3     2938     TIP3     H2       HT       0.417000       1.00800           0
     27531 TIP3     2939     TIP3     OH2      OT      -0.834000       15.9994           0
     27532 TIP3     2939     TIP3     H1       HT       0.417000       1.00800           0
     27533 TIP3     2939     TIP3     H2       HT       0.417000       1.00800           0
     27534 TIP3     2940     TIP3     OH2      OT      -0.834000       15.9994           0
     27535 TIP3     2940     TIP3     H1       HT       0.417000       1.00800           0
     27536 TIP3     2940     TIP3     H2       HT       0.417000       1.00800           0
     27537 TIP3     2941     TIP3     OH2      OT      -0.834000       15.9994           0
     27538 TIP3     2941     TIP3     H1       HT       0.417000       1.00800           0
     27539 TIP3     2941     TIP3     H2       HT       0.417000       1.00800           0
     27540 TIP3     2942     TIP3     OH2      OT      -0.834000       15.9994           0
     27541 TIP3     2942     TIP3     H1       HT       0.417000       1.00800           0
     27542 TIP3     2942     TIP3     H2       HT       0.417000       1.00800           0
     27543 TIP3     2943     TIP3     OH2      OT      -0.834000       15.9994           0
     27544 TIP3     2943     TIP3     H1       HT       0.417000       1.00800           0
     27545 TIP3     2943     TIP3     H2       HT       0.417000       1.00800           0
     27546 TIP3     2944     TIP3     OH2      OT      -0.834000       15.9994           0
     27547 TIP3     2944     TIP3     H1       HT       0.417000       1.00800           0
     27548 TIP3     2944     TIP3     H2       HT       0.417000       1.00800           0
     27549 TIP3     2945     TIP3     OH2      OT      -0.834000       15.9994           0
     27550 TIP3     2945     TIP3     H1       HT       0.417000       1.00800           0
     27551 TIP3     2945     TIP3     H2       HT       0.417000       1.00800           0
     27552 TIP3     2946     TIP3     OH2      OT      -0.834000       15.9994           0
     27553 TIP3     2946     TIP3     H1       HT       0.417000       1.00800           0
     27554 TIP3     2946     TIP3     H2       HT       0.417000       1.00800           0
     27555 TIP3     2947     TIP3     OH2      OT      -0.834000       15.9994           0
     27556 TIP3     2947     TIP3     H1       HT       0.417000       1.00800           0
     27557 TIP3     2947     TIP3     H2       HT       0.417000       1.00800           0
     27558 TIP3     2948     TIP3     OH2      OT      -0.834000       15.9994           0
     27559 TIP3     2948     TIP3     H1       HT       0.417000       1.00800           0
     27560 TIP3     2948     TIP3     H2       HT       0.417000       1.00800           0
     27561 TIP3     2949     TIP3     OH2      OT      -0.834000       15.9994           0
     27562 TIP3     2949     TIP3     H1       HT       0.417000       1.00800           0
     27563 TIP3     2949     TIP3     H2       HT       0.417000       1.00800           0
     27564 TIP3     2950     TIP3     OH2      OT      -0.834000       15.9994           0
     27565 TIP3     2950     TIP3     H1       HT       0.417000       1.00800           0
     27566 TIP3     2950     TIP3     H2       HT       0.417000       1.00800           0
     27567 TIP3     2951     TIP3     OH2      OT      -0.834000       15.9994           0
     27568 TIP3     2951     TIP3     H1       HT       0.417000       1.00800           0
     27569 TIP3     2951     TIP3     H2       HT       0.417000       1.00800           0
     27570 TIP3     2952     TIP3     OH2      OT      -0.834000       15.9994           0
     27571 TIP3     2952     TIP3     H1       HT       0.417000       1.00800           0
     27572 TIP3     2952     TIP3     H2       HT       0.417000       1.00800           0
     27573 TIP3     2953     TIP3     OH2      OT      -0.834000       15.9994           0
     27574 TIP3     2953     TIP3     H1       HT       0.417000       1.00800           0
     27575 TIP3     2953     TIP3     H2       HT       0.417000       1.00800           0
     27576 TIP3     2954     TIP3     OH2      OT      -0.834000       15.9994           0
     27577 TIP3     2954     TIP3     H1       HT       0.417000       1.00800           0
     27578 TIP3     2954     TIP3     H2       HT       0.417000       1.00800           0
     27579 TIP3     2955     TIP3     OH2      OT      -0.834000       15.9994           0
     27580 TIP3     2955     TIP3     H1       HT       0.417000       1.00800           0
     27581 TIP3     2955     TIP3     H2       HT       0.417000       1.00800           0
     27582 TIP3     2956     TIP3     OH2      OT      -0.834000       15.9994           0
     27583 TIP3     2956     TIP3     H1       HT       0.417000       1.00800           0
     27584 TIP3     2956     TIP3     H2       HT       0.417000       1.00800           0
     27585 TIP3     2957     TIP3     OH2      OT      -0.834000       15.9994           0
     27586 TIP3     2957     TIP3     H1       HT       0.417000       1.00800           0
     27587 TIP3     2957     TIP3     H2       HT       0.417000       1.00800           0
     27588 TIP3     2958     TIP3     OH2      OT      -0.834000       15.9994           0
     27589 TIP3     2958     TIP3     H1       HT       0.417000       1.00800           0
     27590 TIP3     2958     TIP3     H2       HT       0.417000       1.00800           0
     27591 TIP3     2959     TIP3     OH2      OT      -0.834000       15.9994           0
     27592 TIP3     2959     TIP3     H1       HT       0.417000       1.00800           0
     27593 TIP3     2959     TIP3     H2       HT       0.417000       1.00800           0
     27594 TIP3     2960     TIP3     OH2      OT      -0.834000       15.9994           0
     27595 TIP3     2960     TIP3     H1       HT       0.417000       1.00800           0
     27596 TIP3     2960     TIP3     H2       HT       0.417000       1.00800           0
     27597 TIP3     2961     TIP3     OH2      OT      -0.834000       15.9994           0
     27598 TIP3     2961     TIP3     H1       HT       0.417000       1.00800           0
     27599 TIP3     2961     TIP3     H2       HT       0.417000       1.00800           0
     27600 TIP3     2962     TIP3     OH2      OT      -0.834000       15.9994           0
     27601 TIP3     2962     TIP3     H1       HT       0.417000       1.00800           0
     27602 TIP3     2962     TIP3     H2       HT       0.417000       1.00800           0
     27603 TIP3     2963     TIP3     OH2      OT      -0.834000       15.9994           0
     27604 TIP3     2963     TIP3     H1       HT       0.417000       1.00800           0
     27605 TIP3     2963     TIP3     H2       HT       0.417000       1.00800           0
     27606 TIP3     2964     TIP3     OH2      OT      -0.834000       15.9994           0
     27607 TIP3     2964     TIP3     H1       HT       0.417000       1.00800           0
     27608 TIP3     2964     TIP3     H2       HT       0.417000       1.00800           0
     27609 TIP3     2965     TIP3     OH2      OT      -0.834000       15.9994           0
     27610 TIP3     2965     TIP3     H1       HT       0.417000       1.00800           0
     27611 TIP3     2965     TIP3     H2       HT       0.417000       1.00800           0
     27612 TIP3     2966     TIP3     OH2      OT      -0.834000       15.9994           0
     27613 TIP3     2966     TIP3     H1       HT       0.417000       1.00800           0
     27614 TIP3     2966     TIP3     H2       HT       0.417000       1.00800           0
     27615 TIP3     2967     TIP3     OH2      OT      -0.834000       15.9994           0
     27616 TIP3     2967     TIP3     H1       HT       0.417000       1.00800           0
     27617 TIP3     2967     TIP3     H2       HT       0.417000       1.00800           0
     27618 TIP3     2968     TIP3     OH2      OT      -0.834000       15.9994           0
     27619 TIP3     2968     TIP3     H1       HT       0.417000       1.00800           0
     27620 TIP3     2968     TIP3     H2       HT       0.417000       1.00800           0
     27621 TIP3     2969     TIP3     OH2      OT      -0.834000       15.9994           0
     27622 TIP3     2969     TIP3     H1       HT       0.417000       1.00800           0
     27623 TIP3     2969     TIP3     H2       HT       0.417000       1.00800           0
     27624 TIP3     2970     TIP3     OH2      OT      -0.834000       15.9994           0
     27625 TIP3     2970     TIP3     H1       HT       0.417000       1.00800           0
     27626 TIP3     2970     TIP3     H2       HT       0.417000       1.00800           0
     27627 TIP3     2971     TIP3     OH2      OT      -0.834000       15.9994           0
     27628 TIP3     2971     TIP3     H1       HT       0.417000       1.00800           0
     27629 TIP3     2971     TIP3     H2       HT       0.417000       1.00800           0
     27630 TIP3     2972     TIP3     OH2      OT      -0.834000       15.9994           0
     27631 TIP3     2972     TIP3     H1       HT       0.417000       1.00800           0
     27632 TIP3     2972     TIP3     H2       HT       0.417000       1.00800           0
     27633 TIP3     2973     TIP3     OH2      OT      -0.834000       15.9994           0
     27634 TIP3     2973     TIP3     H1       HT       0.417000       1.00800           0
     27635 TIP3     2973     TIP3     H2       HT       0.417000       1.00800           0
     27636 TIP3     2974     TIP3     OH2      OT      -0.834000       15.9994           0
     27637 TIP3     2974     TIP3     H1       HT       0.417000       1.00800           0
     27638 TIP3     2974     TIP3     H2       HT       0.417000       1.00800           0
     27639 TIP3     2975     TIP3     OH2      OT      -0.834000       15.9994           0
     27640 TIP3     2975     TIP3     H1       HT       0.417000       1.00800           0
     27641 TIP3     2975     TIP3     H2       HT       0.417000       1.00800           0
     27642 TIP3     2976     TIP3     OH2      OT      -0.834000       15.9994           0
     27643 TIP3     2976     TIP3     H1       HT       0.417000       1.00800           0
     27644 TIP3     2976     TIP3     H2       HT       0.417000       1.00800           0
     27645 TIP3     2977     TIP3     OH2      OT      -0.834000       15.9994           0
     27646 TIP3     2977     TIP3     H1       HT       0.417000       1.00800           0
     27647 TIP3     2977     TIP3     H2       HT       0.417000       1.00800           0
     27648 TIP3     2978     TIP3     OH2      OT      -0.834000       15.9994           0
     27649 TIP3     2978     TIP3     H1       HT       0.417000       1.00800           0
     27650 TIP3     2978     TIP3     H2       HT       0.417000       1.00800           0
     27651 TIP3     2979     TIP3     OH2      OT      -0.834000       15.9994           0
     27652 TIP3     2979     TIP3     H1       HT       0.417000       1.00800           0
     27653 TIP3     2979     TIP3     H2       HT       0.417000       1.00800           0
     27654 TIP3     2980     TIP3     OH2      OT      -0.834000       15.9994           0
     27655 TIP3     2980     TIP3     H1       HT       0.417000       1.00800           0
     27656 TIP3     2980     TIP3     H2       HT       0.417000       1.00800           0
     27657 TIP3     2981     TIP3     OH2      OT      -0.834000       15.9994           0
     27658 TIP3     2981     TIP3     H1       HT       0.417000       1.00800           0
     27659 TIP3     2981     TIP3     H2       HT       0.417000       1.00800           0
     27660 TIP3     2982     TIP3     OH2      OT      -0.834000       15.9994           0
     27661 TIP3     2982     TIP3     H1       HT       0.417000       1.00800           0
     27662 TIP3     2982     TIP3     H2       HT       0.417000       1.00800           0
     27663 TIP3     2983     TIP3     OH2      OT      -0.834000       15.9994           0
     27664 TIP3     2983     TIP3     H1       HT       0.417000       1.00800           0
     27665 TIP3     2983     TIP3     H2       HT       0.417000       1.00800           0
     27666 TIP3     2984     TIP3     OH2      OT      -0.834000       15.9994           0
     27667 TIP3     2984     TIP3     H1       HT       0.417000       1.00800           0
     27668 TIP3     2984     TIP3     H2       HT       0.417000       1.00800           0
     27669 TIP3     2985     TIP3     OH2      OT      -0.834000       15.9994           0
     27670 TIP3     2985     TIP3     H1       HT       0.417000       1.00800           0
     27671 TIP3     2985     TIP3     H2       HT       0.417000       1.00800           0
     27672 TIP3     2986     TIP3     OH2      OT      -0.834000       15.9994           0
     27673 TIP3     2986     TIP3     H1       HT       0.417000       1.00800           0
     27674 TIP3     2986     TIP3     H2       HT       0.417000       1.00800           0
     27675 TIP3     2987     TIP3     OH2      OT      -0.834000       15.9994           0
     27676 TIP3     2987     TIP3     H1       HT       0.417000       1.00800           0
     27677 TIP3     2987     TIP3     H2       HT       0.417000       1.00800           0
     27678 TIP3     2988     TIP3     OH2      OT      -0.834000       15.9994           0
     27679 TIP3     2988     TIP3     H1       HT       0.417000       1.00800           0
     27680 TIP3     2988     TIP3     H2       HT       0.417000       1.00800           0
     27681 TIP3     2989     TIP3     OH2      OT      -0.834000       15.9994           0
     27682 TIP3     2989     TIP3     H1       HT       0.417000       1.00800           0
     27683 TIP3     2989     TIP3     H2       HT       0.417000       1.00800           0
     27684 TIP3     2990     TIP3     OH2      OT      -0.834000       15.9994           0
     27685 TIP3     2990     TIP3     H1       HT       0.417000       1.00800           0
     27686 TIP3     2990     TIP3     H2       HT       0.417000       1.00800           0
     27687 TIP3     2991     TIP3     OH2      OT      -0.834000       15.9994           0
     27688 TIP3     2991     TIP3     H1       HT       0.417000       1.00800           0
     27689 TIP3     2991     TIP3     H2       HT       0.417000       1.00800           0
     27690 TIP3     2992     TIP3     OH2      OT      -0.834000       15.9994           0
     27691 TIP3     2992     TIP3     H1       HT       0.417000       1.00800           0
     27692 TIP3     2992     TIP3     H2       HT       0.417000       1.00800           0
     27693 TIP3     2993     TIP3     OH2      OT      -0.834000       15.9994           0
     27694 TIP3     2993     TIP3     H1       HT       0.417000       1.00800           0
     27695 TIP3     2993     TIP3     H2       HT       0.417000       1.00800           0
     27696 TIP3     2994     TIP3     OH2      OT      -0.834000       15.9994           0
     27697 TIP3     2994     TIP3     H1       HT       0.417000       1.00800           0
     27698 TIP3     2994     TIP3     H2       HT       0.417000       1.00800           0
     27699 TIP3     2995     TIP3     OH2      OT      -0.834000       15.9994           0
     27700 TIP3     2995     TIP3     H1       HT       0.417000       1.00800           0
     27701 TIP3     2995     TIP3     H2       HT       0.417000       1.00800           0
     27702 TIP3     2996     TIP3     OH2      OT      -0.834000       15.9994           0
     27703 TIP3     2996     TIP3     H1       HT       0.417000       1.00800           0
     27704 TIP3     2996     TIP3     H2       HT       0.417000       1.00800           0
     27705 TIP3     2997     TIP3     OH2      OT      -0.834000       15.9994           0
     27706 TIP3     2997     TIP3     H1       HT       0.417000       1.00800           0
     27707 TIP3     2997     TIP3     H2       HT       0.417000       1.00800           0
     27708 TIP3     2998     TIP3     OH2      OT      -0.834000       15.9994           0
     27709 TIP3     2998     TIP3     H1       HT       0.417000       1.00800           0
     27710 TIP3     2998     TIP3     H2       HT       0.417000       1.00800           0
     27711 TIP3     2999     TIP3     OH2      OT      -0.834000       15.9994           0
     27712 TIP3     2999     TIP3     H1       HT       0.417000       1.00800           0
     27713 TIP3     2999     TIP3     H2       HT       0.417000       1.00800           0
     27714 TIP3     3000     TIP3     OH2      OT      -0.834000       15.9994           0
     27715 TIP3     3000     TIP3     H1       HT       0.417000       1.00800           0
     27716 TIP3     3000     TIP3     H2       HT       0.417000       1.00800           0
     27717 TIP3     3001     TIP3     OH2      OT      -0.834000       15.9994           0
     27718 TIP3     3001     TIP3     H1       HT       0.417000       1.00800           0
     27719 TIP3     3001     TIP3     H2       HT       0.417000       1.00800           0
     27720 TIP3     3002     TIP3     OH2      OT      -0.834000       15.9994           0
     27721 TIP3     3002     TIP3     H1       HT       0.417000       1.00800           0
     27722 TIP3     3002     TIP3     H2       HT       0.417000       1.00800           0
     27723 TIP3     3003     TIP3     OH2      OT      -0.834000       15.9994           0
     27724 TIP3     3003     TIP3     H1       HT       0.417000       1.00800           0
     27725 TIP3     3003     TIP3     H2       HT       0.417000       1.00800           0
     27726 TIP3     3004     TIP3     OH2      OT      -0.834000       15.9994           0
     27727 TIP3     3004     TIP3     H1       HT       0.417000       1.00800           0
     27728 TIP3     3004     TIP3     H2       HT       0.417000       1.00800           0
     27729 TIP3     3005     TIP3     OH2      OT      -0.834000       15.9994           0
     27730 TIP3     3005     TIP3     H1       HT       0.417000       1.00800           0
     27731 TIP3     3005     TIP3     H2       HT       0.417000       1.00800           0
     27732 TIP3     3006     TIP3     OH2      OT      -0.834000       15.9994           0
     27733 TIP3     3006     TIP3     H1       HT       0.417000       1.00800           0
     27734 TIP3     3006     TIP3     H2       HT       0.417000       1.00800           0
     27735 TIP3     3007     TIP3     OH2      OT      -0.834000       15.9994           0
     27736 TIP3     3007     TIP3     H1       HT       0.417000       1.00800           0
     27737 TIP3     3007     TIP3     H2       HT       0.417000       1.00800           0
     27738 TIP3     3008     TIP3     OH2      OT      -0.834000       15.9994           0
     27739 TIP3     3008     TIP3     H1       HT       0.417000       1.00800           0
     27740 TIP3     3008     TIP3     H2       HT       0.417000       1.00800           0
     27741 TIP3     3009     TIP3     OH2      OT      -0.834000       15.9994           0
     27742 TIP3     3009     TIP3     H1       HT       0.417000       1.00800           0
     27743 TIP3     3009     TIP3     H2       HT       0.417000       1.00800           0
     27744 TIP3     3010     TIP3     OH2      OT      -0.834000       15.9994           0
     27745 TIP3     3010     TIP3     H1       HT       0.417000       1.00800           0
     27746 TIP3     3010     TIP3     H2       HT       0.417000       1.00800           0
     27747 TIP3     3011     TIP3     OH2      OT      -0.834000       15.9994           0
     27748 TIP3     3011     TIP3     H1       HT       0.417000       1.00800           0
     27749 TIP3     3011     TIP3     H2       HT       0.417000       1.00800           0
     27750 TIP3     3012     TIP3     OH2      OT      -0.834000       15.9994           0
     27751 TIP3     3012     TIP3     H1       HT       0.417000       1.00800           0
     27752 TIP3     3012     TIP3     H2       HT       0.417000       1.00800           0
     27753 TIP3     3013     TIP3     OH2      OT      -0.834000       15.9994           0
     27754 TIP3     3013     TIP3     H1       HT       0.417000       1.00800           0
     27755 TIP3     3013     TIP3     H2       HT       0.417000       1.00800           0
     27756 TIP3     3014     TIP3     OH2      OT      -0.834000       15.9994           0
     27757 TIP3     3014     TIP3     H1       HT       0.417000       1.00800           0
     27758 TIP3     3014     TIP3     H2       HT       0.417000       1.00800           0
     27759 TIP3     3015     TIP3     OH2      OT      -0.834000       15.9994           0
     27760 TIP3     3015     TIP3     H1       HT       0.417000       1.00800           0
     27761 TIP3     3015     TIP3     H2       HT       0.417000       1.00800           0
     27762 TIP3     3016     TIP3     OH2      OT      -0.834000       15.9994           0
     27763 TIP3     3016     TIP3     H1       HT       0.417000       1.00800           0
     27764 TIP3     3016     TIP3     H2       HT       0.417000       1.00800           0
     27765 TIP3     3017     TIP3     OH2      OT      -0.834000       15.9994           0
     27766 TIP3     3017     TIP3     H1       HT       0.417000       1.00800           0
     27767 TIP3     3017     TIP3     H2       HT       0.417000       1.00800           0
     27768 TIP3     3018     TIP3     OH2      OT      -0.834000       15.9994           0
     27769 TIP3     3018     TIP3     H1       HT       0.417000       1.00800           0
     27770 TIP3     3018     TIP3     H2       HT       0.417000       1.00800           0
     27771 TIP3     3019     TIP3     OH2      OT      -0.834000       15.9994           0
     27772 TIP3     3019     TIP3     H1       HT       0.417000       1.00800           0
     27773 TIP3     3019     TIP3     H2       HT       0.417000       1.00800           0
     27774 TIP3     3020     TIP3     OH2      OT      -0.834000       15.9994           0
     27775 TIP3     3020     TIP3     H1       HT       0.417000       1.00800           0
     27776 TIP3     3020     TIP3     H2       HT       0.417000       1.00800           0
     27777 TIP3     3021     TIP3     OH2      OT      -0.834000       15.9994           0
     27778 TIP3     3021     TIP3     H1       HT       0.417000       1.00800           0
     27779 TIP3     3021     TIP3     H2       HT       0.417000       1.00800           0
     27780 TIP3     3022     TIP3     OH2      OT      -0.834000       15.9994           0
     27781 TIP3     3022     TIP3     H1       HT       0.417000       1.00800           0
     27782 TIP3     3022     TIP3     H2       HT       0.417000       1.00800           0
     27783 TIP3     3023     TIP3     OH2      OT      -0.834000       15.9994           0
     27784 TIP3     3023     TIP3     H1       HT       0.417000       1.00800           0
     27785 TIP3     3023     TIP3     H2       HT       0.417000       1.00800           0
     27786 TIP3     3024     TIP3     OH2      OT      -0.834000       15.9994           0
     27787 TIP3     3024     TIP3     H1       HT       0.417000       1.00800           0
     27788 TIP3     3024     TIP3     H2       HT       0.417000       1.00800           0
     27789 TIP3     3025     TIP3     OH2      OT      -0.834000       15.9994           0
     27790 TIP3     3025     TIP3     H1       HT       0.417000       1.00800           0
     27791 TIP3     3025     TIP3     H2       HT       0.417000       1.00800           0
     27792 TIP3     3026     TIP3     OH2      OT      -0.834000       15.9994           0
     27793 TIP3     3026     TIP3     H1       HT       0.417000       1.00800           0
     27794 TIP3     3026     TIP3     H2       HT       0.417000       1.00800           0
     27795 TIP3     3027     TIP3     OH2      OT      -0.834000       15.9994           0
     27796 TIP3     3027     TIP3     H1       HT       0.417000       1.00800           0
     27797 TIP3     3027     TIP3     H2       HT       0.417000       1.00800           0
     27798 TIP3     3028     TIP3     OH2      OT      -0.834000       15.9994           0
     27799 TIP3     3028     TIP3     H1       HT       0.417000       1.00800           0
     27800 TIP3     3028     TIP3     H2       HT       0.417000       1.00800           0
     27801 TIP3     3029     TIP3     OH2      OT      -0.834000       15.9994           0
     27802 TIP3     3029     TIP3     H1       HT       0.417000       1.00800           0
     27803 TIP3     3029     TIP3     H2       HT       0.417000       1.00800           0
     27804 TIP3     3030     TIP3     OH2      OT      -0.834000       15.9994           0
     27805 TIP3     3030     TIP3     H1       HT       0.417000       1.00800           0
     27806 TIP3     3030     TIP3     H2       HT       0.417000       1.00800           0
     27807 TIP3     3031     TIP3     OH2      OT      -0.834000       15.9994           0
     27808 TIP3     3031     TIP3     H1       HT       0.417000       1.00800           0
     27809 TIP3     3031     TIP3     H2       HT       0.417000       1.00800           0
     27810 TIP3     3032     TIP3     OH2      OT      -0.834000       15.9994           0
     27811 TIP3     3032     TIP3     H1       HT       0.417000       1.00800           0
     27812 TIP3     3032     TIP3     H2       HT       0.417000       1.00800           0
     27813 TIP3     3033     TIP3     OH2      OT      -0.834000       15.9994           0
     27814 TIP3     3033     TIP3     H1       HT       0.417000       1.00800           0
     27815 TIP3     3033     TIP3     H2       HT       0.417000       1.00800           0
     27816 TIP3     3034     TIP3     OH2      OT      -0.834000       15.9994           0
     27817 TIP3     3034     TIP3     H1       HT       0.417000       1.00800           0
     27818 TIP3     3034     TIP3     H2       HT       0.417000       1.00800           0
     27819 TIP3     3035     TIP3     OH2      OT      -0.834000       15.9994           0
     27820 TIP3     3035     TIP3     H1       HT       0.417000       1.00800           0
     27821 TIP3     3035     TIP3     H2       HT       0.417000       1.00800           0
     27822 TIP3     3036     TIP3     OH2      OT      -0.834000       15.9994           0
     27823 TIP3     3036     TIP3     H1       HT       0.417000       1.00800           0
     27824 TIP3     3036     TIP3     H2       HT       0.417000       1.00800           0
     27825 TIP3     3037     TIP3     OH2      OT      -0.834000       15.9994           0
     27826 TIP3     3037     TIP3     H1       HT       0.417000       1.00800           0
     27827 TIP3     3037     TIP3     H2       HT       0.417000       1.00800           0
     27828 TIP3     3038     TIP3     OH2      OT      -0.834000       15.9994           0
     27829 TIP3     3038     TIP3     H1       HT       0.417000       1.00800           0
     27830 TIP3     3038     TIP3     H2       HT       0.417000       1.00800           0
     27831 TIP3     3039     TIP3     OH2      OT      -0.834000       15.9994           0
     27832 TIP3     3039     TIP3     H1       HT       0.417000       1.00800           0
     27833 TIP3     3039     TIP3     H2       HT       0.417000       1.00800           0
     27834 TIP3     3040     TIP3     OH2      OT      -0.834000       15.9994           0
     27835 TIP3     3040     TIP3     H1       HT       0.417000       1.00800           0
     27836 TIP3     3040     TIP3     H2       HT       0.417000       1.00800           0
     27837 TIP3     3041     TIP3     OH2      OT      -0.834000       15.9994           0
     27838 TIP3     3041     TIP3     H1       HT       0.417000       1.00800           0
     27839 TIP3     3041     TIP3     H2       HT       0.417000       1.00800           0
     27840 TIP3     3042     TIP3     OH2      OT      -0.834000       15.9994           0
     27841 TIP3     3042     TIP3     H1       HT       0.417000       1.00800           0
     27842 TIP3     3042     TIP3     H2       HT       0.417000       1.00800           0
     27843 TIP3     3043     TIP3     OH2      OT      -0.834000       15.9994           0
     27844 TIP3     3043     TIP3     H1       HT       0.417000       1.00800           0
     27845 TIP3     3043     TIP3     H2       HT       0.417000       1.00800           0
     27846 TIP3     3044     TIP3     OH2      OT      -0.834000       15.9994           0
     27847 TIP3     3044     TIP3     H1       HT       0.417000       1.00800           0
     27848 TIP3     3044     TIP3     H2       HT       0.417000       1.00800           0
     27849 TIP3     3045     TIP3     OH2      OT      -0.834000       15.9994           0
     27850 TIP3     3045     TIP3     H1       HT       0.417000       1.00800           0
     27851 TIP3     3045     TIP3     H2       HT       0.417000       1.00800           0
     27852 TIP3     3046     TIP3     OH2      OT      -0.834000       15.9994           0
     27853 TIP3     3046     TIP3     H1       HT       0.417000       1.00800           0
     27854 TIP3     3046     TIP3     H2       HT       0.417000       1.00800           0
     27855 TIP3     3047     TIP3     OH2      OT      -0.834000       15.9994           0
     27856 TIP3     3047     TIP3     H1       HT       0.417000       1.00800           0
     27857 TIP3     3047     TIP3     H2       HT       0.417000       1.00800           0
     27858 TIP3     3048     TIP3     OH2      OT      -0.834000       15.9994           0
     27859 TIP3     3048     TIP3     H1       HT       0.417000       1.00800           0
     27860 TIP3     3048     TIP3     H2       HT       0.417000       1.00800           0
     27861 TIP3     3049     TIP3     OH2      OT      -0.834000       15.9994           0
     27862 TIP3     3049     TIP3     H1       HT       0.417000       1.00800           0
     27863 TIP3     3049     TIP3     H2       HT       0.417000       1.00800           0
     27864 TIP3     3050     TIP3     OH2      OT      -0.834000       15.9994           0
     27865 TIP3     3050     TIP3     H1       HT       0.417000       1.00800           0
     27866 TIP3     3050     TIP3     H2       HT       0.417000       1.00800           0
     27867 TIP3     3051     TIP3     OH2      OT      -0.834000       15.9994           0
     27868 TIP3     3051     TIP3     H1       HT       0.417000       1.00800           0
     27869 TIP3     3051     TIP3     H2       HT       0.417000       1.00800           0
     27870 TIP3     3052     TIP3     OH2      OT      -0.834000       15.9994           0
     27871 TIP3     3052     TIP3     H1       HT       0.417000       1.00800           0
     27872 TIP3     3052     TIP3     H2       HT       0.417000       1.00800           0
     27873 TIP3     3053     TIP3     OH2      OT      -0.834000       15.9994           0
     27874 TIP3     3053     TIP3     H1       HT       0.417000       1.00800           0
     27875 TIP3     3053     TIP3     H2       HT       0.417000       1.00800           0
     27876 TIP3     3054     TIP3     OH2      OT      -0.834000       15.9994           0
     27877 TIP3     3054     TIP3     H1       HT       0.417000       1.00800           0
     27878 TIP3     3054     TIP3     H2       HT       0.417000       1.00800           0
     27879 TIP3     3055     TIP3     OH2      OT      -0.834000       15.9994           0
     27880 TIP3     3055     TIP3     H1       HT       0.417000       1.00800           0
     27881 TIP3     3055     TIP3     H2       HT       0.417000       1.00800           0
     27882 TIP3     3056     TIP3     OH2      OT      -0.834000       15.9994           0
     27883 TIP3     3056     TIP3     H1       HT       0.417000       1.00800           0
     27884 TIP3     3056     TIP3     H2       HT       0.417000       1.00800           0
     27885 TIP3     3057     TIP3     OH2      OT      -0.834000       15.9994           0
     27886 TIP3     3057     TIP3     H1       HT       0.417000       1.00800           0
     27887 TIP3     3057     TIP3     H2       HT       0.417000       1.00800           0
     27888 TIP3     3058     TIP3     OH2      OT      -0.834000       15.9994           0
     27889 TIP3     3058     TIP3     H1       HT       0.417000       1.00800           0
     27890 TIP3     3058     TIP3     H2       HT       0.417000       1.00800           0
     27891 TIP3     3059     TIP3     OH2      OT      -0.834000       15.9994           0
     27892 TIP3     3059     TIP3     H1       HT       0.417000       1.00800           0
     27893 TIP3     3059     TIP3     H2       HT       0.417000       1.00800           0
     27894 TIP3     3060     TIP3     OH2      OT      -0.834000       15.9994           0
     27895 TIP3     3060     TIP3     H1       HT       0.417000       1.00800           0
     27896 TIP3     3060     TIP3     H2       HT       0.417000       1.00800           0
     27897 TIP3     3061     TIP3     OH2      OT      -0.834000       15.9994           0
     27898 TIP3     3061     TIP3     H1       HT       0.417000       1.00800           0
     27899 TIP3     3061     TIP3     H2       HT       0.417000       1.00800           0
     27900 TIP3     3062     TIP3     OH2      OT      -0.834000       15.9994           0
     27901 TIP3     3062     TIP3     H1       HT       0.417000       1.00800           0
     27902 TIP3     3062     TIP3     H2       HT       0.417000       1.00800           0
     27903 TIP3     3063     TIP3     OH2      OT      -0.834000       15.9994           0
     27904 TIP3     3063     TIP3     H1       HT       0.417000       1.00800           0
     27905 TIP3     3063     TIP3     H2       HT       0.417000       1.00800           0
     27906 TIP3     3064     TIP3     OH2      OT      -0.834000       15.9994           0
     27907 TIP3     3064     TIP3     H1       HT       0.417000       1.00800           0
     27908 TIP3     3064     TIP3     H2       HT       0.417000       1.00800           0
     27909 TIP3     3065     TIP3     OH2      OT      -0.834000       15.9994           0
     27910 TIP3     3065     TIP3     H1       HT       0.417000       1.00800           0
     27911 TIP3     3065     TIP3     H2       HT       0.417000       1.00800           0
     27912 TIP3     3066     TIP3     OH2      OT      -0.834000       15.9994           0
     27913 TIP3     3066     TIP3     H1       HT       0.417000       1.00800           0
     27914 TIP3     3066     TIP3     H2       HT       0.417000       1.00800           0
     27915 TIP3     3067     TIP3     OH2      OT      -0.834000       15.9994           0
     27916 TIP3     3067     TIP3     H1       HT       0.417000       1.00800           0
     27917 TIP3     3067     TIP3     H2       HT       0.417000       1.00800           0
     27918 TIP3     3068     TIP3     OH2      OT      -0.834000       15.9994           0
     27919 TIP3     3068     TIP3     H1       HT       0.417000       1.00800           0
     27920 TIP3     3068     TIP3     H2       HT       0.417000       1.00800           0
     27921 TIP3     3069     TIP3     OH2      OT      -0.834000       15.9994           0
     27922 TIP3     3069     TIP3     H1       HT       0.417000       1.00800           0
     27923 TIP3     3069     TIP3     H2       HT       0.417000       1.00800           0
     27924 TIP3     3070     TIP3     OH2      OT      -0.834000       15.9994           0
     27925 TIP3     3070     TIP3     H1       HT       0.417000       1.00800           0
     27926 TIP3     3070     TIP3     H2       HT       0.417000       1.00800           0
     27927 TIP3     3071     TIP3     OH2      OT      -0.834000       15.9994           0
     27928 TIP3     3071     TIP3     H1       HT       0.417000       1.00800           0
     27929 TIP3     3071     TIP3     H2       HT       0.417000       1.00800           0
     27930 TIP3     3072     TIP3     OH2      OT      -0.834000       15.9994           0
     27931 TIP3     3072     TIP3     H1       HT       0.417000       1.00800           0
     27932 TIP3     3072     TIP3     H2       HT       0.417000       1.00800           0
     27933 TIP3     3073     TIP3     OH2      OT      -0.834000       15.9994           0
     27934 TIP3     3073     TIP3     H1       HT       0.417000       1.00800           0
     27935 TIP3     3073     TIP3     H2       HT       0.417000       1.00800           0
     27936 TIP3     3074     TIP3     OH2      OT      -0.834000       15.9994           0
     27937 TIP3     3074     TIP3     H1       HT       0.417000       1.00800           0
     27938 TIP3     3074     TIP3     H2       HT       0.417000       1.00800           0
     27939 TIP3     3075     TIP3     OH2      OT      -0.834000       15.9994           0
     27940 TIP3     3075     TIP3     H1       HT       0.417000       1.00800           0
     27941 TIP3     3075     TIP3     H2       HT       0.417000       1.00800           0
     27942 TIP3     3076     TIP3     OH2      OT      -0.834000       15.9994           0
     27943 TIP3     3076     TIP3     H1       HT       0.417000       1.00800           0
     27944 TIP3     3076     TIP3     H2       HT       0.417000       1.00800           0
     27945 TIP3     3077     TIP3     OH2      OT      -0.834000       15.9994           0
     27946 TIP3     3077     TIP3     H1       HT       0.417000       1.00800           0
     27947 TIP3     3077     TIP3     H2       HT       0.417000       1.00800           0
     27948 TIP3     3078     TIP3     OH2      OT      -0.834000       15.9994           0
     27949 TIP3     3078     TIP3     H1       HT       0.417000       1.00800           0
     27950 TIP3     3078     TIP3     H2       HT       0.417000       1.00800           0
     27951 TIP3     3079     TIP3     OH2      OT      -0.834000       15.9994           0
     27952 TIP3     3079     TIP3     H1       HT       0.417000       1.00800           0
     27953 TIP3     3079     TIP3     H2       HT       0.417000       1.00800           0
     27954 TIP3     3080     TIP3     OH2      OT      -0.834000       15.9994           0
     27955 TIP3     3080     TIP3     H1       HT       0.417000       1.00800           0
     27956 TIP3     3080     TIP3     H2       HT       0.417000       1.00800           0
     27957 TIP3     3081     TIP3     OH2      OT      -0.834000       15.9994           0
     27958 TIP3     3081     TIP3     H1       HT       0.417000       1.00800           0
     27959 TIP3     3081     TIP3     H2       HT       0.417000       1.00800           0
     27960 TIP3     3082     TIP3     OH2      OT      -0.834000       15.9994           0
     27961 TIP3     3082     TIP3     H1       HT       0.417000       1.00800           0
     27962 TIP3     3082     TIP3     H2       HT       0.417000       1.00800           0
     27963 TIP3     3083     TIP3     OH2      OT      -0.834000       15.9994           0
     27964 TIP3     3083     TIP3     H1       HT       0.417000       1.00800           0
     27965 TIP3     3083     TIP3     H2       HT       0.417000       1.00800           0
     27966 TIP3     3084     TIP3     OH2      OT      -0.834000       15.9994           0
     27967 TIP3     3084     TIP3     H1       HT       0.417000       1.00800           0
     27968 TIP3     3084     TIP3     H2       HT       0.417000       1.00800           0
     27969 TIP3     3085     TIP3     OH2      OT      -0.834000       15.9994           0
     27970 TIP3     3085     TIP3     H1       HT       0.417000       1.00800           0
     27971 TIP3     3085     TIP3     H2       HT       0.417000       1.00800           0
     27972 TIP3     3086     TIP3     OH2      OT      -0.834000       15.9994           0
     27973 TIP3     3086     TIP3     H1       HT       0.417000       1.00800           0
     27974 TIP3     3086     TIP3     H2       HT       0.417000       1.00800           0
     27975 TIP3     3087     TIP3     OH2      OT      -0.834000       15.9994           0
     27976 TIP3     3087     TIP3     H1       HT       0.417000       1.00800           0
     27977 TIP3     3087     TIP3     H2       HT       0.417000       1.00800           0
     27978 TIP3     3088     TIP3     OH2      OT      -0.834000       15.9994           0
     27979 TIP3     3088     TIP3     H1       HT       0.417000       1.00800           0
     27980 TIP3     3088     TIP3     H2       HT       0.417000       1.00800           0
     27981 TIP3     3089     TIP3     OH2      OT      -0.834000       15.9994           0
     27982 TIP3     3089     TIP3     H1       HT       0.417000       1.00800           0
     27983 TIP3     3089     TIP3     H2       HT       0.417000       1.00800           0
     27984 TIP3     3090     TIP3     OH2      OT      -0.834000       15.9994           0
     27985 TIP3     3090     TIP3     H1       HT       0.417000       1.00800           0
     27986 TIP3     3090     TIP3     H2       HT       0.417000       1.00800           0
     27987 TIP3     3091     TIP3     OH2      OT      -0.834000       15.9994           0
     27988 TIP3     3091     TIP3     H1       HT       0.417000       1.00800           0
     27989 TIP3     3091     TIP3     H2       HT       0.417000       1.00800           0
     27990 TIP3     3092     TIP3     OH2      OT      -0.834000       15.9994           0
     27991 TIP3     3092     TIP3     H1       HT       0.417000       1.00800           0
     27992 TIP3     3092     TIP3     H2       HT       0.417000       1.00800           0
     27993 TIP3     3093     TIP3     OH2      OT      -0.834000       15.9994           0
     27994 TIP3     3093     TIP3     H1       HT       0.417000       1.00800           0
     27995 TIP3     3093     TIP3     H2       HT       0.417000       1.00800           0
     27996 TIP3     3094     TIP3     OH2      OT      -0.834000       15.9994           0
     27997 TIP3     3094     TIP3     H1       HT       0.417000       1.00800           0
     27998 TIP3     3094     TIP3     H2       HT       0.417000       1.00800           0
     27999 TIP3     3095     TIP3     OH2      OT      -0.834000       15.9994           0
     28000 TIP3     3095     TIP3     H1       HT       0.417000       1.00800           0
     28001 TIP3     3095     TIP3     H2       HT       0.417000       1.00800           0
     28002 TIP3     3096     TIP3     OH2      OT      -0.834000       15.9994           0
     28003 TIP3     3096     TIP3     H1       HT       0.417000       1.00800           0
     28004 TIP3     3096     TIP3     H2       HT       0.417000       1.00800           0
     28005 TIP3     3097     TIP3     OH2      OT      -0.834000       15.9994           0
     28006 TIP3     3097     TIP3     H1       HT       0.417000       1.00800           0
     28007 TIP3     3097     TIP3     H2       HT       0.417000       1.00800           0
     28008 TIP3     3098     TIP3     OH2      OT      -0.834000       15.9994           0
     28009 TIP3     3098     TIP3     H1       HT       0.417000       1.00800           0
     28010 TIP3     3098     TIP3     H2       HT       0.417000       1.00800           0
     28011 TIP3     3099     TIP3     OH2      OT      -0.834000       15.9994           0
     28012 TIP3     3099     TIP3     H1       HT       0.417000       1.00800           0
     28013 TIP3     3099     TIP3     H2       HT       0.417000       1.00800           0
     28014 TIP3     3100     TIP3     OH2      OT      -0.834000       15.9994           0
     28015 TIP3     3100     TIP3     H1       HT       0.417000       1.00800           0
     28016 TIP3     3100     TIP3     H2       HT       0.417000       1.00800           0
     28017 TIP3     3101     TIP3     OH2      OT      -0.834000       15.9994           0
     28018 TIP3     3101     TIP3     H1       HT       0.417000       1.00800           0
     28019 TIP3     3101     TIP3     H2       HT       0.417000       1.00800           0
     28020 TIP3     3102     TIP3     OH2      OT      -0.834000       15.9994           0
     28021 TIP3     3102     TIP3     H1       HT       0.417000       1.00800           0
     28022 TIP3     3102     TIP3     H2       HT       0.417000       1.00800           0
     28023 TIP3     3103     TIP3     OH2      OT      -0.834000       15.9994           0
     28024 TIP3     3103     TIP3     H1       HT       0.417000       1.00800           0
     28025 TIP3     3103     TIP3     H2       HT       0.417000       1.00800           0
     28026 TIP3     3104     TIP3     OH2      OT      -0.834000       15.9994           0
     28027 TIP3     3104     TIP3     H1       HT       0.417000       1.00800           0
     28028 TIP3     3104     TIP3     H2       HT       0.417000       1.00800           0
     28029 TIP3     3105     TIP3     OH2      OT      -0.834000       15.9994           0
     28030 TIP3     3105     TIP3     H1       HT       0.417000       1.00800           0
     28031 TIP3     3105     TIP3     H2       HT       0.417000       1.00800           0
     28032 TIP3     3106     TIP3     OH2      OT      -0.834000       15.9994           0
     28033 TIP3     3106     TIP3     H1       HT       0.417000       1.00800           0
     28034 TIP3     3106     TIP3     H2       HT       0.417000       1.00800           0
     28035 TIP3     3107     TIP3     OH2      OT      -0.834000       15.9994           0
     28036 TIP3     3107     TIP3     H1       HT       0.417000       1.00800           0
     28037 TIP3     3107     TIP3     H2       HT       0.417000       1.00800           0
     28038 TIP3     3108     TIP3     OH2      OT      -0.834000       15.9994           0
     28039 TIP3     3108     TIP3     H1       HT       0.417000       1.00800           0
     28040 TIP3     3108     TIP3     H2       HT       0.417000       1.00800           0
     28041 TIP3     3109     TIP3     OH2      OT      -0.834000       15.9994           0
     28042 TIP3     3109     TIP3     H1       HT       0.417000       1.00800           0
     28043 TIP3     3109     TIP3     H2       HT       0.417000       1.00800           0
     28044 TIP3     3110     TIP3     OH2      OT      -0.834000       15.9994           0
     28045 TIP3     3110     TIP3     H1       HT       0.417000       1.00800           0
     28046 TIP3     3110     TIP3     H2       HT       0.417000       1.00800           0
     28047 TIP3     3111     TIP3     OH2      OT      -0.834000       15.9994           0
     28048 TIP3     3111     TIP3     H1       HT       0.417000       1.00800           0
     28049 TIP3     3111     TIP3     H2       HT       0.417000       1.00800           0
     28050 TIP3     3112     TIP3     OH2      OT      -0.834000       15.9994           0
     28051 TIP3     3112     TIP3     H1       HT       0.417000       1.00800           0
     28052 TIP3     3112     TIP3     H2       HT       0.417000       1.00800           0
     28053 TIP3     3113     TIP3     OH2      OT      -0.834000       15.9994           0
     28054 TIP3     3113     TIP3     H1       HT       0.417000       1.00800           0
     28055 TIP3     3113     TIP3     H2       HT       0.417000       1.00800           0
     28056 TIP3     3114     TIP3     OH2      OT      -0.834000       15.9994           0
     28057 TIP3     3114     TIP3     H1       HT       0.417000       1.00800           0
     28058 TIP3     3114     TIP3     H2       HT       0.417000       1.00800           0
     28059 TIP3     3115     TIP3     OH2      OT      -0.834000       15.9994           0
     28060 TIP3     3115     TIP3     H1       HT       0.417000       1.00800           0
     28061 TIP3     3115     TIP3     H2       HT       0.417000       1.00800           0
     28062 TIP3     3116     TIP3     OH2      OT      -0.834000       15.9994           0
     28063 TIP3     3116     TIP3     H1       HT       0.417000       1.00800           0
     28064 TIP3     3116     TIP3     H2       HT       0.417000       1.00800           0
     28065 TIP3     3117     TIP3     OH2      OT      -0.834000       15.9994           0
     28066 TIP3     3117     TIP3     H1       HT       0.417000       1.00800           0
     28067 TIP3     3117     TIP3     H2       HT       0.417000       1.00800           0
     28068 TIP3     3118     TIP3     OH2      OT      -0.834000       15.9994           0
     28069 TIP3     3118     TIP3     H1       HT       0.417000       1.00800           0
     28070 TIP3     3118     TIP3     H2       HT       0.417000       1.00800           0
     28071 TIP3     3119     TIP3     OH2      OT      -0.834000       15.9994           0
     28072 TIP3     3119     TIP3     H1       HT       0.417000       1.00800           0
     28073 TIP3     3119     TIP3     H2       HT       0.417000       1.00800           0
     28074 TIP3     3120     TIP3     OH2      OT      -0.834000       15.9994           0
     28075 TIP3     3120     TIP3     H1       HT       0.417000       1.00800           0
     28076 TIP3     3120     TIP3     H2       HT       0.417000       1.00800           0
     28077 TIP3     3121     TIP3     OH2      OT      -0.834000       15.9994           0
     28078 TIP3     3121     TIP3     H1       HT       0.417000       1.00800           0
     28079 TIP3     3121     TIP3     H2       HT       0.417000       1.00800           0
     28080 TIP3     3122     TIP3     OH2      OT      -0.834000       15.9994           0
     28081 TIP3     3122     TIP3     H1       HT       0.417000       1.00800           0
     28082 TIP3     3122     TIP3     H2       HT       0.417000       1.00800           0
     28083 TIP3     3123     TIP3     OH2      OT      -0.834000       15.9994           0
     28084 TIP3     3123     TIP3     H1       HT       0.417000       1.00800           0
     28085 TIP3     3123     TIP3     H2       HT       0.417000       1.00800           0
     28086 TIP3     3124     TIP3     OH2      OT      -0.834000       15.9994           0
     28087 TIP3     3124     TIP3     H1       HT       0.417000       1.00800           0
     28088 TIP3     3124     TIP3     H2       HT       0.417000       1.00800           0
     28089 TIP3     3125     TIP3     OH2      OT      -0.834000       15.9994           0
     28090 TIP3     3125     TIP3     H1       HT       0.417000       1.00800           0
     28091 TIP3     3125     TIP3     H2       HT       0.417000       1.00800           0
     28092 TIP3     3126     TIP3     OH2      OT      -0.834000       15.9994           0
     28093 TIP3     3126     TIP3     H1       HT       0.417000       1.00800           0
     28094 TIP3     3126     TIP3     H2       HT       0.417000       1.00800           0
     28095 TIP3     3127     TIP3     OH2      OT      -0.834000       15.9994           0
     28096 TIP3     3127     TIP3     H1       HT       0.417000       1.00800           0
     28097 TIP3     3127     TIP3     H2       HT       0.417000       1.00800           0
     28098 TIP3     3128     TIP3     OH2      OT      -0.834000       15.9994           0
     28099 TIP3     3128     TIP3     H1       HT       0.417000       1.00800           0
     28100 TIP3     3128     TIP3     H2       HT       0.417000       1.00800           0
     28101 TIP3     3129     TIP3     OH2      OT      -0.834000       15.9994           0
     28102 TIP3     3129     TIP3     H1       HT       0.417000       1.00800           0
     28103 TIP3     3129     TIP3     H2       HT       0.417000       1.00800           0
     28104 TIP3     3130     TIP3     OH2      OT      -0.834000       15.9994           0
     28105 TIP3     3130     TIP3     H1       HT       0.417000       1.00800           0
     28106 TIP3     3130     TIP3     H2       HT       0.417000       1.00800           0
     28107 TIP3     3131     TIP3     OH2      OT      -0.834000       15.9994           0
     28108 TIP3     3131     TIP3     H1       HT       0.417000       1.00800           0
     28109 TIP3     3131     TIP3     H2       HT       0.417000       1.00800           0
     28110 TIP3     3132     TIP3     OH2      OT      -0.834000       15.9994           0
     28111 TIP3     3132     TIP3     H1       HT       0.417000       1.00800           0
     28112 TIP3     3132     TIP3     H2       HT       0.417000       1.00800           0
     28113 TIP3     3133     TIP3     OH2      OT      -0.834000       15.9994           0
     28114 TIP3     3133     TIP3     H1       HT       0.417000       1.00800           0
     28115 TIP3     3133     TIP3     H2       HT       0.417000       1.00800           0
     28116 TIP3     3134     TIP3     OH2      OT      -0.834000       15.9994           0
     28117 TIP3     3134     TIP3     H1       HT       0.417000       1.00800           0
     28118 TIP3     3134     TIP3     H2       HT       0.417000       1.00800           0
     28119 TIP3     3135     TIP3     OH2      OT      -0.834000       15.9994           0
     28120 TIP3     3135     TIP3     H1       HT       0.417000       1.00800           0
     28121 TIP3     3135     TIP3     H2       HT       0.417000       1.00800           0
     28122 TIP3     3136     TIP3     OH2      OT      -0.834000       15.9994           0
     28123 TIP3     3136     TIP3     H1       HT       0.417000       1.00800           0
     28124 TIP3     3136     TIP3     H2       HT       0.417000       1.00800           0
     28125 TIP3     3137     TIP3     OH2      OT      -0.834000       15.9994           0
     28126 TIP3     3137     TIP3     H1       HT       0.417000       1.00800           0
     28127 TIP3     3137     TIP3     H2       HT       0.417000       1.00800           0
     28128 TIP3     3138     TIP3     OH2      OT      -0.834000       15.9994           0
     28129 TIP3     3138     TIP3     H1       HT       0.417000       1.00800           0
     28130 TIP3     3138     TIP3     H2       HT       0.417000       1.00800           0
     28131 TIP3     3139     TIP3     OH2      OT      -0.834000       15.9994           0
     28132 TIP3     3139     TIP3     H1       HT       0.417000       1.00800           0
     28133 TIP3     3139     TIP3     H2       HT       0.417000       1.00800           0
     28134 TIP3     3140     TIP3     OH2      OT      -0.834000       15.9994           0
     28135 TIP3     3140     TIP3     H1       HT       0.417000       1.00800           0
     28136 TIP3     3140     TIP3     H2       HT       0.417000       1.00800           0
     28137 TIP3     3141     TIP3     OH2      OT      -0.834000       15.9994           0
     28138 TIP3     3141     TIP3     H1       HT       0.417000       1.00800           0
     28139 TIP3     3141     TIP3     H2       HT       0.417000       1.00800           0
     28140 TIP3     3142     TIP3     OH2      OT      -0.834000       15.9994           0
     28141 TIP3     3142     TIP3     H1       HT       0.417000       1.00800           0
     28142 TIP3     3142     TIP3     H2       HT       0.417000       1.00800           0
     28143 TIP3     3143     TIP3     OH2      OT      -0.834000       15.9994           0
     28144 TIP3     3143     TIP3     H1       HT       0.417000       1.00800           0
     28145 TIP3     3143     TIP3     H2       HT       0.417000       1.00800           0
     28146 TIP3     3144     TIP3     OH2      OT      -0.834000       15.9994           0
     28147 TIP3     3144     TIP3     H1       HT       0.417000       1.00800           0
     28148 TIP3     3144     TIP3     H2       HT       0.417000       1.00800           0
     28149 TIP3     3145     TIP3     OH2      OT      -0.834000       15.9994           0
     28150 TIP3     3145     TIP3     H1       HT       0.417000       1.00800           0
     28151 TIP3     3145     TIP3     H2       HT       0.417000       1.00800           0
     28152 TIP3     3146     TIP3     OH2      OT      -0.834000       15.9994           0
     28153 TIP3     3146     TIP3     H1       HT       0.417000       1.00800           0
     28154 TIP3     3146     TIP3     H2       HT       0.417000       1.00800           0
     28155 TIP3     3147     TIP3     OH2      OT      -0.834000       15.9994           0
     28156 TIP3     3147     TIP3     H1       HT       0.417000       1.00800           0
     28157 TIP3     3147     TIP3     H2       HT       0.417000       1.00800           0
     28158 TIP3     3148     TIP3     OH2      OT      -0.834000       15.9994           0
     28159 TIP3     3148     TIP3     H1       HT       0.417000       1.00800           0
     28160 TIP3     3148     TIP3     H2       HT       0.417000       1.00800           0
     28161 TIP3     3149     TIP3     OH2      OT      -0.834000       15.9994           0
     28162 TIP3     3149     TIP3     H1       HT       0.417000       1.00800           0
     28163 TIP3     3149     TIP3     H2       HT       0.417000       1.00800           0
     28164 TIP3     3150     TIP3     OH2      OT      -0.834000       15.9994           0
     28165 TIP3     3150     TIP3     H1       HT       0.417000       1.00800           0
     28166 TIP3     3150     TIP3     H2       HT       0.417000       1.00800           0
     28167 TIP3     3151     TIP3     OH2      OT      -0.834000       15.9994           0
     28168 TIP3     3151     TIP3     H1       HT       0.417000       1.00800           0
     28169 TIP3     3151     TIP3     H2       HT       0.417000       1.00800           0
     28170 TIP3     3152     TIP3     OH2      OT      -0.834000       15.9994           0
     28171 TIP3     3152     TIP3     H1       HT       0.417000       1.00800           0
     28172 TIP3     3152     TIP3     H2       HT       0.417000       1.00800           0
     28173 TIP3     3153     TIP3     OH2      OT      -0.834000       15.9994           0
     28174 TIP3     3153     TIP3     H1       HT       0.417000       1.00800           0
     28175 TIP3     3153     TIP3     H2       HT       0.417000       1.00800           0
     28176 TIP3     3154     TIP3     OH2      OT      -0.834000       15.9994           0
     28177 TIP3     3154     TIP3     H1       HT       0.417000       1.00800           0
     28178 TIP3     3154     TIP3     H2       HT       0.417000       1.00800           0
     28179 TIP3     3155     TIP3     OH2      OT      -0.834000       15.9994           0
     28180 TIP3     3155     TIP3     H1       HT       0.417000       1.00800           0
     28181 TIP3     3155     TIP3     H2       HT       0.417000       1.00800           0
     28182 TIP3     3156     TIP3     OH2      OT      -0.834000       15.9994           0
     28183 TIP3     3156     TIP3     H1       HT       0.417000       1.00800           0
     28184 TIP3     3156     TIP3     H2       HT       0.417000       1.00800           0
     28185 TIP3     3157     TIP3     OH2      OT      -0.834000       15.9994           0
     28186 TIP3     3157     TIP3     H1       HT       0.417000       1.00800           0
     28187 TIP3     3157     TIP3     H2       HT       0.417000       1.00800           0
     28188 TIP3     3158     TIP3     OH2      OT      -0.834000       15.9994           0
     28189 TIP3     3158     TIP3     H1       HT       0.417000       1.00800           0
     28190 TIP3     3158     TIP3     H2       HT       0.417000       1.00800           0
     28191 TIP3     3159     TIP3     OH2      OT      -0.834000       15.9994           0
     28192 TIP3     3159     TIP3     H1       HT       0.417000       1.00800           0
     28193 TIP3     3159     TIP3     H2       HT       0.417000       1.00800           0
     28194 TIP3     3160     TIP3     OH2      OT      -0.834000       15.9994           0
     28195 TIP3     3160     TIP3     H1       HT       0.417000       1.00800           0
     28196 TIP3     3160     TIP3     H2       HT       0.417000       1.00800           0
     28197 TIP3     3161     TIP3     OH2      OT      -0.834000       15.9994           0
     28198 TIP3     3161     TIP3     H1       HT       0.417000       1.00800           0
     28199 TIP3     3161     TIP3     H2       HT       0.417000       1.00800           0
     28200 TIP3     3162     TIP3     OH2      OT      -0.834000       15.9994           0
     28201 TIP3     3162     TIP3     H1       HT       0.417000       1.00800           0
     28202 TIP3     3162     TIP3     H2       HT       0.417000       1.00800           0
     28203 TIP3     3163     TIP3     OH2      OT      -0.834000       15.9994           0
     28204 TIP3     3163     TIP3     H1       HT       0.417000       1.00800           0
     28205 TIP3     3163     TIP3     H2       HT       0.417000       1.00800           0
     28206 TIP3     3164     TIP3     OH2      OT      -0.834000       15.9994           0
     28207 TIP3     3164     TIP3     H1       HT       0.417000       1.00800           0
     28208 TIP3     3164     TIP3     H2       HT       0.417000       1.00800           0
     28209 TIP3     3165     TIP3     OH2      OT      -0.834000       15.9994           0
     28210 TIP3     3165     TIP3     H1       HT       0.417000       1.00800           0
     28211 TIP3     3165     TIP3     H2       HT       0.417000       1.00800           0
     28212 TIP3     3166     TIP3     OH2      OT      -0.834000       15.9994           0
     28213 TIP3     3166     TIP3     H1       HT       0.417000       1.00800           0
     28214 TIP3     3166     TIP3     H2       HT       0.417000       1.00800           0
     28215 TIP3     3167     TIP3     OH2      OT      -0.834000       15.9994           0
     28216 TIP3     3167     TIP3     H1       HT       0.417000       1.00800           0
     28217 TIP3     3167     TIP3     H2       HT       0.417000       1.00800           0
     28218 TIP3     3168     TIP3     OH2      OT      -0.834000       15.9994           0
     28219 TIP3     3168     TIP3     H1       HT       0.417000       1.00800           0
     28220 TIP3     3168     TIP3     H2       HT       0.417000       1.00800           0
     28221 TIP3     3169     TIP3     OH2      OT      -0.834000       15.9994           0
     28222 TIP3     3169     TIP3     H1       HT       0.417000       1.00800           0
     28223 TIP3     3169     TIP3     H2       HT       0.417000       1.00800           0
     28224 TIP3     3170     TIP3     OH2      OT      -0.834000       15.9994           0
     28225 TIP3     3170     TIP3     H1       HT       0.417000       1.00800           0
     28226 TIP3     3170     TIP3     H2       HT       0.417000       1.00800           0
     28227 TIP3     3171     TIP3     OH2      OT      -0.834000       15.9994           0
     28228 TIP3     3171     TIP3     H1       HT       0.417000       1.00800           0
     28229 TIP3     3171     TIP3     H2       HT       0.417000       1.00800           0
     28230 TIP3     3172     TIP3     OH2      OT      -0.834000       15.9994           0
     28231 TIP3     3172     TIP3     H1       HT       0.417000       1.00800           0
     28232 TIP3     3172     TIP3     H2       HT       0.417000       1.00800           0
     28233 TIP3     3173     TIP3     OH2      OT      -0.834000       15.9994           0
     28234 TIP3     3173     TIP3     H1       HT       0.417000       1.00800           0
     28235 TIP3     3173     TIP3     H2       HT       0.417000       1.00800           0
     28236 TIP3     3174     TIP3     OH2      OT      -0.834000       15.9994           0
     28237 TIP3     3174     TIP3     H1       HT       0.417000       1.00800           0
     28238 TIP3     3174     TIP3     H2       HT       0.417000       1.00800           0
     28239 TIP3     3175     TIP3     OH2      OT      -0.834000       15.9994           0
     28240 TIP3     3175     TIP3     H1       HT       0.417000       1.00800           0
     28241 TIP3     3175     TIP3     H2       HT       0.417000       1.00800           0
     28242 TIP3     3176     TIP3     OH2      OT      -0.834000       15.9994           0
     28243 TIP3     3176     TIP3     H1       HT       0.417000       1.00800           0
     28244 TIP3     3176     TIP3     H2       HT       0.417000       1.00800           0
     28245 TIP3     3177     TIP3     OH2      OT      -0.834000       15.9994           0
     28246 TIP3     3177     TIP3     H1       HT       0.417000       1.00800           0
     28247 TIP3     3177     TIP3     H2       HT       0.417000       1.00800           0
     28248 TIP3     3178     TIP3     OH2      OT      -0.834000       15.9994           0
     28249 TIP3     3178     TIP3     H1       HT       0.417000       1.00800           0
     28250 TIP3     3178     TIP3     H2       HT       0.417000       1.00800           0
     28251 TIP3     3179     TIP3     OH2      OT      -0.834000       15.9994           0
     28252 TIP3     3179     TIP3     H1       HT       0.417000       1.00800           0
     28253 TIP3     3179     TIP3     H2       HT       0.417000       1.00800           0
     28254 TIP3     3180     TIP3     OH2      OT      -0.834000       15.9994           0
     28255 TIP3     3180     TIP3     H1       HT       0.417000       1.00800           0
     28256 TIP3     3180     TIP3     H2       HT       0.417000       1.00800           0
     28257 TIP3     3181     TIP3     OH2      OT      -0.834000       15.9994           0
     28258 TIP3     3181     TIP3     H1       HT       0.417000       1.00800           0
     28259 TIP3     3181     TIP3     H2       HT       0.417000       1.00800           0
     28260 TIP3     3182     TIP3     OH2      OT      -0.834000       15.9994           0
     28261 TIP3     3182     TIP3     H1       HT       0.417000       1.00800           0
     28262 TIP3     3182     TIP3     H2       HT       0.417000       1.00800           0
     28263 TIP3     3183     TIP3     OH2      OT      -0.834000       15.9994           0
     28264 TIP3     3183     TIP3     H1       HT       0.417000       1.00800           0
     28265 TIP3     3183     TIP3     H2       HT       0.417000       1.00800           0
     28266 TIP3     3184     TIP3     OH2      OT      -0.834000       15.9994           0
     28267 TIP3     3184     TIP3     H1       HT       0.417000       1.00800           0
     28268 TIP3     3184     TIP3     H2       HT       0.417000       1.00800           0
     28269 TIP3     3185     TIP3     OH2      OT      -0.834000       15.9994           0
     28270 TIP3     3185     TIP3     H1       HT       0.417000       1.00800           0
     28271 TIP3     3185     TIP3     H2       HT       0.417000       1.00800           0
     28272 TIP3     3186     TIP3     OH2      OT      -0.834000       15.9994           0
     28273 TIP3     3186     TIP3     H1       HT       0.417000       1.00800           0
     28274 TIP3     3186     TIP3     H2       HT       0.417000       1.00800           0
     28275 TIP3     3187     TIP3     OH2      OT      -0.834000       15.9994           0
     28276 TIP3     3187     TIP3     H1       HT       0.417000       1.00800           0
     28277 TIP3     3187     TIP3     H2       HT       0.417000       1.00800           0
     28278 TIP3     3188     TIP3     OH2      OT      -0.834000       15.9994           0
     28279 TIP3     3188     TIP3     H1       HT       0.417000       1.00800           0
     28280 TIP3     3188     TIP3     H2       HT       0.417000       1.00800           0
     28281 TIP3     3189     TIP3     OH2      OT      -0.834000       15.9994           0
     28282 TIP3     3189     TIP3     H1       HT       0.417000       1.00800           0
     28283 TIP3     3189     TIP3     H2       HT       0.417000       1.00800           0
     28284 TIP3     3190     TIP3     OH2      OT      -0.834000       15.9994           0
     28285 TIP3     3190     TIP3     H1       HT       0.417000       1.00800           0
     28286 TIP3     3190     TIP3     H2       HT       0.417000       1.00800           0
     28287 TIP3     3191     TIP3     OH2      OT      -0.834000       15.9994           0
     28288 TIP3     3191     TIP3     H1       HT       0.417000       1.00800           0
     28289 TIP3     3191     TIP3     H2       HT       0.417000       1.00800           0
     28290 TIP3     3192     TIP3     OH2      OT      -0.834000       15.9994           0
     28291 TIP3     3192     TIP3     H1       HT       0.417000       1.00800           0
     28292 TIP3     3192     TIP3     H2       HT       0.417000       1.00800           0
     28293 TIP3     3193     TIP3     OH2      OT      -0.834000       15.9994           0
     28294 TIP3     3193     TIP3     H1       HT       0.417000       1.00800           0
     28295 TIP3     3193     TIP3     H2       HT       0.417000       1.00800           0
     28296 TIP3     3194     TIP3     OH2      OT      -0.834000       15.9994           0
     28297 TIP3     3194     TIP3     H1       HT       0.417000       1.00800           0
     28298 TIP3     3194     TIP3     H2       HT       0.417000       1.00800           0
     28299 TIP3     3195     TIP3     OH2      OT      -0.834000       15.9994           0
     28300 TIP3     3195     TIP3     H1       HT       0.417000       1.00800           0
     28301 TIP3     3195     TIP3     H2       HT       0.417000       1.00800           0
     28302 TIP3     3196     TIP3     OH2      OT      -0.834000       15.9994           0
     28303 TIP3     3196     TIP3     H1       HT       0.417000       1.00800           0
     28304 TIP3     3196     TIP3     H2       HT       0.417000       1.00800           0
     28305 TIP3     3197     TIP3     OH2      OT      -0.834000       15.9994           0
     28306 TIP3     3197     TIP3     H1       HT       0.417000       1.00800           0
     28307 TIP3     3197     TIP3     H2       HT       0.417000       1.00800           0
     28308 TIP3     3198     TIP3     OH2      OT      -0.834000       15.9994           0
     28309 TIP3     3198     TIP3     H1       HT       0.417000       1.00800           0
     28310 TIP3     3198     TIP3     H2       HT       0.417000       1.00800           0
     28311 TIP3     3199     TIP3     OH2      OT      -0.834000       15.9994           0
     28312 TIP3     3199     TIP3     H1       HT       0.417000       1.00800           0
     28313 TIP3     3199     TIP3     H2       HT       0.417000       1.00800           0
     28314 TIP3     3200     TIP3     OH2      OT      -0.834000       15.9994           0
     28315 TIP3     3200     TIP3     H1       HT       0.417000       1.00800           0
     28316 TIP3     3200     TIP3     H2       HT       0.417000       1.00800           0
     28317 TIP3     3201     TIP3     OH2      OT      -0.834000       15.9994           0
     28318 TIP3     3201     TIP3     H1       HT       0.417000       1.00800           0
     28319 TIP3     3201     TIP3     H2       HT       0.417000       1.00800           0
     28320 TIP3     3202     TIP3     OH2      OT      -0.834000       15.9994           0
     28321 TIP3     3202     TIP3     H1       HT       0.417000       1.00800           0
     28322 TIP3     3202     TIP3     H2       HT       0.417000       1.00800           0
     28323 TIP3     3203     TIP3     OH2      OT      -0.834000       15.9994           0
     28324 TIP3     3203     TIP3     H1       HT       0.417000       1.00800           0
     28325 TIP3     3203     TIP3     H2       HT       0.417000       1.00800           0
     28326 TIP3     3204     TIP3     OH2      OT      -0.834000       15.9994           0
     28327 TIP3     3204     TIP3     H1       HT       0.417000       1.00800           0
     28328 TIP3     3204     TIP3     H2       HT       0.417000       1.00800           0
     28329 TIP3     3205     TIP3     OH2      OT      -0.834000       15.9994           0
     28330 TIP3     3205     TIP3     H1       HT       0.417000       1.00800           0
     28331 TIP3     3205     TIP3     H2       HT       0.417000       1.00800           0
     28332 TIP3     3206     TIP3     OH2      OT      -0.834000       15.9994           0
     28333 TIP3     3206     TIP3     H1       HT       0.417000       1.00800           0
     28334 TIP3     3206     TIP3     H2       HT       0.417000       1.00800           0
     28335 TIP3     3207     TIP3     OH2      OT      -0.834000       15.9994           0
     28336 TIP3     3207     TIP3     H1       HT       0.417000       1.00800           0
     28337 TIP3     3207     TIP3     H2       HT       0.417000       1.00800           0
     28338 TIP3     3208     TIP3     OH2      OT      -0.834000       15.9994           0
     28339 TIP3     3208     TIP3     H1       HT       0.417000       1.00800           0
     28340 TIP3     3208     TIP3     H2       HT       0.417000       1.00800           0
     28341 TIP3     3209     TIP3     OH2      OT      -0.834000       15.9994           0
     28342 TIP3     3209     TIP3     H1       HT       0.417000       1.00800           0
     28343 TIP3     3209     TIP3     H2       HT       0.417000       1.00800           0
     28344 TIP3     3210     TIP3     OH2      OT      -0.834000       15.9994           0
     28345 TIP3     3210     TIP3     H1       HT       0.417000       1.00800           0
     28346 TIP3     3210     TIP3     H2       HT       0.417000       1.00800           0
     28347 TIP3     3211     TIP3     OH2      OT      -0.834000       15.9994           0
     28348 TIP3     3211     TIP3     H1       HT       0.417000       1.00800           0
     28349 TIP3     3211     TIP3     H2       HT       0.417000       1.00800           0
     28350 TIP3     3212     TIP3     OH2      OT      -0.834000       15.9994           0
     28351 TIP3     3212     TIP3     H1       HT       0.417000       1.00800           0
     28352 TIP3     3212     TIP3     H2       HT       0.417000       1.00800           0
     28353 TIP3     3213     TIP3     OH2      OT      -0.834000       15.9994           0
     28354 TIP3     3213     TIP3     H1       HT       0.417000       1.00800           0
     28355 TIP3     3213     TIP3     H2       HT       0.417000       1.00800           0
     28356 TIP3     3214     TIP3     OH2      OT      -0.834000       15.9994           0
     28357 TIP3     3214     TIP3     H1       HT       0.417000       1.00800           0
     28358 TIP3     3214     TIP3     H2       HT       0.417000       1.00800           0
     28359 TIP3     3215     TIP3     OH2      OT      -0.834000       15.9994           0
     28360 TIP3     3215     TIP3     H1       HT       0.417000       1.00800           0
     28361 TIP3     3215     TIP3     H2       HT       0.417000       1.00800           0
     28362 TIP3     3216     TIP3     OH2      OT      -0.834000       15.9994           0
     28363 TIP3     3216     TIP3     H1       HT       0.417000       1.00800           0
     28364 TIP3     3216     TIP3     H2       HT       0.417000       1.00800           0
     28365 TIP3     3217     TIP3     OH2      OT      -0.834000       15.9994           0
     28366 TIP3     3217     TIP3     H1       HT       0.417000       1.00800           0
     28367 TIP3     3217     TIP3     H2       HT       0.417000       1.00800           0
     28368 TIP3     3218     TIP3     OH2      OT      -0.834000       15.9994           0
     28369 TIP3     3218     TIP3     H1       HT       0.417000       1.00800           0
     28370 TIP3     3218     TIP3     H2       HT       0.417000       1.00800           0
     28371 TIP3     3219     TIP3     OH2      OT      -0.834000       15.9994           0
     28372 TIP3     3219     TIP3     H1       HT       0.417000       1.00800           0
     28373 TIP3     3219     TIP3     H2       HT       0.417000       1.00800           0
     28374 TIP3     3220     TIP3     OH2      OT      -0.834000       15.9994           0
     28375 TIP3     3220     TIP3     H1       HT       0.417000       1.00800           0
     28376 TIP3     3220     TIP3     H2       HT       0.417000       1.00800           0
     28377 TIP3     3221     TIP3     OH2      OT      -0.834000       15.9994           0
     28378 TIP3     3221     TIP3     H1       HT       0.417000       1.00800           0
     28379 TIP3     3221     TIP3     H2       HT       0.417000       1.00800           0
     28380 TIP3     3222     TIP3     OH2      OT      -0.834000       15.9994           0
     28381 TIP3     3222     TIP3     H1       HT       0.417000       1.00800           0
     28382 TIP3     3222     TIP3     H2       HT       0.417000       1.00800           0
     28383 TIP3     3223     TIP3     OH2      OT      -0.834000       15.9994           0
     28384 TIP3     3223     TIP3     H1       HT       0.417000       1.00800           0
     28385 TIP3     3223     TIP3     H2       HT       0.417000       1.00800           0
     28386 TIP3     3224     TIP3     OH2      OT      -0.834000       15.9994           0
     28387 TIP3     3224     TIP3     H1       HT       0.417000       1.00800           0
     28388 TIP3     3224     TIP3     H2       HT       0.417000       1.00800           0
     28389 TIP3     3225     TIP3     OH2      OT      -0.834000       15.9994           0
     28390 TIP3     3225     TIP3     H1       HT       0.417000       1.00800           0
     28391 TIP3     3225     TIP3     H2       HT       0.417000       1.00800           0
     28392 TIP3     3226     TIP3     OH2      OT      -0.834000       15.9994           0
     28393 TIP3     3226     TIP3     H1       HT       0.417000       1.00800           0
     28394 TIP3     3226     TIP3     H2       HT       0.417000       1.00800           0
     28395 TIP3     3227     TIP3     OH2      OT      -0.834000       15.9994           0
     28396 TIP3     3227     TIP3     H1       HT       0.417000       1.00800           0
     28397 TIP3     3227     TIP3     H2       HT       0.417000       1.00800           0
     28398 TIP3     3228     TIP3     OH2      OT      -0.834000       15.9994           0
     28399 TIP3     3228     TIP3     H1       HT       0.417000       1.00800           0
     28400 TIP3     3228     TIP3     H2       HT       0.417000       1.00800           0
     28401 TIP3     3229     TIP3     OH2      OT      -0.834000       15.9994           0
     28402 TIP3     3229     TIP3     H1       HT       0.417000       1.00800           0
     28403 TIP3     3229     TIP3     H2       HT       0.417000       1.00800           0
     28404 TIP3     3230     TIP3     OH2      OT      -0.834000       15.9994           0
     28405 TIP3     3230     TIP3     H1       HT       0.417000       1.00800           0
     28406 TIP3     3230     TIP3     H2       HT       0.417000       1.00800           0
     28407 TIP3     3231     TIP3     OH2      OT      -0.834000       15.9994           0
     28408 TIP3     3231     TIP3     H1       HT       0.417000       1.00800           0
     28409 TIP3     3231     TIP3     H2       HT       0.417000       1.00800           0
     28410 TIP3     3232     TIP3     OH2      OT      -0.834000       15.9994           0
     28411 TIP3     3232     TIP3     H1       HT       0.417000       1.00800           0
     28412 TIP3     3232     TIP3     H2       HT       0.417000       1.00800           0
     28413 TIP3     3233     TIP3     OH2      OT      -0.834000       15.9994           0
     28414 TIP3     3233     TIP3     H1       HT       0.417000       1.00800           0
     28415 TIP3     3233     TIP3     H2       HT       0.417000       1.00800           0
     28416 TIP3     3234     TIP3     OH2      OT      -0.834000       15.9994           0
     28417 TIP3     3234     TIP3     H1       HT       0.417000       1.00800           0
     28418 TIP3     3234     TIP3     H2       HT       0.417000       1.00800           0
     28419 TIP3     3235     TIP3     OH2      OT      -0.834000       15.9994           0
     28420 TIP3     3235     TIP3     H1       HT       0.417000       1.00800           0
     28421 TIP3     3235     TIP3     H2       HT       0.417000       1.00800           0
     28422 TIP3     3236     TIP3     OH2      OT      -0.834000       15.9994           0
     28423 TIP3     3236     TIP3     H1       HT       0.417000       1.00800           0
     28424 TIP3     3236     TIP3     H2       HT       0.417000       1.00800           0
     28425 TIP3     3237     TIP3     OH2      OT      -0.834000       15.9994           0
     28426 TIP3     3237     TIP3     H1       HT       0.417000       1.00800           0
     28427 TIP3     3237     TIP3     H2       HT       0.417000       1.00800           0
     28428 TIP3     3238     TIP3     OH2      OT      -0.834000       15.9994           0
     28429 TIP3     3238     TIP3     H1       HT       0.417000       1.00800           0
     28430 TIP3     3238     TIP3     H2       HT       0.417000       1.00800           0
     28431 TIP3     3239     TIP3     OH2      OT      -0.834000       15.9994           0
     28432 TIP3     3239     TIP3     H1       HT       0.417000       1.00800           0
     28433 TIP3     3239     TIP3     H2       HT       0.417000       1.00800           0
     28434 TIP3     3240     TIP3     OH2      OT      -0.834000       15.9994           0
     28435 TIP3     3240     TIP3     H1       HT       0.417000       1.00800           0
     28436 TIP3     3240     TIP3     H2       HT       0.417000       1.00800           0
     28437 TIP3     3241     TIP3     OH2      OT      -0.834000       15.9994           0
     28438 TIP3     3241     TIP3     H1       HT       0.417000       1.00800           0
     28439 TIP3     3241     TIP3     H2       HT       0.417000       1.00800           0
     28440 TIP3     3242     TIP3     OH2      OT      -0.834000       15.9994           0
     28441 TIP3     3242     TIP3     H1       HT       0.417000       1.00800           0
     28442 TIP3     3242     TIP3     H2       HT       0.417000       1.00800           0
     28443 TIP3     3243     TIP3     OH2      OT      -0.834000       15.9994           0
     28444 TIP3     3243     TIP3     H1       HT       0.417000       1.00800           0
     28445 TIP3     3243     TIP3     H2       HT       0.417000       1.00800           0
     28446 TIP3     3244     TIP3     OH2      OT      -0.834000       15.9994           0
     28447 TIP3     3244     TIP3     H1       HT       0.417000       1.00800           0
     28448 TIP3     3244     TIP3     H2       HT       0.417000       1.00800           0
     28449 TIP3     3245     TIP3     OH2      OT      -0.834000       15.9994           0
     28450 TIP3     3245     TIP3     H1       HT       0.417000       1.00800           0
     28451 TIP3     3245     TIP3     H2       HT       0.417000       1.00800           0
     28452 TIP3     3246     TIP3     OH2      OT      -0.834000       15.9994           0
     28453 TIP3     3246     TIP3     H1       HT       0.417000       1.00800           0
     28454 TIP3     3246     TIP3     H2       HT       0.417000       1.00800           0
     28455 TIP3     3247     TIP3     OH2      OT      -0.834000       15.9994           0
     28456 TIP3     3247     TIP3     H1       HT       0.417000       1.00800           0
     28457 TIP3     3247     TIP3     H2       HT       0.417000       1.00800           0
     28458 TIP3     3248     TIP3     OH2      OT      -0.834000       15.9994           0
     28459 TIP3     3248     TIP3     H1       HT       0.417000       1.00800           0
     28460 TIP3     3248     TIP3     H2       HT       0.417000       1.00800           0
     28461 TIP3     3249     TIP3     OH2      OT      -0.834000       15.9994           0
     28462 TIP3     3249     TIP3     H1       HT       0.417000       1.00800           0
     28463 TIP3     3249     TIP3     H2       HT       0.417000       1.00800           0
     28464 TIP3     3250     TIP3     OH2      OT      -0.834000       15.9994           0
     28465 TIP3     3250     TIP3     H1       HT       0.417000       1.00800           0
     28466 TIP3     3250     TIP3     H2       HT       0.417000       1.00800           0
     28467 TIP3     3251     TIP3     OH2      OT      -0.834000       15.9994           0
     28468 TIP3     3251     TIP3     H1       HT       0.417000       1.00800           0
     28469 TIP3     3251     TIP3     H2       HT       0.417000       1.00800           0
     28470 TIP3     3252     TIP3     OH2      OT      -0.834000       15.9994           0
     28471 TIP3     3252     TIP3     H1       HT       0.417000       1.00800           0
     28472 TIP3     3252     TIP3     H2       HT       0.417000       1.00800           0
     28473 TIP3     3253     TIP3     OH2      OT      -0.834000       15.9994           0
     28474 TIP3     3253     TIP3     H1       HT       0.417000       1.00800           0
     28475 TIP3     3253     TIP3     H2       HT       0.417000       1.00800           0
     28476 TIP3     3254     TIP3     OH2      OT      -0.834000       15.9994           0
     28477 TIP3     3254     TIP3     H1       HT       0.417000       1.00800           0
     28478 TIP3     3254     TIP3     H2       HT       0.417000       1.00800           0
     28479 TIP3     3255     TIP3     OH2      OT      -0.834000       15.9994           0
     28480 TIP3     3255     TIP3     H1       HT       0.417000       1.00800           0
     28481 TIP3     3255     TIP3     H2       HT       0.417000       1.00800           0
     28482 TIP3     3256     TIP3     OH2      OT      -0.834000       15.9994           0
     28483 TIP3     3256     TIP3     H1       HT       0.417000       1.00800           0
     28484 TIP3     3256     TIP3     H2       HT       0.417000       1.00800           0
     28485 TIP3     3257     TIP3     OH2      OT      -0.834000       15.9994           0
     28486 TIP3     3257     TIP3     H1       HT       0.417000       1.00800           0
     28487 TIP3     3257     TIP3     H2       HT       0.417000       1.00800           0
     28488 TIP3     3258     TIP3     OH2      OT      -0.834000       15.9994           0
     28489 TIP3     3258     TIP3     H1       HT       0.417000       1.00800           0
     28490 TIP3     3258     TIP3     H2       HT       0.417000       1.00800           0
     28491 TIP3     3259     TIP3     OH2      OT      -0.834000       15.9994           0
     28492 TIP3     3259     TIP3     H1       HT       0.417000       1.00800           0
     28493 TIP3     3259     TIP3     H2       HT       0.417000       1.00800           0
     28494 TIP3     3260     TIP3     OH2      OT      -0.834000       15.9994           0
     28495 TIP3     3260     TIP3     H1       HT       0.417000       1.00800           0
     28496 TIP3     3260     TIP3     H2       HT       0.417000       1.00800           0
     28497 TIP3     3261     TIP3     OH2      OT      -0.834000       15.9994           0
     28498 TIP3     3261     TIP3     H1       HT       0.417000       1.00800           0
     28499 TIP3     3261     TIP3     H2       HT       0.417000       1.00800           0
     28500 TIP3     3262     TIP3     OH2      OT      -0.834000       15.9994           0
     28501 TIP3     3262     TIP3     H1       HT       0.417000       1.00800           0
     28502 TIP3     3262     TIP3     H2       HT       0.417000       1.00800           0
     28503 TIP3     3263     TIP3     OH2      OT      -0.834000       15.9994           0
     28504 TIP3     3263     TIP3     H1       HT       0.417000       1.00800           0
     28505 TIP3     3263     TIP3     H2       HT       0.417000       1.00800           0
     28506 TIP3     3264     TIP3     OH2      OT      -0.834000       15.9994           0
     28507 TIP3     3264     TIP3     H1       HT       0.417000       1.00800           0
     28508 TIP3     3264     TIP3     H2       HT       0.417000       1.00800           0
     28509 TIP3     3265     TIP3     OH2      OT      -0.834000       15.9994           0
     28510 TIP3     3265     TIP3     H1       HT       0.417000       1.00800           0
     28511 TIP3     3265     TIP3     H2       HT       0.417000       1.00800           0
     28512 TIP3     3266     TIP3     OH2      OT      -0.834000       15.9994           0
     28513 TIP3     3266     TIP3     H1       HT       0.417000       1.00800           0
     28514 TIP3     3266     TIP3     H2       HT       0.417000       1.00800           0
     28515 TIP3     3267     TIP3     OH2      OT      -0.834000       15.9994           0
     28516 TIP3     3267     TIP3     H1       HT       0.417000       1.00800           0
     28517 TIP3     3267     TIP3     H2       HT       0.417000       1.00800           0
     28518 TIP3     3268     TIP3     OH2      OT      -0.834000       15.9994           0
     28519 TIP3     3268     TIP3     H1       HT       0.417000       1.00800           0
     28520 TIP3     3268     TIP3     H2       HT       0.417000       1.00800           0
     28521 TIP3     3269     TIP3     OH2      OT      -0.834000       15.9994           0
     28522 TIP3     3269     TIP3     H1       HT       0.417000       1.00800           0
     28523 TIP3     3269     TIP3     H2       HT       0.417000       1.00800           0
     28524 TIP3     3270     TIP3     OH2      OT      -0.834000       15.9994           0
     28525 TIP3     3270     TIP3     H1       HT       0.417000       1.00800           0
     28526 TIP3     3270     TIP3     H2       HT       0.417000       1.00800           0
     28527 TIP3     3271     TIP3     OH2      OT      -0.834000       15.9994           0
     28528 TIP3     3271     TIP3     H1       HT       0.417000       1.00800           0
     28529 TIP3     3271     TIP3     H2       HT       0.417000       1.00800           0
     28530 TIP3     3272     TIP3     OH2      OT      -0.834000       15.9994           0
     28531 TIP3     3272     TIP3     H1       HT       0.417000       1.00800           0
     28532 TIP3     3272     TIP3     H2       HT       0.417000       1.00800           0
     28533 TIP3     3273     TIP3     OH2      OT      -0.834000       15.9994           0
     28534 TIP3     3273     TIP3     H1       HT       0.417000       1.00800           0
     28535 TIP3     3273     TIP3     H2       HT       0.417000       1.00800           0
     28536 TIP3     3274     TIP3     OH2      OT      -0.834000       15.9994           0
     28537 TIP3     3274     TIP3     H1       HT       0.417000       1.00800           0
     28538 TIP3     3274     TIP3     H2       HT       0.417000       1.00800           0
     28539 TIP3     3275     TIP3     OH2      OT      -0.834000       15.9994           0
     28540 TIP3     3275     TIP3     H1       HT       0.417000       1.00800           0
     28541 TIP3     3275     TIP3     H2       HT       0.417000       1.00800           0
     28542 TIP3     3276     TIP3     OH2      OT      -0.834000       15.9994           0
     28543 TIP3     3276     TIP3     H1       HT       0.417000       1.00800           0
     28544 TIP3     3276     TIP3     H2       HT       0.417000       1.00800           0
     28545 TIP3     3277     TIP3     OH2      OT      -0.834000       15.9994           0
     28546 TIP3     3277     TIP3     H1       HT       0.417000       1.00800           0
     28547 TIP3     3277     TIP3     H2       HT       0.417000       1.00800           0
     28548 TIP3     3278     TIP3     OH2      OT      -0.834000       15.9994           0
     28549 TIP3     3278     TIP3     H1       HT       0.417000       1.00800           0
     28550 TIP3     3278     TIP3     H2       HT       0.417000       1.00800           0
     28551 TIP3     3279     TIP3     OH2      OT      -0.834000       15.9994           0
     28552 TIP3     3279     TIP3     H1       HT       0.417000       1.00800           0
     28553 TIP3     3279     TIP3     H2       HT       0.417000       1.00800           0
     28554 TIP3     3280     TIP3     OH2      OT      -0.834000       15.9994           0
     28555 TIP3     3280     TIP3     H1       HT       0.417000       1.00800           0
     28556 TIP3     3280     TIP3     H2       HT       0.417000       1.00800           0
     28557 TIP3     3281     TIP3     OH2      OT      -0.834000       15.9994           0
     28558 TIP3     3281     TIP3     H1       HT       0.417000       1.00800           0
     28559 TIP3     3281     TIP3     H2       HT       0.417000       1.00800           0
     28560 TIP3     3282     TIP3     OH2      OT      -0.834000       15.9994           0
     28561 TIP3     3282     TIP3     H1       HT       0.417000       1.00800           0
     28562 TIP3     3282     TIP3     H2       HT       0.417000       1.00800           0
     28563 TIP3     3283     TIP3     OH2      OT      -0.834000       15.9994           0
     28564 TIP3     3283     TIP3     H1       HT       0.417000       1.00800           0
     28565 TIP3     3283     TIP3     H2       HT       0.417000       1.00800           0
     28566 TIP3     3284     TIP3     OH2      OT      -0.834000       15.9994           0
     28567 TIP3     3284     TIP3     H1       HT       0.417000       1.00800           0
     28568 TIP3     3284     TIP3     H2       HT       0.417000       1.00800           0
     28569 TIP3     3285     TIP3     OH2      OT      -0.834000       15.9994           0
     28570 TIP3     3285     TIP3     H1       HT       0.417000       1.00800           0
     28571 TIP3     3285     TIP3     H2       HT       0.417000       1.00800           0
     28572 TIP3     3286     TIP3     OH2      OT      -0.834000       15.9994           0
     28573 TIP3     3286     TIP3     H1       HT       0.417000       1.00800           0
     28574 TIP3     3286     TIP3     H2       HT       0.417000       1.00800           0
     28575 TIP3     3287     TIP3     OH2      OT      -0.834000       15.9994           0
     28576 TIP3     3287     TIP3     H1       HT       0.417000       1.00800           0
     28577 TIP3     3287     TIP3     H2       HT       0.417000       1.00800           0
     28578 TIP3     3288     TIP3     OH2      OT      -0.834000       15.9994           0
     28579 TIP3     3288     TIP3     H1       HT       0.417000       1.00800           0
     28580 TIP3     3288     TIP3     H2       HT       0.417000       1.00800           0
     28581 TIP3     3289     TIP3     OH2      OT      -0.834000       15.9994           0
     28582 TIP3     3289     TIP3     H1       HT       0.417000       1.00800           0
     28583 TIP3     3289     TIP3     H2       HT       0.417000       1.00800           0
     28584 TIP3     3290     TIP3     OH2      OT      -0.834000       15.9994           0
     28585 TIP3     3290     TIP3     H1       HT       0.417000       1.00800           0
     28586 TIP3     3290     TIP3     H2       HT       0.417000       1.00800           0
     28587 TIP3     3291     TIP3     OH2      OT      -0.834000       15.9994           0
     28588 TIP3     3291     TIP3     H1       HT       0.417000       1.00800           0
     28589 TIP3     3291     TIP3     H2       HT       0.417000       1.00800           0
     28590 TIP3     3292     TIP3     OH2      OT      -0.834000       15.9994           0
     28591 TIP3     3292     TIP3     H1       HT       0.417000       1.00800           0
     28592 TIP3     3292     TIP3     H2       HT       0.417000       1.00800           0
     28593 TIP3     3293     TIP3     OH2      OT      -0.834000       15.9994           0
     28594 TIP3     3293     TIP3     H1       HT       0.417000       1.00800           0
     28595 TIP3     3293     TIP3     H2       HT       0.417000       1.00800           0
     28596 TIP3     3294     TIP3     OH2      OT      -0.834000       15.9994           0
     28597 TIP3     3294     TIP3     H1       HT       0.417000       1.00800           0
     28598 TIP3     3294     TIP3     H2       HT       0.417000       1.00800           0
     28599 TIP3     3295     TIP3     OH2      OT      -0.834000       15.9994           0
     28600 TIP3     3295     TIP3     H1       HT       0.417000       1.00800           0
     28601 TIP3     3295     TIP3     H2       HT       0.417000       1.00800           0
     28602 TIP3     3296     TIP3     OH2      OT      -0.834000       15.9994           0
     28603 TIP3     3296     TIP3     H1       HT       0.417000       1.00800           0
     28604 TIP3     3296     TIP3     H2       HT       0.417000       1.00800           0
     28605 TIP3     3297     TIP3     OH2      OT      -0.834000       15.9994           0
     28606 TIP3     3297     TIP3     H1       HT       0.417000       1.00800           0
     28607 TIP3     3297     TIP3     H2       HT       0.417000       1.00800           0
     28608 TIP3     3298     TIP3     OH2      OT      -0.834000       15.9994           0
     28609 TIP3     3298     TIP3     H1       HT       0.417000       1.00800           0
     28610 TIP3     3298     TIP3     H2       HT       0.417000       1.00800           0
     28611 TIP3     3299     TIP3     OH2      OT      -0.834000       15.9994           0
     28612 TIP3     3299     TIP3     H1       HT       0.417000       1.00800           0
     28613 TIP3     3299     TIP3     H2       HT       0.417000       1.00800           0
     28614 TIP3     3300     TIP3     OH2      OT      -0.834000       15.9994           0
     28615 TIP3     3300     TIP3     H1       HT       0.417000       1.00800           0
     28616 TIP3     3300     TIP3     H2       HT       0.417000       1.00800           0
     28617 TIP3     3301     TIP3     OH2      OT      -0.834000       15.9994           0
     28618 TIP3     3301     TIP3     H1       HT       0.417000       1.00800           0
     28619 TIP3     3301     TIP3     H2       HT       0.417000       1.00800           0
     28620 TIP3     3302     TIP3     OH2      OT      -0.834000       15.9994           0
     28621 TIP3     3302     TIP3     H1       HT       0.417000       1.00800           0
     28622 TIP3     3302     TIP3     H2       HT       0.417000       1.00800           0
     28623 TIP3     3303     TIP3     OH2      OT      -0.834000       15.9994           0
     28624 TIP3     3303     TIP3     H1       HT       0.417000       1.00800           0
     28625 TIP3     3303     TIP3     H2       HT       0.417000       1.00800           0
     28626 TIP3     3304     TIP3     OH2      OT      -0.834000       15.9994           0
     28627 TIP3     3304     TIP3     H1       HT       0.417000       1.00800           0
     28628 TIP3     3304     TIP3     H2       HT       0.417000       1.00800           0
     28629 TIP3     3305     TIP3     OH2      OT      -0.834000       15.9994           0
     28630 TIP3     3305     TIP3     H1       HT       0.417000       1.00800           0
     28631 TIP3     3305     TIP3     H2       HT       0.417000       1.00800           0
     28632 TIP3     3306     TIP3     OH2      OT      -0.834000       15.9994           0
     28633 TIP3     3306     TIP3     H1       HT       0.417000       1.00800           0
     28634 TIP3     3306     TIP3     H2       HT       0.417000       1.00800           0
     28635 TIP3     3307     TIP3     OH2      OT      -0.834000       15.9994           0
     28636 TIP3     3307     TIP3     H1       HT       0.417000       1.00800           0
     28637 TIP3     3307     TIP3     H2       HT       0.417000       1.00800           0
     28638 TIP3     3308     TIP3     OH2      OT      -0.834000       15.9994           0
     28639 TIP3     3308     TIP3     H1       HT       0.417000       1.00800           0
     28640 TIP3     3308     TIP3     H2       HT       0.417000       1.00800           0
     28641 TIP3     3309     TIP3     OH2      OT      -0.834000       15.9994           0
     28642 TIP3     3309     TIP3     H1       HT       0.417000       1.00800           0
     28643 TIP3     3309     TIP3     H2       HT       0.417000       1.00800           0
     28644 TIP3     3310     TIP3     OH2      OT      -0.834000       15.9994           0
     28645 TIP3     3310     TIP3     H1       HT       0.417000       1.00800           0
     28646 TIP3     3310     TIP3     H2       HT       0.417000       1.00800           0
     28647 TIP3     3311     TIP3     OH2      OT      -0.834000       15.9994           0
     28648 TIP3     3311     TIP3     H1       HT       0.417000       1.00800           0
     28649 TIP3     3311     TIP3     H2       HT       0.417000       1.00800           0
     28650 TIP3     3312     TIP3     OH2      OT      -0.834000       15.9994           0
     28651 TIP3     3312     TIP3     H1       HT       0.417000       1.00800           0
     28652 TIP3     3312     TIP3     H2       HT       0.417000       1.00800           0
     28653 TIP3     3313     TIP3     OH2      OT      -0.834000       15.9994           0
     28654 TIP3     3313     TIP3     H1       HT       0.417000       1.00800           0
     28655 TIP3     3313     TIP3     H2       HT       0.417000       1.00800           0
     28656 TIP3     3314     TIP3     OH2      OT      -0.834000       15.9994           0
     28657 TIP3     3314     TIP3     H1       HT       0.417000       1.00800           0
     28658 TIP3     3314     TIP3     H2       HT       0.417000       1.00800           0
     28659 TIP3     3315     TIP3     OH2      OT      -0.834000       15.9994           0
     28660 TIP3     3315     TIP3     H1       HT       0.417000       1.00800           0
     28661 TIP3     3315     TIP3     H2       HT       0.417000       1.00800           0
     28662 TIP3     3316     TIP3     OH2      OT      -0.834000       15.9994           0
     28663 TIP3     3316     TIP3     H1       HT       0.417000       1.00800           0
     28664 TIP3     3316     TIP3     H2       HT       0.417000       1.00800           0
     28665 TIP3     3317     TIP3     OH2      OT      -0.834000       15.9994           0
     28666 TIP3     3317     TIP3     H1       HT       0.417000       1.00800           0
     28667 TIP3     3317     TIP3     H2       HT       0.417000       1.00800           0
     28668 TIP3     3318     TIP3     OH2      OT      -0.834000       15.9994           0
     28669 TIP3     3318     TIP3     H1       HT       0.417000       1.00800           0
     28670 TIP3     3318     TIP3     H2       HT       0.417000       1.00800           0
     28671 TIP3     3319     TIP3     OH2      OT      -0.834000       15.9994           0
     28672 TIP3     3319     TIP3     H1       HT       0.417000       1.00800           0
     28673 TIP3     3319     TIP3     H2       HT       0.417000       1.00800           0
     28674 TIP3     3320     TIP3     OH2      OT      -0.834000       15.9994           0
     28675 TIP3     3320     TIP3     H1       HT       0.417000       1.00800           0
     28676 TIP3     3320     TIP3     H2       HT       0.417000       1.00800           0
     28677 TIP3     3321     TIP3     OH2      OT      -0.834000       15.9994           0
     28678 TIP3     3321     TIP3     H1       HT       0.417000       1.00800           0
     28679 TIP3     3321     TIP3     H2       HT       0.417000       1.00800           0
     28680 TIP3     3322     TIP3     OH2      OT      -0.834000       15.9994           0
     28681 TIP3     3322     TIP3     H1       HT       0.417000       1.00800           0
     28682 TIP3     3322     TIP3     H2       HT       0.417000       1.00800           0
     28683 TIP3     3323     TIP3     OH2      OT      -0.834000       15.9994           0
     28684 TIP3     3323     TIP3     H1       HT       0.417000       1.00800           0
     28685 TIP3     3323     TIP3     H2       HT       0.417000       1.00800           0
     28686 TIP3     3324     TIP3     OH2      OT      -0.834000       15.9994           0
     28687 TIP3     3324     TIP3     H1       HT       0.417000       1.00800           0
     28688 TIP3     3324     TIP3     H2       HT       0.417000       1.00800           0
     28689 TIP3     3325     TIP3     OH2      OT      -0.834000       15.9994           0
     28690 TIP3     3325     TIP3     H1       HT       0.417000       1.00800           0
     28691 TIP3     3325     TIP3     H2       HT       0.417000       1.00800           0
     28692 TIP3     3326     TIP3     OH2      OT      -0.834000       15.9994           0
     28693 TIP3     3326     TIP3     H1       HT       0.417000       1.00800           0
     28694 TIP3     3326     TIP3     H2       HT       0.417000       1.00800           0
     28695 TIP3     3327     TIP3     OH2      OT      -0.834000       15.9994           0
     28696 TIP3     3327     TIP3     H1       HT       0.417000       1.00800           0
     28697 TIP3     3327     TIP3     H2       HT       0.417000       1.00800           0
     28698 TIP3     3328     TIP3     OH2      OT      -0.834000       15.9994           0
     28699 TIP3     3328     TIP3     H1       HT       0.417000       1.00800           0
     28700 TIP3     3328     TIP3     H2       HT       0.417000       1.00800           0
     28701 TIP3     3329     TIP3     OH2      OT      -0.834000       15.9994           0
     28702 TIP3     3329     TIP3     H1       HT       0.417000       1.00800           0
     28703 TIP3     3329     TIP3     H2       HT       0.417000       1.00800           0
     28704 TIP3     3330     TIP3     OH2      OT      -0.834000       15.9994           0
     28705 TIP3     3330     TIP3     H1       HT       0.417000       1.00800           0
     28706 TIP3     3330     TIP3     H2       HT       0.417000       1.00800           0
     28707 TIP3     3331     TIP3     OH2      OT      -0.834000       15.9994           0
     28708 TIP3     3331     TIP3     H1       HT       0.417000       1.00800           0
     28709 TIP3     3331     TIP3     H2       HT       0.417000       1.00800           0
     28710 TIP3     3332     TIP3     OH2      OT      -0.834000       15.9994           0
     28711 TIP3     3332     TIP3     H1       HT       0.417000       1.00800           0
     28712 TIP3     3332     TIP3     H2       HT       0.417000       1.00800           0
     28713 TIP3     3333     TIP3     OH2      OT      -0.834000       15.9994           0
     28714 TIP3     3333     TIP3     H1       HT       0.417000       1.00800           0
     28715 TIP3     3333     TIP3     H2       HT       0.417000       1.00800           0
     28716 TIP3     3334     TIP3     OH2      OT      -0.834000       15.9994           0
     28717 TIP3     3334     TIP3     H1       HT       0.417000       1.00800           0
     28718 TIP3     3334     TIP3     H2       HT       0.417000       1.00800           0
     28719 TIP3     3335     TIP3     OH2      OT      -0.834000       15.9994           0
     28720 TIP3     3335     TIP3     H1       HT       0.417000       1.00800           0
     28721 TIP3     3335     TIP3     H2       HT       0.417000       1.00800           0
     28722 TIP3     3336     TIP3     OH2      OT      -0.834000       15.9994           0
     28723 TIP3     3336     TIP3     H1       HT       0.417000       1.00800           0
     28724 TIP3     3336     TIP3     H2       HT       0.417000       1.00800           0
     28725 TIP3     3337     TIP3     OH2      OT      -0.834000       15.9994           0
     28726 TIP3     3337     TIP3     H1       HT       0.417000       1.00800           0
     28727 TIP3     3337     TIP3     H2       HT       0.417000       1.00800           0
     28728 TIP3     3338     TIP3     OH2      OT      -0.834000       15.9994           0
     28729 TIP3     3338     TIP3     H1       HT       0.417000       1.00800           0
     28730 TIP3     3338     TIP3     H2       HT       0.417000       1.00800           0
     28731 TIP3     3339     TIP3     OH2      OT      -0.834000       15.9994           0
     28732 TIP3     3339     TIP3     H1       HT       0.417000       1.00800           0
     28733 TIP3     3339     TIP3     H2       HT       0.417000       1.00800           0
     28734 TIP3     3340     TIP3     OH2      OT      -0.834000       15.9994           0
     28735 TIP3     3340     TIP3     H1       HT       0.417000       1.00800           0
     28736 TIP3     3340     TIP3     H2       HT       0.417000       1.00800           0
     28737 TIP3     3341     TIP3     OH2      OT      -0.834000       15.9994           0
     28738 TIP3     3341     TIP3     H1       HT       0.417000       1.00800           0
     28739 TIP3     3341     TIP3     H2       HT       0.417000       1.00800           0
     28740 TIP3     3342     TIP3     OH2      OT      -0.834000       15.9994           0
     28741 TIP3     3342     TIP3     H1       HT       0.417000       1.00800           0
     28742 TIP3     3342     TIP3     H2       HT       0.417000       1.00800           0
     28743 TIP3     3343     TIP3     OH2      OT      -0.834000       15.9994           0
     28744 TIP3     3343     TIP3     H1       HT       0.417000       1.00800           0
     28745 TIP3     3343     TIP3     H2       HT       0.417000       1.00800           0
     28746 TIP3     3344     TIP3     OH2      OT      -0.834000       15.9994           0
     28747 TIP3     3344     TIP3     H1       HT       0.417000       1.00800           0
     28748 TIP3     3344     TIP3     H2       HT       0.417000       1.00800           0
     28749 TIP3     3345     TIP3     OH2      OT      -0.834000       15.9994           0
     28750 TIP3     3345     TIP3     H1       HT       0.417000       1.00800           0
     28751 TIP3     3345     TIP3     H2       HT       0.417000       1.00800           0
     28752 TIP3     3346     TIP3     OH2      OT      -0.834000       15.9994           0
     28753 TIP3     3346     TIP3     H1       HT       0.417000       1.00800           0
     28754 TIP3     3346     TIP3     H2       HT       0.417000       1.00800           0
     28755 TIP3     3347     TIP3     OH2      OT      -0.834000       15.9994           0
     28756 TIP3     3347     TIP3     H1       HT       0.417000       1.00800           0
     28757 TIP3     3347     TIP3     H2       HT       0.417000       1.00800           0
     28758 TIP3     3348     TIP3     OH2      OT      -0.834000       15.9994           0
     28759 TIP3     3348     TIP3     H1       HT       0.417000       1.00800           0
     28760 TIP3     3348     TIP3     H2       HT       0.417000       1.00800           0
     28761 TIP3     3349     TIP3     OH2      OT      -0.834000       15.9994           0
     28762 TIP3     3349     TIP3     H1       HT       0.417000       1.00800           0
     28763 TIP3     3349     TIP3     H2       HT       0.417000       1.00800           0
     28764 TIP3     3350     TIP3     OH2      OT      -0.834000       15.9994           0
     28765 TIP3     3350     TIP3     H1       HT       0.417000       1.00800           0
     28766 TIP3     3350     TIP3     H2       HT       0.417000       1.00800           0
     28767 TIP3     3351     TIP3     OH2      OT      -0.834000       15.9994           0
     28768 TIP3     3351     TIP3     H1       HT       0.417000       1.00800           0
     28769 TIP3     3351     TIP3     H2       HT       0.417000       1.00800           0
     28770 TIP3     3352     TIP3     OH2      OT      -0.834000       15.9994           0
     28771 TIP3     3352     TIP3     H1       HT       0.417000       1.00800           0
     28772 TIP3     3352     TIP3     H2       HT       0.417000       1.00800           0
     28773 TIP3     3353     TIP3     OH2      OT      -0.834000       15.9994           0
     28774 TIP3     3353     TIP3     H1       HT       0.417000       1.00800           0
     28775 TIP3     3353     TIP3     H2       HT       0.417000       1.00800           0
     28776 TIP3     3354     TIP3     OH2      OT      -0.834000       15.9994           0
     28777 TIP3     3354     TIP3     H1       HT       0.417000       1.00800           0
     28778 TIP3     3354     TIP3     H2       HT       0.417000       1.00800           0
     28779 TIP3     3355     TIP3     OH2      OT      -0.834000       15.9994           0
     28780 TIP3     3355     TIP3     H1       HT       0.417000       1.00800           0
     28781 TIP3     3355     TIP3     H2       HT       0.417000       1.00800           0
     28782 TIP3     3356     TIP3     OH2      OT      -0.834000       15.9994           0
     28783 TIP3     3356     TIP3     H1       HT       0.417000       1.00800           0
     28784 TIP3     3356     TIP3     H2       HT       0.417000       1.00800           0
     28785 TIP3     3357     TIP3     OH2      OT      -0.834000       15.9994           0
     28786 TIP3     3357     TIP3     H1       HT       0.417000       1.00800           0
     28787 TIP3     3357     TIP3     H2       HT       0.417000       1.00800           0
     28788 TIP3     3358     TIP3     OH2      OT      -0.834000       15.9994           0
     28789 TIP3     3358     TIP3     H1       HT       0.417000       1.00800           0
     28790 TIP3     3358     TIP3     H2       HT       0.417000       1.00800           0
     28791 TIP3     3359     TIP3     OH2      OT      -0.834000       15.9994           0
     28792 TIP3     3359     TIP3     H1       HT       0.417000       1.00800           0
     28793 TIP3     3359     TIP3     H2       HT       0.417000       1.00800           0
     28794 TIP3     3360     TIP3     OH2      OT      -0.834000       15.9994           0
     28795 TIP3     3360     TIP3     H1       HT       0.417000       1.00800           0
     28796 TIP3     3360     TIP3     H2       HT       0.417000       1.00800           0
     28797 TIP3     3361     TIP3     OH2      OT      -0.834000       15.9994           0
     28798 TIP3     3361     TIP3     H1       HT       0.417000       1.00800           0
     28799 TIP3     3361     TIP3     H2       HT       0.417000       1.00800           0
     28800 TIP3     3362     TIP3     OH2      OT      -0.834000       15.9994           0
     28801 TIP3     3362     TIP3     H1       HT       0.417000       1.00800           0
     28802 TIP3     3362     TIP3     H2       HT       0.417000       1.00800           0
     28803 TIP3     3363     TIP3     OH2      OT      -0.834000       15.9994           0
     28804 TIP3     3363     TIP3     H1       HT       0.417000       1.00800           0
     28805 TIP3     3363     TIP3     H2       HT       0.417000       1.00800           0
     28806 TIP3     3364     TIP3     OH2      OT      -0.834000       15.9994           0
     28807 TIP3     3364     TIP3     H1       HT       0.417000       1.00800           0
     28808 TIP3     3364     TIP3     H2       HT       0.417000       1.00800           0
     28809 TIP3     3365     TIP3     OH2      OT      -0.834000       15.9994           0
     28810 TIP3     3365     TIP3     H1       HT       0.417000       1.00800           0
     28811 TIP3     3365     TIP3     H2       HT       0.417000       1.00800           0
     28812 TIP3     3366     TIP3     OH2      OT      -0.834000       15.9994           0
     28813 TIP3     3366     TIP3     H1       HT       0.417000       1.00800           0
     28814 TIP3     3366     TIP3     H2       HT       0.417000       1.00800           0
     28815 TIP3     3367     TIP3     OH2      OT      -0.834000       15.9994           0
     28816 TIP3     3367     TIP3     H1       HT       0.417000       1.00800           0
     28817 TIP3     3367     TIP3     H2       HT       0.417000       1.00800           0
     28818 TIP3     3368     TIP3     OH2      OT      -0.834000       15.9994           0
     28819 TIP3     3368     TIP3     H1       HT       0.417000       1.00800           0
     28820 TIP3     3368     TIP3     H2       HT       0.417000       1.00800           0
     28821 TIP3     3369     TIP3     OH2      OT      -0.834000       15.9994           0
     28822 TIP3     3369     TIP3     H1       HT       0.417000       1.00800           0
     28823 TIP3     3369     TIP3     H2       HT       0.417000       1.00800           0
     28824 TIP3     3370     TIP3     OH2      OT      -0.834000       15.9994           0
     28825 TIP3     3370     TIP3     H1       HT       0.417000       1.00800           0
     28826 TIP3     3370     TIP3     H2       HT       0.417000       1.00800           0
     28827 TIP3     3371     TIP3     OH2      OT      -0.834000       15.9994           0
     28828 TIP3     3371     TIP3     H1       HT       0.417000       1.00800           0
     28829 TIP3     3371     TIP3     H2       HT       0.417000       1.00800           0
     28830 TIP3     3372     TIP3     OH2      OT      -0.834000       15.9994           0
     28831 TIP3     3372     TIP3     H1       HT       0.417000       1.00800           0
     28832 TIP3     3372     TIP3     H2       HT       0.417000       1.00800           0
     28833 TIP3     3373     TIP3     OH2      OT      -0.834000       15.9994           0
     28834 TIP3     3373     TIP3     H1       HT       0.417000       1.00800           0
     28835 TIP3     3373     TIP3     H2       HT       0.417000       1.00800           0
     28836 TIP3     3374     TIP3     OH2      OT      -0.834000       15.9994           0
     28837 TIP3     3374     TIP3     H1       HT       0.417000       1.00800           0
     28838 TIP3     3374     TIP3     H2       HT       0.417000       1.00800           0
     28839 TIP3     3375     TIP3     OH2      OT      -0.834000       15.9994           0
     28840 TIP3     3375     TIP3     H1       HT       0.417000       1.00800           0
     28841 TIP3     3375     TIP3     H2       HT       0.417000       1.00800           0
     28842 TIP3     3376     TIP3     OH2      OT      -0.834000       15.9994           0
     28843 TIP3     3376     TIP3     H1       HT       0.417000       1.00800           0
     28844 TIP3     3376     TIP3     H2       HT       0.417000       1.00800           0
     28845 TIP3     3377     TIP3     OH2      OT      -0.834000       15.9994           0
     28846 TIP3     3377     TIP3     H1       HT       0.417000       1.00800           0
     28847 TIP3     3377     TIP3     H2       HT       0.417000       1.00800           0
     28848 TIP3     3378     TIP3     OH2      OT      -0.834000       15.9994           0
     28849 TIP3     3378     TIP3     H1       HT       0.417000       1.00800           0
     28850 TIP3     3378     TIP3     H2       HT       0.417000       1.00800           0
     28851 TIP3     3379     TIP3     OH2      OT      -0.834000       15.9994           0
     28852 TIP3     3379     TIP3     H1       HT       0.417000       1.00800           0
     28853 TIP3     3379     TIP3     H2       HT       0.417000       1.00800           0
     28854 TIP3     3380     TIP3     OH2      OT      -0.834000       15.9994           0
     28855 TIP3     3380     TIP3     H1       HT       0.417000       1.00800           0
     28856 TIP3     3380     TIP3     H2       HT       0.417000       1.00800           0
     28857 TIP3     3381     TIP3     OH2      OT      -0.834000       15.9994           0
     28858 TIP3     3381     TIP3     H1       HT       0.417000       1.00800           0
     28859 TIP3     3381     TIP3     H2       HT       0.417000       1.00800           0
     28860 TIP3     3382     TIP3     OH2      OT      -0.834000       15.9994           0
     28861 TIP3     3382     TIP3     H1       HT       0.417000       1.00800           0
     28862 TIP3     3382     TIP3     H2       HT       0.417000       1.00800           0
     28863 TIP3     3383     TIP3     OH2      OT      -0.834000       15.9994           0
     28864 TIP3     3383     TIP3     H1       HT       0.417000       1.00800           0
     28865 TIP3     3383     TIP3     H2       HT       0.417000       1.00800           0
     28866 TIP3     3384     TIP3     OH2      OT      -0.834000       15.9994           0
     28867 TIP3     3384     TIP3     H1       HT       0.417000       1.00800           0
     28868 TIP3     3384     TIP3     H2       HT       0.417000       1.00800           0
     28869 TIP3     3385     TIP3     OH2      OT      -0.834000       15.9994           0
     28870 TIP3     3385     TIP3     H1       HT       0.417000       1.00800           0
     28871 TIP3     3385     TIP3     H2       HT       0.417000       1.00800           0
     28872 TIP3     3386     TIP3     OH2      OT      -0.834000       15.9994           0
     28873 TIP3     3386     TIP3     H1       HT       0.417000       1.00800           0
     28874 TIP3     3386     TIP3     H2       HT       0.417000       1.00800           0
     28875 TIP3     3387     TIP3     OH2      OT      -0.834000       15.9994           0
     28876 TIP3     3387     TIP3     H1       HT       0.417000       1.00800           0
     28877 TIP3     3387     TIP3     H2       HT       0.417000       1.00800           0
     28878 TIP3     3388     TIP3     OH2      OT      -0.834000       15.9994           0
     28879 TIP3     3388     TIP3     H1       HT       0.417000       1.00800           0
     28880 TIP3     3388     TIP3     H2       HT       0.417000       1.00800           0
     28881 TIP3     3389     TIP3     OH2      OT      -0.834000       15.9994           0
     28882 TIP3     3389     TIP3     H1       HT       0.417000       1.00800           0
     28883 TIP3     3389     TIP3     H2       HT       0.417000       1.00800           0
     28884 TIP3     3390     TIP3     OH2      OT      -0.834000       15.9994           0
     28885 TIP3     3390     TIP3     H1       HT       0.417000       1.00800           0
     28886 TIP3     3390     TIP3     H2       HT       0.417000       1.00800           0
     28887 TIP3     3391     TIP3     OH2      OT      -0.834000       15.9994           0
     28888 TIP3     3391     TIP3     H1       HT       0.417000       1.00800           0
     28889 TIP3     3391     TIP3     H2       HT       0.417000       1.00800           0
     28890 TIP3     3392     TIP3     OH2      OT      -0.834000       15.9994           0
     28891 TIP3     3392     TIP3     H1       HT       0.417000       1.00800           0
     28892 TIP3     3392     TIP3     H2       HT       0.417000       1.00800           0
     28893 TIP3     3393     TIP3     OH2      OT      -0.834000       15.9994           0
     28894 TIP3     3393     TIP3     H1       HT       0.417000       1.00800           0
     28895 TIP3     3393     TIP3     H2       HT       0.417000       1.00800           0
     28896 TIP3     3394     TIP3     OH2      OT      -0.834000       15.9994           0
     28897 TIP3     3394     TIP3     H1       HT       0.417000       1.00800           0
     28898 TIP3     3394     TIP3     H2       HT       0.417000       1.00800           0
     28899 TIP3     3395     TIP3     OH2      OT      -0.834000       15.9994           0
     28900 TIP3     3395     TIP3     H1       HT       0.417000       1.00800           0
     28901 TIP3     3395     TIP3     H2       HT       0.417000       1.00800           0
     28902 TIP3     3396     TIP3     OH2      OT      -0.834000       15.9994           0
     28903 TIP3     3396     TIP3     H1       HT       0.417000       1.00800           0
     28904 TIP3     3396     TIP3     H2       HT       0.417000       1.00800           0
     28905 TIP3     3397     TIP3     OH2      OT      -0.834000       15.9994           0
     28906 TIP3     3397     TIP3     H1       HT       0.417000       1.00800           0
     28907 TIP3     3397     TIP3     H2       HT       0.417000       1.00800           0
     28908 TIP3     3398     TIP3     OH2      OT      -0.834000       15.9994           0
     28909 TIP3     3398     TIP3     H1       HT       0.417000       1.00800           0
     28910 TIP3     3398     TIP3     H2       HT       0.417000       1.00800           0
     28911 TIP3     3399     TIP3     OH2      OT      -0.834000       15.9994           0
     28912 TIP3     3399     TIP3     H1       HT       0.417000       1.00800           0
     28913 TIP3     3399     TIP3     H2       HT       0.417000       1.00800           0
     28914 TIP3     3400     TIP3     OH2      OT      -0.834000       15.9994           0
     28915 TIP3     3400     TIP3     H1       HT       0.417000       1.00800           0
     28916 TIP3     3400     TIP3     H2       HT       0.417000       1.00800           0
     28917 TIP3     3401     TIP3     OH2      OT      -0.834000       15.9994           0
     28918 TIP3     3401     TIP3     H1       HT       0.417000       1.00800           0
     28919 TIP3     3401     TIP3     H2       HT       0.417000       1.00800           0
     28920 TIP3     3402     TIP3     OH2      OT      -0.834000       15.9994           0
     28921 TIP3     3402     TIP3     H1       HT       0.417000       1.00800           0
     28922 TIP3     3402     TIP3     H2       HT       0.417000       1.00800           0
     28923 TIP3     3403     TIP3     OH2      OT      -0.834000       15.9994           0
     28924 TIP3     3403     TIP3     H1       HT       0.417000       1.00800           0
     28925 TIP3     3403     TIP3     H2       HT       0.417000       1.00800           0
     28926 TIP3     3404     TIP3     OH2      OT      -0.834000       15.9994           0
     28927 TIP3     3404     TIP3     H1       HT       0.417000       1.00800           0
     28928 TIP3     3404     TIP3     H2       HT       0.417000       1.00800           0
     28929 TIP3     3405     TIP3     OH2      OT      -0.834000       15.9994           0
     28930 TIP3     3405     TIP3     H1       HT       0.417000       1.00800           0
     28931 TIP3     3405     TIP3     H2       HT       0.417000       1.00800           0
     28932 TIP3     3406     TIP3     OH2      OT      -0.834000       15.9994           0
     28933 TIP3     3406     TIP3     H1       HT       0.417000       1.00800           0
     28934 TIP3     3406     TIP3     H2       HT       0.417000       1.00800           0
     28935 TIP3     3407     TIP3     OH2      OT      -0.834000       15.9994           0
     28936 TIP3     3407     TIP3     H1       HT       0.417000       1.00800           0
     28937 TIP3     3407     TIP3     H2       HT       0.417000       1.00800           0
     28938 TIP3     3408     TIP3     OH2      OT      -0.834000       15.9994           0
     28939 TIP3     3408     TIP3     H1       HT       0.417000       1.00800           0
     28940 TIP3     3408     TIP3     H2       HT       0.417000       1.00800           0
     28941 TIP3     3409     TIP3     OH2      OT      -0.834000       15.9994           0
     28942 TIP3     3409     TIP3     H1       HT       0.417000       1.00800           0
     28943 TIP3     3409     TIP3     H2       HT       0.417000       1.00800           0
     28944 TIP3     3410     TIP3     OH2      OT      -0.834000       15.9994           0
     28945 TIP3     3410     TIP3     H1       HT       0.417000       1.00800           0
     28946 TIP3     3410     TIP3     H2       HT       0.417000       1.00800           0
     28947 TIP3     3411     TIP3     OH2      OT      -0.834000       15.9994           0
     28948 TIP3     3411     TIP3     H1       HT       0.417000       1.00800           0
     28949 TIP3     3411     TIP3     H2       HT       0.417000       1.00800           0
     28950 TIP3     3412     TIP3     OH2      OT      -0.834000       15.9994           0
     28951 TIP3     3412     TIP3     H1       HT       0.417000       1.00800           0
     28952 TIP3     3412     TIP3     H2       HT       0.417000       1.00800           0
     28953 TIP3     3413     TIP3     OH2      OT      -0.834000       15.9994           0
     28954 TIP3     3413     TIP3     H1       HT       0.417000       1.00800           0
     28955 TIP3     3413     TIP3     H2       HT       0.417000       1.00800           0
     28956 TIP3     3414     TIP3     OH2      OT      -0.834000       15.9994           0
     28957 TIP3     3414     TIP3     H1       HT       0.417000       1.00800           0
     28958 TIP3     3414     TIP3     H2       HT       0.417000       1.00800           0
     28959 TIP3     3415     TIP3     OH2      OT      -0.834000       15.9994           0
     28960 TIP3     3415     TIP3     H1       HT       0.417000       1.00800           0
     28961 TIP3     3415     TIP3     H2       HT       0.417000       1.00800           0
     28962 TIP3     3416     TIP3     OH2      OT      -0.834000       15.9994           0
     28963 TIP3     3416     TIP3     H1       HT       0.417000       1.00800           0
     28964 TIP3     3416     TIP3     H2       HT       0.417000       1.00800           0
     28965 TIP3     3417     TIP3     OH2      OT      -0.834000       15.9994           0
     28966 TIP3     3417     TIP3     H1       HT       0.417000       1.00800           0
     28967 TIP3     3417     TIP3     H2       HT       0.417000       1.00800           0
     28968 TIP3     3418     TIP3     OH2      OT      -0.834000       15.9994           0
     28969 TIP3     3418     TIP3     H1       HT       0.417000       1.00800           0
     28970 TIP3     3418     TIP3     H2       HT       0.417000       1.00800           0
     28971 TIP3     3419     TIP3     OH2      OT      -0.834000       15.9994           0
     28972 TIP3     3419     TIP3     H1       HT       0.417000       1.00800           0
     28973 TIP3     3419     TIP3     H2       HT       0.417000       1.00800           0
     28974 TIP3     3420     TIP3     OH2      OT      -0.834000       15.9994           0
     28975 TIP3     3420     TIP3     H1       HT       0.417000       1.00800           0
     28976 TIP3     3420     TIP3     H2       HT       0.417000       1.00800           0
     28977 TIP3     3421     TIP3     OH2      OT      -0.834000       15.9994           0
     28978 TIP3     3421     TIP3     H1       HT       0.417000       1.00800           0
     28979 TIP3     3421     TIP3     H2       HT       0.417000       1.00800           0
     28980 TIP3     3422     TIP3     OH2      OT      -0.834000       15.9994           0
     28981 TIP3     3422     TIP3     H1       HT       0.417000       1.00800           0
     28982 TIP3     3422     TIP3     H2       HT       0.417000       1.00800           0
     28983 TIP3     3423     TIP3     OH2      OT      -0.834000       15.9994           0
     28984 TIP3     3423     TIP3     H1       HT       0.417000       1.00800           0
     28985 TIP3     3423     TIP3     H2       HT       0.417000       1.00800           0
     28986 TIP3     3424     TIP3     OH2      OT      -0.834000       15.9994           0
     28987 TIP3     3424     TIP3     H1       HT       0.417000       1.00800           0
     28988 TIP3     3424     TIP3     H2       HT       0.417000       1.00800           0
     28989 TIP3     3425     TIP3     OH2      OT      -0.834000       15.9994           0
     28990 TIP3     3425     TIP3     H1       HT       0.417000       1.00800           0
     28991 TIP3     3425     TIP3     H2       HT       0.417000       1.00800           0
     28992 TIP3     3426     TIP3     OH2      OT      -0.834000       15.9994           0
     28993 TIP3     3426     TIP3     H1       HT       0.417000       1.00800           0
     28994 TIP3     3426     TIP3     H2       HT       0.417000       1.00800           0
     28995 TIP3     3427     TIP3     OH2      OT      -0.834000       15.9994           0
     28996 TIP3     3427     TIP3     H1       HT       0.417000       1.00800           0
     28997 TIP3     3427     TIP3     H2       HT       0.417000       1.00800           0
     28998 TIP3     3428     TIP3     OH2      OT      -0.834000       15.9994           0
     28999 TIP3     3428     TIP3     H1       HT       0.417000       1.00800           0
     29000 TIP3     3428     TIP3     H2       HT       0.417000       1.00800           0
     29001 TIP3     3429     TIP3     OH2      OT      -0.834000       15.9994           0
     29002 TIP3     3429     TIP3     H1       HT       0.417000       1.00800           0
     29003 TIP3     3429     TIP3     H2       HT       0.417000       1.00800           0
     29004 TIP3     3430     TIP3     OH2      OT      -0.834000       15.9994           0
     29005 TIP3     3430     TIP3     H1       HT       0.417000       1.00800           0
     29006 TIP3     3430     TIP3     H2       HT       0.417000       1.00800           0
     29007 TIP3     3431     TIP3     OH2      OT      -0.834000       15.9994           0
     29008 TIP3     3431     TIP3     H1       HT       0.417000       1.00800           0
     29009 TIP3     3431     TIP3     H2       HT       0.417000       1.00800           0
     29010 TIP3     3432     TIP3     OH2      OT      -0.834000       15.9994           0
     29011 TIP3     3432     TIP3     H1       HT       0.417000       1.00800           0
     29012 TIP3     3432     TIP3     H2       HT       0.417000       1.00800           0
     29013 TIP3     3433     TIP3     OH2      OT      -0.834000       15.9994           0
     29014 TIP3     3433     TIP3     H1       HT       0.417000       1.00800           0
     29015 TIP3     3433     TIP3     H2       HT       0.417000       1.00800           0
     29016 TIP3     3434     TIP3     OH2      OT      -0.834000       15.9994           0
     29017 TIP3     3434     TIP3     H1       HT       0.417000       1.00800           0
     29018 TIP3     3434     TIP3     H2       HT       0.417000       1.00800           0
     29019 TIP3     3435     TIP3     OH2      OT      -0.834000       15.9994           0
     29020 TIP3     3435     TIP3     H1       HT       0.417000       1.00800           0
     29021 TIP3     3435     TIP3     H2       HT       0.417000       1.00800           0
     29022 TIP3     3436     TIP3     OH2      OT      -0.834000       15.9994           0
     29023 TIP3     3436     TIP3     H1       HT       0.417000       1.00800           0
     29024 TIP3     3436     TIP3     H2       HT       0.417000       1.00800           0
     29025 TIP3     3437     TIP3     OH2      OT      -0.834000       15.9994           0
     29026 TIP3     3437     TIP3     H1       HT       0.417000       1.00800           0
     29027 TIP3     3437     TIP3     H2       HT       0.417000       1.00800           0
     29028 TIP3     3438     TIP3     OH2      OT      -0.834000       15.9994           0
     29029 TIP3     3438     TIP3     H1       HT       0.417000       1.00800           0
     29030 TIP3     3438     TIP3     H2       HT       0.417000       1.00800           0
     29031 TIP3     3439     TIP3     OH2      OT      -0.834000       15.9994           0
     29032 TIP3     3439     TIP3     H1       HT       0.417000       1.00800           0
     29033 TIP3     3439     TIP3     H2       HT       0.417000       1.00800           0
     29034 TIP3     3440     TIP3     OH2      OT      -0.834000       15.9994           0
     29035 TIP3     3440     TIP3     H1       HT       0.417000       1.00800           0
     29036 TIP3     3440     TIP3     H2       HT       0.417000       1.00800           0
     29037 TIP3     3441     TIP3     OH2      OT      -0.834000       15.9994           0
     29038 TIP3     3441     TIP3     H1       HT       0.417000       1.00800           0
     29039 TIP3     3441     TIP3     H2       HT       0.417000       1.00800           0
     29040 TIP3     3442     TIP3     OH2      OT      -0.834000       15.9994           0
     29041 TIP3     3442     TIP3     H1       HT       0.417000       1.00800           0
     29042 TIP3     3442     TIP3     H2       HT       0.417000       1.00800           0
     29043 TIP3     3443     TIP3     OH2      OT      -0.834000       15.9994           0
     29044 TIP3     3443     TIP3     H1       HT       0.417000       1.00800           0
     29045 TIP3     3443     TIP3     H2       HT       0.417000       1.00800           0
     29046 TIP3     3444     TIP3     OH2      OT      -0.834000       15.9994           0
     29047 TIP3     3444     TIP3     H1       HT       0.417000       1.00800           0
     29048 TIP3     3444     TIP3     H2       HT       0.417000       1.00800           0
     29049 TIP3     3445     TIP3     OH2      OT      -0.834000       15.9994           0
     29050 TIP3     3445     TIP3     H1       HT       0.417000       1.00800           0
     29051 TIP3     3445     TIP3     H2       HT       0.417000       1.00800           0
     29052 TIP3     3446     TIP3     OH2      OT      -0.834000       15.9994           0
     29053 TIP3     3446     TIP3     H1       HT       0.417000       1.00800           0
     29054 TIP3     3446     TIP3     H2       HT       0.417000       1.00800           0
     29055 TIP3     3447     TIP3     OH2      OT      -0.834000       15.9994           0
     29056 TIP3     3447     TIP3     H1       HT       0.417000       1.00800           0
     29057 TIP3     3447     TIP3     H2       HT       0.417000       1.00800           0
     29058 TIP3     3448     TIP3     OH2      OT      -0.834000       15.9994           0
     29059 TIP3     3448     TIP3     H1       HT       0.417000       1.00800           0
     29060 TIP3     3448     TIP3     H2       HT       0.417000       1.00800           0
     29061 TIP3     3449     TIP3     OH2      OT      -0.834000       15.9994           0
     29062 TIP3     3449     TIP3     H1       HT       0.417000       1.00800           0
     29063 TIP3     3449     TIP3     H2       HT       0.417000       1.00800           0
     29064 TIP3     3450     TIP3     OH2      OT      -0.834000       15.9994           0
     29065 TIP3     3450     TIP3     H1       HT       0.417000       1.00800           0
     29066 TIP3     3450     TIP3     H2       HT       0.417000       1.00800           0
     29067 TIP3     3451     TIP3     OH2      OT      -0.834000       15.9994           0
     29068 TIP3     3451     TIP3     H1       HT       0.417000       1.00800           0
     29069 TIP3     3451     TIP3     H2       HT       0.417000       1.00800           0
     29070 TIP3     3452     TIP3     OH2      OT      -0.834000       15.9994           0
     29071 TIP3     3452     TIP3     H1       HT       0.417000       1.00800           0
     29072 TIP3     3452     TIP3     H2       HT       0.417000       1.00800           0
     29073 TIP3     3453     TIP3     OH2      OT      -0.834000       15.9994           0
     29074 TIP3     3453     TIP3     H1       HT       0.417000       1.00800           0
     29075 TIP3     3453     TIP3     H2       HT       0.417000       1.00800           0
     29076 TIP3     3454     TIP3     OH2      OT      -0.834000       15.9994           0
     29077 TIP3     3454     TIP3     H1       HT       0.417000       1.00800           0
     29078 TIP3     3454     TIP3     H2       HT       0.417000       1.00800           0
     29079 TIP3     3455     TIP3     OH2      OT      -0.834000       15.9994           0
     29080 TIP3     3455     TIP3     H1       HT       0.417000       1.00800           0
     29081 TIP3     3455     TIP3     H2       HT       0.417000       1.00800           0
     29082 TIP3     3456     TIP3     OH2      OT      -0.834000       15.9994           0
     29083 TIP3     3456     TIP3     H1       HT       0.417000       1.00800           0
     29084 TIP3     3456     TIP3     H2       HT       0.417000       1.00800           0
     29085 TIP3     3457     TIP3     OH2      OT      -0.834000       15.9994           0
     29086 TIP3     3457     TIP3     H1       HT       0.417000       1.00800           0
     29087 TIP3     3457     TIP3     H2       HT       0.417000       1.00800           0
     29088 TIP3     3458     TIP3     OH2      OT      -0.834000       15.9994           0
     29089 TIP3     3458     TIP3     H1       HT       0.417000       1.00800           0
     29090 TIP3     3458     TIP3     H2       HT       0.417000       1.00800           0
     29091 TIP3     3459     TIP3     OH2      OT      -0.834000       15.9994           0
     29092 TIP3     3459     TIP3     H1       HT       0.417000       1.00800           0
     29093 TIP3     3459     TIP3     H2       HT       0.417000       1.00800           0
     29094 TIP3     3460     TIP3     OH2      OT      -0.834000       15.9994           0
     29095 TIP3     3460     TIP3     H1       HT       0.417000       1.00800           0
     29096 TIP3     3460     TIP3     H2       HT       0.417000       1.00800           0
     29097 TIP3     3461     TIP3     OH2      OT      -0.834000       15.9994           0
     29098 TIP3     3461     TIP3     H1       HT       0.417000       1.00800           0
     29099 TIP3     3461     TIP3     H2       HT       0.417000       1.00800           0
     29100 TIP3     3462     TIP3     OH2      OT      -0.834000       15.9994           0
     29101 TIP3     3462     TIP3     H1       HT       0.417000       1.00800           0
     29102 TIP3     3462     TIP3     H2       HT       0.417000       1.00800           0
     29103 TIP3     3463     TIP3     OH2      OT      -0.834000       15.9994           0
     29104 TIP3     3463     TIP3     H1       HT       0.417000       1.00800           0
     29105 TIP3     3463     TIP3     H2       HT       0.417000       1.00800           0
     29106 TIP3     3464     TIP3     OH2      OT      -0.834000       15.9994           0
     29107 TIP3     3464     TIP3     H1       HT       0.417000       1.00800           0
     29108 TIP3     3464     TIP3     H2       HT       0.417000       1.00800           0
     29109 TIP3     3465     TIP3     OH2      OT      -0.834000       15.9994           0
     29110 TIP3     3465     TIP3     H1       HT       0.417000       1.00800           0
     29111 TIP3     3465     TIP3     H2       HT       0.417000       1.00800           0
     29112 TIP3     3466     TIP3     OH2      OT      -0.834000       15.9994           0
     29113 TIP3     3466     TIP3     H1       HT       0.417000       1.00800           0
     29114 TIP3     3466     TIP3     H2       HT       0.417000       1.00800           0
     29115 TIP3     3467     TIP3     OH2      OT      -0.834000       15.9994           0
     29116 TIP3     3467     TIP3     H1       HT       0.417000       1.00800           0
     29117 TIP3     3467     TIP3     H2       HT       0.417000       1.00800           0
     29118 TIP3     3468     TIP3     OH2      OT      -0.834000       15.9994           0
     29119 TIP3     3468     TIP3     H1       HT       0.417000       1.00800           0
     29120 TIP3     3468     TIP3     H2       HT       0.417000       1.00800           0
     29121 TIP3     3469     TIP3     OH2      OT      -0.834000       15.9994           0
     29122 TIP3     3469     TIP3     H1       HT       0.417000       1.00800           0
     29123 TIP3     3469     TIP3     H2       HT       0.417000       1.00800           0
     29124 TIP3     3470     TIP3     OH2      OT      -0.834000       15.9994           0
     29125 TIP3     3470     TIP3     H1       HT       0.417000       1.00800           0
     29126 TIP3     3470     TIP3     H2       HT       0.417000       1.00800           0
     29127 TIP3     3471     TIP3     OH2      OT      -0.834000       15.9994           0
     29128 TIP3     3471     TIP3     H1       HT       0.417000       1.00800           0
     29129 TIP3     3471     TIP3     H2       HT       0.417000       1.00800           0
     29130 TIP3     3472     TIP3     OH2      OT      -0.834000       15.9994           0
     29131 TIP3     3472     TIP3     H1       HT       0.417000       1.00800           0
     29132 TIP3     3472     TIP3     H2       HT       0.417000       1.00800           0
     29133 TIP3     3473     TIP3     OH2      OT      -0.834000       15.9994           0
     29134 TIP3     3473     TIP3     H1       HT       0.417000       1.00800           0
     29135 TIP3     3473     TIP3     H2       HT       0.417000       1.00800           0
     29136 TIP3     3474     TIP3     OH2      OT      -0.834000       15.9994           0
     29137 TIP3     3474     TIP3     H1       HT       0.417000       1.00800           0
     29138 TIP3     3474     TIP3     H2       HT       0.417000       1.00800           0
     29139 TIP3     3475     TIP3     OH2      OT      -0.834000       15.9994           0
     29140 TIP3     3475     TIP3     H1       HT       0.417000       1.00800           0
     29141 TIP3     3475     TIP3     H2       HT       0.417000       1.00800           0
     29142 TIP3     3476     TIP3     OH2      OT      -0.834000       15.9994           0
     29143 TIP3     3476     TIP3     H1       HT       0.417000       1.00800           0
     29144 TIP3     3476     TIP3     H2       HT       0.417000       1.00800           0
     29145 TIP3     3477     TIP3     OH2      OT      -0.834000       15.9994           0
     29146 TIP3     3477     TIP3     H1       HT       0.417000       1.00800           0
     29147 TIP3     3477     TIP3     H2       HT       0.417000       1.00800           0
     29148 TIP3     3478     TIP3     OH2      OT      -0.834000       15.9994           0
     29149 TIP3     3478     TIP3     H1       HT       0.417000       1.00800           0
     29150 TIP3     3478     TIP3     H2       HT       0.417000       1.00800           0
     29151 TIP3     3479     TIP3     OH2      OT      -0.834000       15.9994           0
     29152 TIP3     3479     TIP3     H1       HT       0.417000       1.00800           0
     29153 TIP3     3479     TIP3     H2       HT       0.417000       1.00800           0
     29154 TIP3     3480     TIP3     OH2      OT      -0.834000       15.9994           0
     29155 TIP3     3480     TIP3     H1       HT       0.417000       1.00800           0
     29156 TIP3     3480     TIP3     H2       HT       0.417000       1.00800           0
     29157 TIP3     3481     TIP3     OH2      OT      -0.834000       15.9994           0
     29158 TIP3     3481     TIP3     H1       HT       0.417000       1.00800           0
     29159 TIP3     3481     TIP3     H2       HT       0.417000       1.00800           0
     29160 TIP3     3482     TIP3     OH2      OT      -0.834000       15.9994           0
     29161 TIP3     3482     TIP3     H1       HT       0.417000       1.00800           0
     29162 TIP3     3482     TIP3     H2       HT       0.417000       1.00800           0
     29163 TIP3     3483     TIP3     OH2      OT      -0.834000       15.9994           0
     29164 TIP3     3483     TIP3     H1       HT       0.417000       1.00800           0
     29165 TIP3     3483     TIP3     H2       HT       0.417000       1.00800           0
     29166 TIP3     3484     TIP3     OH2      OT      -0.834000       15.9994           0
     29167 TIP3     3484     TIP3     H1       HT       0.417000       1.00800           0
     29168 TIP3     3484     TIP3     H2       HT       0.417000       1.00800           0
     29169 TIP3     3485     TIP3     OH2      OT      -0.834000       15.9994           0
     29170 TIP3     3485     TIP3     H1       HT       0.417000       1.00800           0
     29171 TIP3     3485     TIP3     H2       HT       0.417000       1.00800           0
     29172 TIP3     3486     TIP3     OH2      OT      -0.834000       15.9994           0
     29173 TIP3     3486     TIP3     H1       HT       0.417000       1.00800           0
     29174 TIP3     3486     TIP3     H2       HT       0.417000       1.00800           0
     29175 TIP3     3487     TIP3     OH2      OT      -0.834000       15.9994           0
     29176 TIP3     3487     TIP3     H1       HT       0.417000       1.00800           0
     29177 TIP3     3487     TIP3     H2       HT       0.417000       1.00800           0
     29178 TIP3     3488     TIP3     OH2      OT      -0.834000       15.9994           0
     29179 TIP3     3488     TIP3     H1       HT       0.417000       1.00800           0
     29180 TIP3     3488     TIP3     H2       HT       0.417000       1.00800           0
     29181 TIP3     3489     TIP3     OH2      OT      -0.834000       15.9994           0
     29182 TIP3     3489     TIP3     H1       HT       0.417000       1.00800           0
     29183 TIP3     3489     TIP3     H2       HT       0.417000       1.00800           0
     29184 TIP3     3490     TIP3     OH2      OT      -0.834000       15.9994           0
     29185 TIP3     3490     TIP3     H1       HT       0.417000       1.00800           0
     29186 TIP3     3490     TIP3     H2       HT       0.417000       1.00800           0
     29187 TIP3     3491     TIP3     OH2      OT      -0.834000       15.9994           0
     29188 TIP3     3491     TIP3     H1       HT       0.417000       1.00800           0
     29189 TIP3     3491     TIP3     H2       HT       0.417000       1.00800           0
     29190 TIP3     3492     TIP3     OH2      OT      -0.834000       15.9994           0
     29191 TIP3     3492     TIP3     H1       HT       0.417000       1.00800           0
     29192 TIP3     3492     TIP3     H2       HT       0.417000       1.00800           0
     29193 TIP3     3493     TIP3     OH2      OT      -0.834000       15.9994           0
     29194 TIP3     3493     TIP3     H1       HT       0.417000       1.00800           0
     29195 TIP3     3493     TIP3     H2       HT       0.417000       1.00800           0
     29196 TIP3     3494     TIP3     OH2      OT      -0.834000       15.9994           0
     29197 TIP3     3494     TIP3     H1       HT       0.417000       1.00800           0
     29198 TIP3     3494     TIP3     H2       HT       0.417000       1.00800           0
     29199 TIP3     3495     TIP3     OH2      OT      -0.834000       15.9994           0
     29200 TIP3     3495     TIP3     H1       HT       0.417000       1.00800           0
     29201 TIP3     3495     TIP3     H2       HT       0.417000       1.00800           0
     29202 TIP3     3496     TIP3     OH2      OT      -0.834000       15.9994           0
     29203 TIP3     3496     TIP3     H1       HT       0.417000       1.00800           0
     29204 TIP3     3496     TIP3     H2       HT       0.417000       1.00800           0
     29205 TIP3     3497     TIP3     OH2      OT      -0.834000       15.9994           0
     29206 TIP3     3497     TIP3     H1       HT       0.417000       1.00800           0
     29207 TIP3     3497     TIP3     H2       HT       0.417000       1.00800           0
     29208 TIP3     3498     TIP3     OH2      OT      -0.834000       15.9994           0
     29209 TIP3     3498     TIP3     H1       HT       0.417000       1.00800           0
     29210 TIP3     3498     TIP3     H2       HT       0.417000       1.00800           0
     29211 TIP3     3499     TIP3     OH2      OT      -0.834000       15.9994           0
     29212 TIP3     3499     TIP3     H1       HT       0.417000       1.00800           0
     29213 TIP3     3499     TIP3     H2       HT       0.417000       1.00800           0
     29214 TIP3     3500     TIP3     OH2      OT      -0.834000       15.9994           0
     29215 TIP3     3500     TIP3     H1       HT       0.417000       1.00800           0
     29216 TIP3     3500     TIP3     H2       HT       0.417000       1.00800           0
     29217 TIP3     3501     TIP3     OH2      OT      -0.834000       15.9994           0
     29218 TIP3     3501     TIP3     H1       HT       0.417000       1.00800           0
     29219 TIP3     3501     TIP3     H2       HT       0.417000       1.00800           0
     29220 TIP3     3502     TIP3     OH2      OT      -0.834000       15.9994           0
     29221 TIP3     3502     TIP3     H1       HT       0.417000       1.00800           0
     29222 TIP3     3502     TIP3     H2       HT       0.417000       1.00800           0
     29223 TIP3     3503     TIP3     OH2      OT      -0.834000       15.9994           0
     29224 TIP3     3503     TIP3     H1       HT       0.417000       1.00800           0
     29225 TIP3     3503     TIP3     H2       HT       0.417000       1.00800           0
     29226 TIP3     3504     TIP3     OH2      OT      -0.834000       15.9994           0
     29227 TIP3     3504     TIP3     H1       HT       0.417000       1.00800           0
     29228 TIP3     3504     TIP3     H2       HT       0.417000       1.00800           0
     29229 TIP3     3505     TIP3     OH2      OT      -0.834000       15.9994           0
     29230 TIP3     3505     TIP3     H1       HT       0.417000       1.00800           0
     29231 TIP3     3505     TIP3     H2       HT       0.417000       1.00800           0
     29232 TIP3     3506     TIP3     OH2      OT      -0.834000       15.9994           0
     29233 TIP3     3506     TIP3     H1       HT       0.417000       1.00800           0
     29234 TIP3     3506     TIP3     H2       HT       0.417000       1.00800           0
     29235 TIP3     3507     TIP3     OH2      OT      -0.834000       15.9994           0
     29236 TIP3     3507     TIP3     H1       HT       0.417000       1.00800           0
     29237 TIP3     3507     TIP3     H2       HT       0.417000       1.00800           0
     29238 TIP3     3508     TIP3     OH2      OT      -0.834000       15.9994           0
     29239 TIP3     3508     TIP3     H1       HT       0.417000       1.00800           0
     29240 TIP3     3508     TIP3     H2       HT       0.417000       1.00800           0
     29241 TIP3     3509     TIP3     OH2      OT      -0.834000       15.9994           0
     29242 TIP3     3509     TIP3     H1       HT       0.417000       1.00800           0
     29243 TIP3     3509     TIP3     H2       HT       0.417000       1.00800           0
     29244 TIP3     3510     TIP3     OH2      OT      -0.834000       15.9994           0
     29245 TIP3     3510     TIP3     H1       HT       0.417000       1.00800           0
     29246 TIP3     3510     TIP3     H2       HT       0.417000       1.00800           0
     29247 TIP3     3511     TIP3     OH2      OT      -0.834000       15.9994           0
     29248 TIP3     3511     TIP3     H1       HT       0.417000       1.00800           0
     29249 TIP3     3511     TIP3     H2       HT       0.417000       1.00800           0
     29250 TIP3     3512     TIP3     OH2      OT      -0.834000       15.9994           0
     29251 TIP3     3512     TIP3     H1       HT       0.417000       1.00800           0
     29252 TIP3     3512     TIP3     H2       HT       0.417000       1.00800           0
     29253 TIP3     3513     TIP3     OH2      OT      -0.834000       15.9994           0
     29254 TIP3     3513     TIP3     H1       HT       0.417000       1.00800           0
     29255 TIP3     3513     TIP3     H2       HT       0.417000       1.00800           0
     29256 TIP3     3514     TIP3     OH2      OT      -0.834000       15.9994           0
     29257 TIP3     3514     TIP3     H1       HT       0.417000       1.00800           0
     29258 TIP3     3514     TIP3     H2       HT       0.417000       1.00800           0
     29259 TIP3     3515     TIP3     OH2      OT      -0.834000       15.9994           0
     29260 TIP3     3515     TIP3     H1       HT       0.417000       1.00800           0
     29261 TIP3     3515     TIP3     H2       HT       0.417000       1.00800           0
     29262 TIP3     3516     TIP3     OH2      OT      -0.834000       15.9994           0
     29263 TIP3     3516     TIP3     H1       HT       0.417000       1.00800           0
     29264 TIP3     3516     TIP3     H2       HT       0.417000       1.00800           0
     29265 TIP3     3517     TIP3     OH2      OT      -0.834000       15.9994           0
     29266 TIP3     3517     TIP3     H1       HT       0.417000       1.00800           0
     29267 TIP3     3517     TIP3     H2       HT       0.417000       1.00800           0
     29268 TIP3     3518     TIP3     OH2      OT      -0.834000       15.9994           0
     29269 TIP3     3518     TIP3     H1       HT       0.417000       1.00800           0
     29270 TIP3     3518     TIP3     H2       HT       0.417000       1.00800           0
     29271 TIP3     3519     TIP3     OH2      OT      -0.834000       15.9994           0
     29272 TIP3     3519     TIP3     H1       HT       0.417000       1.00800           0
     29273 TIP3     3519     TIP3     H2       HT       0.417000       1.00800           0
     29274 TIP3     3520     TIP3     OH2      OT      -0.834000       15.9994           0
     29275 TIP3     3520     TIP3     H1       HT       0.417000       1.00800           0
     29276 TIP3     3520     TIP3     H2       HT       0.417000       1.00800           0
     29277 TIP3     3521     TIP3     OH2      OT      -0.834000       15.9994           0
     29278 TIP3     3521     TIP3     H1       HT       0.417000       1.00800           0
     29279 TIP3     3521     TIP3     H2       HT       0.417000       1.00800           0
     29280 TIP3     3522     TIP3     OH2      OT      -0.834000       15.9994           0
     29281 TIP3     3522     TIP3     H1       HT       0.417000       1.00800           0
     29282 TIP3     3522     TIP3     H2       HT       0.417000       1.00800           0
     29283 TIP3     3523     TIP3     OH2      OT      -0.834000       15.9994           0
     29284 TIP3     3523     TIP3     H1       HT       0.417000       1.00800           0
     29285 TIP3     3523     TIP3     H2       HT       0.417000       1.00800           0
     29286 TIP3     3524     TIP3     OH2      OT      -0.834000       15.9994           0
     29287 TIP3     3524     TIP3     H1       HT       0.417000       1.00800           0
     29288 TIP3     3524     TIP3     H2       HT       0.417000       1.00800           0
     29289 TIP3     3525     TIP3     OH2      OT      -0.834000       15.9994           0
     29290 TIP3     3525     TIP3     H1       HT       0.417000       1.00800           0
     29291 TIP3     3525     TIP3     H2       HT       0.417000       1.00800           0
     29292 TIP3     3526     TIP3     OH2      OT      -0.834000       15.9994           0
     29293 TIP3     3526     TIP3     H1       HT       0.417000       1.00800           0
     29294 TIP3     3526     TIP3     H2       HT       0.417000       1.00800           0
     29295 TIP3     3527     TIP3     OH2      OT      -0.834000       15.9994           0
     29296 TIP3     3527     TIP3     H1       HT       0.417000       1.00800           0
     29297 TIP3     3527     TIP3     H2       HT       0.417000       1.00800           0
     29298 TIP3     3528     TIP3     OH2      OT      -0.834000       15.9994           0
     29299 TIP3     3528     TIP3     H1       HT       0.417000       1.00800           0
     29300 TIP3     3528     TIP3     H2       HT       0.417000       1.00800           0
     29301 TIP3     3529     TIP3     OH2      OT      -0.834000       15.9994           0
     29302 TIP3     3529     TIP3     H1       HT       0.417000       1.00800           0
     29303 TIP3     3529     TIP3     H2       HT       0.417000       1.00800           0
     29304 TIP3     3530     TIP3     OH2      OT      -0.834000       15.9994           0
     29305 TIP3     3530     TIP3     H1       HT       0.417000       1.00800           0
     29306 TIP3     3530     TIP3     H2       HT       0.417000       1.00800           0
     29307 TIP3     3531     TIP3     OH2      OT      -0.834000       15.9994           0
     29308 TIP3     3531     TIP3     H1       HT       0.417000       1.00800           0
     29309 TIP3     3531     TIP3     H2       HT       0.417000       1.00800           0
     29310 TIP3     3532     TIP3     OH2      OT      -0.834000       15.9994           0
     29311 TIP3     3532     TIP3     H1       HT       0.417000       1.00800           0
     29312 TIP3     3532     TIP3     H2       HT       0.417000       1.00800           0
     29313 TIP3     3533     TIP3     OH2      OT      -0.834000       15.9994           0
     29314 TIP3     3533     TIP3     H1       HT       0.417000       1.00800           0
     29315 TIP3     3533     TIP3     H2       HT       0.417000       1.00800           0
     29316 TIP3     3534     TIP3     OH2      OT      -0.834000       15.9994           0
     29317 TIP3     3534     TIP3     H1       HT       0.417000       1.00800           0
     29318 TIP3     3534     TIP3     H2       HT       0.417000       1.00800           0
     29319 TIP3     3535     TIP3     OH2      OT      -0.834000       15.9994           0
     29320 TIP3     3535     TIP3     H1       HT       0.417000       1.00800           0
     29321 TIP3     3535     TIP3     H2       HT       0.417000       1.00800           0
     29322 TIP3     3536     TIP3     OH2      OT      -0.834000       15.9994           0
     29323 TIP3     3536     TIP3     H1       HT       0.417000       1.00800           0
     29324 TIP3     3536     TIP3     H2       HT       0.417000       1.00800           0
     29325 TIP3     3537     TIP3     OH2      OT      -0.834000       15.9994           0
     29326 TIP3     3537     TIP3     H1       HT       0.417000       1.00800           0
     29327 TIP3     3537     TIP3     H2       HT       0.417000       1.00800           0
     29328 TIP3     3538     TIP3     OH2      OT      -0.834000       15.9994           0
     29329 TIP3     3538     TIP3     H1       HT       0.417000       1.00800           0
     29330 TIP3     3538     TIP3     H2       HT       0.417000       1.00800           0
     29331 TIP3     3539     TIP3     OH2      OT      -0.834000       15.9994           0
     29332 TIP3     3539     TIP3     H1       HT       0.417000       1.00800           0
     29333 TIP3     3539     TIP3     H2       HT       0.417000       1.00800           0
     29334 TIP3     3540     TIP3     OH2      OT      -0.834000       15.9994           0
     29335 TIP3     3540     TIP3     H1       HT       0.417000       1.00800           0
     29336 TIP3     3540     TIP3     H2       HT       0.417000       1.00800           0
     29337 TIP3     3541     TIP3     OH2      OT      -0.834000       15.9994           0
     29338 TIP3     3541     TIP3     H1       HT       0.417000       1.00800           0
     29339 TIP3     3541     TIP3     H2       HT       0.417000       1.00800           0
     29340 TIP3     3542     TIP3     OH2      OT      -0.834000       15.9994           0
     29341 TIP3     3542     TIP3     H1       HT       0.417000       1.00800           0
     29342 TIP3     3542     TIP3     H2       HT       0.417000       1.00800           0
     29343 TIP3     3543     TIP3     OH2      OT      -0.834000       15.9994           0
     29344 TIP3     3543     TIP3     H1       HT       0.417000       1.00800           0
     29345 TIP3     3543     TIP3     H2       HT       0.417000       1.00800           0
     29346 TIP3     3544     TIP3     OH2      OT      -0.834000       15.9994           0
     29347 TIP3     3544     TIP3     H1       HT       0.417000       1.00800           0
     29348 TIP3     3544     TIP3     H2       HT       0.417000       1.00800           0
     29349 TIP3     3545     TIP3     OH2      OT      -0.834000       15.9994           0
     29350 TIP3     3545     TIP3     H1       HT       0.417000       1.00800           0
     29351 TIP3     3545     TIP3     H2       HT       0.417000       1.00800           0
     29352 TIP3     3546     TIP3     OH2      OT      -0.834000       15.9994           0
     29353 TIP3     3546     TIP3     H1       HT       0.417000       1.00800           0
     29354 TIP3     3546     TIP3     H2       HT       0.417000       1.00800           0
     29355 TIP3     3547     TIP3     OH2      OT      -0.834000       15.9994           0
     29356 TIP3     3547     TIP3     H1       HT       0.417000       1.00800           0
     29357 TIP3     3547     TIP3     H2       HT       0.417000       1.00800           0
     29358 TIP3     3548     TIP3     OH2      OT      -0.834000       15.9994           0
     29359 TIP3     3548     TIP3     H1       HT       0.417000       1.00800           0
     29360 TIP3     3548     TIP3     H2       HT       0.417000       1.00800           0
     29361 TIP3     3549     TIP3     OH2      OT      -0.834000       15.9994           0
     29362 TIP3     3549     TIP3     H1       HT       0.417000       1.00800           0
     29363 TIP3     3549     TIP3     H2       HT       0.417000       1.00800           0
     29364 TIP3     3550     TIP3     OH2      OT      -0.834000       15.9994           0
     29365 TIP3     3550     TIP3     H1       HT       0.417000       1.00800           0
     29366 TIP3     3550     TIP3     H2       HT       0.417000       1.00800           0
     29367 TIP3     3551     TIP3     OH2      OT      -0.834000       15.9994           0
     29368 TIP3     3551     TIP3     H1       HT       0.417000       1.00800           0
     29369 TIP3     3551     TIP3     H2       HT       0.417000       1.00800           0
     29370 TIP3     3552     TIP3     OH2      OT      -0.834000       15.9994           0
     29371 TIP3     3552     TIP3     H1       HT       0.417000       1.00800           0
     29372 TIP3     3552     TIP3     H2       HT       0.417000       1.00800           0
     29373 TIP3     3553     TIP3     OH2      OT      -0.834000       15.9994           0
     29374 TIP3     3553     TIP3     H1       HT       0.417000       1.00800           0
     29375 TIP3     3553     TIP3     H2       HT       0.417000       1.00800           0
     29376 TIP3     3554     TIP3     OH2      OT      -0.834000       15.9994           0
     29377 TIP3     3554     TIP3     H1       HT       0.417000       1.00800           0
     29378 TIP3     3554     TIP3     H2       HT       0.417000       1.00800           0
     29379 TIP3     3555     TIP3     OH2      OT      -0.834000       15.9994           0
     29380 TIP3     3555     TIP3     H1       HT       0.417000       1.00800           0
     29381 TIP3     3555     TIP3     H2       HT       0.417000       1.00800           0
     29382 TIP3     3556     TIP3     OH2      OT      -0.834000       15.9994           0
     29383 TIP3     3556     TIP3     H1       HT       0.417000       1.00800           0
     29384 TIP3     3556     TIP3     H2       HT       0.417000       1.00800           0
     29385 TIP3     3557     TIP3     OH2      OT      -0.834000       15.9994           0
     29386 TIP3     3557     TIP3     H1       HT       0.417000       1.00800           0
     29387 TIP3     3557     TIP3     H2       HT       0.417000       1.00800           0
     29388 TIP3     3558     TIP3     OH2      OT      -0.834000       15.9994           0
     29389 TIP3     3558     TIP3     H1       HT       0.417000       1.00800           0
     29390 TIP3     3558     TIP3     H2       HT       0.417000       1.00800           0
     29391 TIP3     3559     TIP3     OH2      OT      -0.834000       15.9994           0
     29392 TIP3     3559     TIP3     H1       HT       0.417000       1.00800           0
     29393 TIP3     3559     TIP3     H2       HT       0.417000       1.00800           0
     29394 TIP3     3560     TIP3     OH2      OT      -0.834000       15.9994           0
     29395 TIP3     3560     TIP3     H1       HT       0.417000       1.00800           0
     29396 TIP3     3560     TIP3     H2       HT       0.417000       1.00800           0
     29397 TIP3     3561     TIP3     OH2      OT      -0.834000       15.9994           0
     29398 TIP3     3561     TIP3     H1       HT       0.417000       1.00800           0
     29399 TIP3     3561     TIP3     H2       HT       0.417000       1.00800           0
     29400 TIP3     3562     TIP3     OH2      OT      -0.834000       15.9994           0
     29401 TIP3     3562     TIP3     H1       HT       0.417000       1.00800           0
     29402 TIP3     3562     TIP3     H2       HT       0.417000       1.00800           0
     29403 TIP3     3563     TIP3     OH2      OT      -0.834000       15.9994           0
     29404 TIP3     3563     TIP3     H1       HT       0.417000       1.00800           0
     29405 TIP3     3563     TIP3     H2       HT       0.417000       1.00800           0
     29406 TIP3     3564     TIP3     OH2      OT      -0.834000       15.9994           0
     29407 TIP3     3564     TIP3     H1       HT       0.417000       1.00800           0
     29408 TIP3     3564     TIP3     H2       HT       0.417000       1.00800           0
     29409 TIP3     3565     TIP3     OH2      OT      -0.834000       15.9994           0
     29410 TIP3     3565     TIP3     H1       HT       0.417000       1.00800           0
     29411 TIP3     3565     TIP3     H2       HT       0.417000       1.00800           0
     29412 TIP3     3566     TIP3     OH2      OT      -0.834000       15.9994           0
     29413 TIP3     3566     TIP3     H1       HT       0.417000       1.00800           0
     29414 TIP3     3566     TIP3     H2       HT       0.417000       1.00800           0
     29415 TIP3     3567     TIP3     OH2      OT      -0.834000       15.9994           0
     29416 TIP3     3567     TIP3     H1       HT       0.417000       1.00800           0
     29417 TIP3     3567     TIP3     H2       HT       0.417000       1.00800           0
     29418 TIP3     3568     TIP3     OH2      OT      -0.834000       15.9994           0
     29419 TIP3     3568     TIP3     H1       HT       0.417000       1.00800           0
     29420 TIP3     3568     TIP3     H2       HT       0.417000       1.00800           0
     29421 TIP3     3569     TIP3     OH2      OT      -0.834000       15.9994           0
     29422 TIP3     3569     TIP3     H1       HT       0.417000       1.00800           0
     29423 TIP3     3569     TIP3     H2       HT       0.417000       1.00800           0
     29424 TIP3     3570     TIP3     OH2      OT      -0.834000       15.9994           0
     29425 TIP3     3570     TIP3     H1       HT       0.417000       1.00800           0
     29426 TIP3     3570     TIP3     H2       HT       0.417000       1.00800           0
     29427 TIP3     3571     TIP3     OH2      OT      -0.834000       15.9994           0
     29428 TIP3     3571     TIP3     H1       HT       0.417000       1.00800           0
     29429 TIP3     3571     TIP3     H2       HT       0.417000       1.00800           0
     29430 TIP3     3572     TIP3     OH2      OT      -0.834000       15.9994           0
     29431 TIP3     3572     TIP3     H1       HT       0.417000       1.00800           0
     29432 TIP3     3572     TIP3     H2       HT       0.417000       1.00800           0
     29433 TIP3     3573     TIP3     OH2      OT      -0.834000       15.9994           0
     29434 TIP3     3573     TIP3     H1       HT       0.417000       1.00800           0
     29435 TIP3     3573     TIP3     H2       HT       0.417000       1.00800           0
     29436 TIP3     3574     TIP3     OH2      OT      -0.834000       15.9994           0
     29437 TIP3     3574     TIP3     H1       HT       0.417000       1.00800           0
     29438 TIP3     3574     TIP3     H2       HT       0.417000       1.00800           0
     29439 TIP3     3575     TIP3     OH2      OT      -0.834000       15.9994           0
     29440 TIP3     3575     TIP3     H1       HT       0.417000       1.00800           0
     29441 TIP3     3575     TIP3     H2       HT       0.417000       1.00800           0
     29442 TIP3     3576     TIP3     OH2      OT      -0.834000       15.9994           0
     29443 TIP3     3576     TIP3     H1       HT       0.417000       1.00800           0
     29444 TIP3     3576     TIP3     H2       HT       0.417000       1.00800           0
     29445 TIP3     3577     TIP3     OH2      OT      -0.834000       15.9994           0
     29446 TIP3     3577     TIP3     H1       HT       0.417000       1.00800           0
     29447 TIP3     3577     TIP3     H2       HT       0.417000       1.00800           0
     29448 TIP3     3578     TIP3     OH2      OT      -0.834000       15.9994           0
     29449 TIP3     3578     TIP3     H1       HT       0.417000       1.00800           0
     29450 TIP3     3578     TIP3     H2       HT       0.417000       1.00800           0
     29451 TIP3     3579     TIP3     OH2      OT      -0.834000       15.9994           0
     29452 TIP3     3579     TIP3     H1       HT       0.417000       1.00800           0
     29453 TIP3     3579     TIP3     H2       HT       0.417000       1.00800           0
     29454 TIP3     3580     TIP3     OH2      OT      -0.834000       15.9994           0
     29455 TIP3     3580     TIP3     H1       HT       0.417000       1.00800           0
     29456 TIP3     3580     TIP3     H2       HT       0.417000       1.00800           0
     29457 TIP3     3581     TIP3     OH2      OT      -0.834000       15.9994           0
     29458 TIP3     3581     TIP3     H1       HT       0.417000       1.00800           0
     29459 TIP3     3581     TIP3     H2       HT       0.417000       1.00800           0
     29460 TIP3     3582     TIP3     OH2      OT      -0.834000       15.9994           0
     29461 TIP3     3582     TIP3     H1       HT       0.417000       1.00800           0
     29462 TIP3     3582     TIP3     H2       HT       0.417000       1.00800           0
     29463 TIP3     3583     TIP3     OH2      OT      -0.834000       15.9994           0
     29464 TIP3     3583     TIP3     H1       HT       0.417000       1.00800           0
     29465 TIP3     3583     TIP3     H2       HT       0.417000       1.00800           0
     29466 TIP3     3584     TIP3     OH2      OT      -0.834000       15.9994           0
     29467 TIP3     3584     TIP3     H1       HT       0.417000       1.00800           0
     29468 TIP3     3584     TIP3     H2       HT       0.417000       1.00800           0
     29469 TIP3     3585     TIP3     OH2      OT      -0.834000       15.9994           0
     29470 TIP3     3585     TIP3     H1       HT       0.417000       1.00800           0
     29471 TIP3     3585     TIP3     H2       HT       0.417000       1.00800           0
     29472 TIP3     3586     TIP3     OH2      OT      -0.834000       15.9994           0
     29473 TIP3     3586     TIP3     H1       HT       0.417000       1.00800           0
     29474 TIP3     3586     TIP3     H2       HT       0.417000       1.00800           0
     29475 TIP3     3587     TIP3     OH2      OT      -0.834000       15.9994           0
     29476 TIP3     3587     TIP3     H1       HT       0.417000       1.00800           0
     29477 TIP3     3587     TIP3     H2       HT       0.417000       1.00800           0
     29478 TIP3     3588     TIP3     OH2      OT      -0.834000       15.9994           0
     29479 TIP3     3588     TIP3     H1       HT       0.417000       1.00800           0
     29480 TIP3     3588     TIP3     H2       HT       0.417000       1.00800           0
     29481 TIP3     3589     TIP3     OH2      OT      -0.834000       15.9994           0
     29482 TIP3     3589     TIP3     H1       HT       0.417000       1.00800           0
     29483 TIP3     3589     TIP3     H2       HT       0.417000       1.00800           0
     29484 TIP3     3590     TIP3     OH2      OT      -0.834000       15.9994           0
     29485 TIP3     3590     TIP3     H1       HT       0.417000       1.00800           0
     29486 TIP3     3590     TIP3     H2       HT       0.417000       1.00800           0
     29487 TIP3     3591     TIP3     OH2      OT      -0.834000       15.9994           0
     29488 TIP3     3591     TIP3     H1       HT       0.417000       1.00800           0
     29489 TIP3     3591     TIP3     H2       HT       0.417000       1.00800           0
     29490 TIP3     3592     TIP3     OH2      OT      -0.834000       15.9994           0
     29491 TIP3     3592     TIP3     H1       HT       0.417000       1.00800           0
     29492 TIP3     3592     TIP3     H2       HT       0.417000       1.00800           0
     29493 TIP3     3593     TIP3     OH2      OT      -0.834000       15.9994           0
     29494 TIP3     3593     TIP3     H1       HT       0.417000       1.00800           0
     29495 TIP3     3593     TIP3     H2       HT       0.417000       1.00800           0
     29496 TIP3     3594     TIP3     OH2      OT      -0.834000       15.9994           0
     29497 TIP3     3594     TIP3     H1       HT       0.417000       1.00800           0
     29498 TIP3     3594     TIP3     H2       HT       0.417000       1.00800           0
     29499 TIP3     3595     TIP3     OH2      OT      -0.834000       15.9994           0
     29500 TIP3     3595     TIP3     H1       HT       0.417000       1.00800           0
     29501 TIP3     3595     TIP3     H2       HT       0.417000       1.00800           0
     29502 TIP3     3596     TIP3     OH2      OT      -0.834000       15.9994           0
     29503 TIP3     3596     TIP3     H1       HT       0.417000       1.00800           0
     29504 TIP3     3596     TIP3     H2       HT       0.417000       1.00800           0
     29505 TIP3     3597     TIP3     OH2      OT      -0.834000       15.9994           0
     29506 TIP3     3597     TIP3     H1       HT       0.417000       1.00800           0
     29507 TIP3     3597     TIP3     H2       HT       0.417000       1.00800           0
     29508 TIP3     3598     TIP3     OH2      OT      -0.834000       15.9994           0
     29509 TIP3     3598     TIP3     H1       HT       0.417000       1.00800           0
     29510 TIP3     3598     TIP3     H2       HT       0.417000       1.00800           0
     29511 TIP3     3599     TIP3     OH2      OT      -0.834000       15.9994           0
     29512 TIP3     3599     TIP3     H1       HT       0.417000       1.00800           0
     29513 TIP3     3599     TIP3     H2       HT       0.417000       1.00800           0
     29514 TIP3     3600     TIP3     OH2      OT      -0.834000       15.9994           0
     29515 TIP3     3600     TIP3     H1       HT       0.417000       1.00800           0
     29516 TIP3     3600     TIP3     H2       HT       0.417000       1.00800           0
     29517 TIP3     3601     TIP3     OH2      OT      -0.834000       15.9994           0
     29518 TIP3     3601     TIP3     H1       HT       0.417000       1.00800           0
     29519 TIP3     3601     TIP3     H2       HT       0.417000       1.00800           0
     29520 TIP3     3602     TIP3     OH2      OT      -0.834000       15.9994           0
     29521 TIP3     3602     TIP3     H1       HT       0.417000       1.00800           0
     29522 TIP3     3602     TIP3     H2       HT       0.417000       1.00800           0
     29523 TIP3     3603     TIP3     OH2      OT      -0.834000       15.9994           0
     29524 TIP3     3603     TIP3     H1       HT       0.417000       1.00800           0
     29525 TIP3     3603     TIP3     H2       HT       0.417000       1.00800           0
     29526 TIP3     3604     TIP3     OH2      OT      -0.834000       15.9994           0
     29527 TIP3     3604     TIP3     H1       HT       0.417000       1.00800           0
     29528 TIP3     3604     TIP3     H2       HT       0.417000       1.00800           0
     29529 TIP3     3605     TIP3     OH2      OT      -0.834000       15.9994           0
     29530 TIP3     3605     TIP3     H1       HT       0.417000       1.00800           0
     29531 TIP3     3605     TIP3     H2       HT       0.417000       1.00800           0
     29532 TIP3     3606     TIP3     OH2      OT      -0.834000       15.9994           0
     29533 TIP3     3606     TIP3     H1       HT       0.417000       1.00800           0
     29534 TIP3     3606     TIP3     H2       HT       0.417000       1.00800           0
     29535 TIP3     3607     TIP3     OH2      OT      -0.834000       15.9994           0
     29536 TIP3     3607     TIP3     H1       HT       0.417000       1.00800           0
     29537 TIP3     3607     TIP3     H2       HT       0.417000       1.00800           0
     29538 TIP3     3608     TIP3     OH2      OT      -0.834000       15.9994           0
     29539 TIP3     3608     TIP3     H1       HT       0.417000       1.00800           0
     29540 TIP3     3608     TIP3     H2       HT       0.417000       1.00800           0
     29541 TIP3     3609     TIP3     OH2      OT      -0.834000       15.9994           0
     29542 TIP3     3609     TIP3     H1       HT       0.417000       1.00800           0
     29543 TIP3     3609     TIP3     H2       HT       0.417000       1.00800           0
     29544 TIP3     3610     TIP3     OH2      OT      -0.834000       15.9994           0
     29545 TIP3     3610     TIP3     H1       HT       0.417000       1.00800           0
     29546 TIP3     3610     TIP3     H2       HT       0.417000       1.00800           0
     29547 TIP3     3611     TIP3     OH2      OT      -0.834000       15.9994           0
     29548 TIP3     3611     TIP3     H1       HT       0.417000       1.00800           0
     29549 TIP3     3611     TIP3     H2       HT       0.417000       1.00800           0
     29550 TIP3     3612     TIP3     OH2      OT      -0.834000       15.9994           0
     29551 TIP3     3612     TIP3     H1       HT       0.417000       1.00800           0
     29552 TIP3     3612     TIP3     H2       HT       0.417000       1.00800           0
     29553 TIP3     3613     TIP3     OH2      OT      -0.834000       15.9994           0
     29554 TIP3     3613     TIP3     H1       HT       0.417000       1.00800           0
     29555 TIP3     3613     TIP3     H2       HT       0.417000       1.00800           0
     29556 TIP3     3614     TIP3     OH2      OT      -0.834000       15.9994           0
     29557 TIP3     3614     TIP3     H1       HT       0.417000       1.00800           0
     29558 TIP3     3614     TIP3     H2       HT       0.417000       1.00800           0
     29559 TIP3     3615     TIP3     OH2      OT      -0.834000       15.9994           0
     29560 TIP3     3615     TIP3     H1       HT       0.417000       1.00800           0
     29561 TIP3     3615     TIP3     H2       HT       0.417000       1.00800           0
     29562 TIP3     3616     TIP3     OH2      OT      -0.834000       15.9994           0
     29563 TIP3     3616     TIP3     H1       HT       0.417000       1.00800           0
     29564 TIP3     3616     TIP3     H2       HT       0.417000       1.00800           0
     29565 TIP3     3617     TIP3     OH2      OT      -0.834000       15.9994           0
     29566 TIP3     3617     TIP3     H1       HT       0.417000       1.00800           0
     29567 TIP3     3617     TIP3     H2       HT       0.417000       1.00800           0
     29568 TIP3     3618     TIP3     OH2      OT      -0.834000       15.9994           0
     29569 TIP3     3618     TIP3     H1       HT       0.417000       1.00800           0
     29570 TIP3     3618     TIP3     H2       HT       0.417000       1.00800           0
     29571 TIP3     3619     TIP3     OH2      OT      -0.834000       15.9994           0
     29572 TIP3     3619     TIP3     H1       HT       0.417000       1.00800           0
     29573 TIP3     3619     TIP3     H2       HT       0.417000       1.00800           0
     29574 TIP3     3620     TIP3     OH2      OT      -0.834000       15.9994           0
     29575 TIP3     3620     TIP3     H1       HT       0.417000       1.00800           0
     29576 TIP3     3620     TIP3     H2       HT       0.417000       1.00800           0
     29577 TIP3     3621     TIP3     OH2      OT      -0.834000       15.9994           0
     29578 TIP3     3621     TIP3     H1       HT       0.417000       1.00800           0
     29579 TIP3     3621     TIP3     H2       HT       0.417000       1.00800           0
     29580 TIP3     3622     TIP3     OH2      OT      -0.834000       15.9994           0
     29581 TIP3     3622     TIP3     H1       HT       0.417000       1.00800           0
     29582 TIP3     3622     TIP3     H2       HT       0.417000       1.00800           0
     29583 TIP3     3623     TIP3     OH2      OT      -0.834000       15.9994           0
     29584 TIP3     3623     TIP3     H1       HT       0.417000       1.00800           0
     29585 TIP3     3623     TIP3     H2       HT       0.417000       1.00800           0
     29586 TIP3     3624     TIP3     OH2      OT      -0.834000       15.9994           0
     29587 TIP3     3624     TIP3     H1       HT       0.417000       1.00800           0
     29588 TIP3     3624     TIP3     H2       HT       0.417000       1.00800           0
     29589 TIP3     3625     TIP3     OH2      OT      -0.834000       15.9994           0
     29590 TIP3     3625     TIP3     H1       HT       0.417000       1.00800           0
     29591 TIP3     3625     TIP3     H2       HT       0.417000       1.00800           0
     29592 TIP3     3626     TIP3     OH2      OT      -0.834000       15.9994           0
     29593 TIP3     3626     TIP3     H1       HT       0.417000       1.00800           0
     29594 TIP3     3626     TIP3     H2       HT       0.417000       1.00800           0
     29595 TIP3     3627     TIP3     OH2      OT      -0.834000       15.9994           0
     29596 TIP3     3627     TIP3     H1       HT       0.417000       1.00800           0
     29597 TIP3     3627     TIP3     H2       HT       0.417000       1.00800           0
     29598 TIP3     3628     TIP3     OH2      OT      -0.834000       15.9994           0
     29599 TIP3     3628     TIP3     H1       HT       0.417000       1.00800           0
     29600 TIP3     3628     TIP3     H2       HT       0.417000       1.00800           0
     29601 TIP3     3629     TIP3     OH2      OT      -0.834000       15.9994           0
     29602 TIP3     3629     TIP3     H1       HT       0.417000       1.00800           0
     29603 TIP3     3629     TIP3     H2       HT       0.417000       1.00800           0
     29604 TIP3     3630     TIP3     OH2      OT      -0.834000       15.9994           0
     29605 TIP3     3630     TIP3     H1       HT       0.417000       1.00800           0
     29606 TIP3     3630     TIP3     H2       HT       0.417000       1.00800           0
     29607 TIP3     3631     TIP3     OH2      OT      -0.834000       15.9994           0
     29608 TIP3     3631     TIP3     H1       HT       0.417000       1.00800           0
     29609 TIP3     3631     TIP3     H2       HT       0.417000       1.00800           0
     29610 TIP3     3632     TIP3     OH2      OT      -0.834000       15.9994           0
     29611 TIP3     3632     TIP3     H1       HT       0.417000       1.00800           0
     29612 TIP3     3632     TIP3     H2       HT       0.417000       1.00800           0
     29613 TIP3     3633     TIP3     OH2      OT      -0.834000       15.9994           0
     29614 TIP3     3633     TIP3     H1       HT       0.417000       1.00800           0
     29615 TIP3     3633     TIP3     H2       HT       0.417000       1.00800           0
     29616 TIP3     3634     TIP3     OH2      OT      -0.834000       15.9994           0
     29617 TIP3     3634     TIP3     H1       HT       0.417000       1.00800           0
     29618 TIP3     3634     TIP3     H2       HT       0.417000       1.00800           0
     29619 TIP3     3635     TIP3     OH2      OT      -0.834000       15.9994           0
     29620 TIP3     3635     TIP3     H1       HT       0.417000       1.00800           0
     29621 TIP3     3635     TIP3     H2       HT       0.417000       1.00800           0
     29622 TIP3     3636     TIP3     OH2      OT      -0.834000       15.9994           0
     29623 TIP3     3636     TIP3     H1       HT       0.417000       1.00800           0
     29624 TIP3     3636     TIP3     H2       HT       0.417000       1.00800           0
     29625 TIP3     3637     TIP3     OH2      OT      -0.834000       15.9994           0
     29626 TIP3     3637     TIP3     H1       HT       0.417000       1.00800           0
     29627 TIP3     3637     TIP3     H2       HT       0.417000       1.00800           0
     29628 TIP3     3638     TIP3     OH2      OT      -0.834000       15.9994           0
     29629 TIP3     3638     TIP3     H1       HT       0.417000       1.00800           0
     29630 TIP3     3638     TIP3     H2       HT       0.417000       1.00800           0
     29631 TIP3     3639     TIP3     OH2      OT      -0.834000       15.9994           0
     29632 TIP3     3639     TIP3     H1       HT       0.417000       1.00800           0
     29633 TIP3     3639     TIP3     H2       HT       0.417000       1.00800           0
     29634 TIP3     3640     TIP3     OH2      OT      -0.834000       15.9994           0
     29635 TIP3     3640     TIP3     H1       HT       0.417000       1.00800           0
     29636 TIP3     3640     TIP3     H2       HT       0.417000       1.00800           0
     29637 TIP3     3641     TIP3     OH2      OT      -0.834000       15.9994           0
     29638 TIP3     3641     TIP3     H1       HT       0.417000       1.00800           0
     29639 TIP3     3641     TIP3     H2       HT       0.417000       1.00800           0
     29640 TIP3     3642     TIP3     OH2      OT      -0.834000       15.9994           0
     29641 TIP3     3642     TIP3     H1       HT       0.417000       1.00800           0
     29642 TIP3     3642     TIP3     H2       HT       0.417000       1.00800           0
     29643 TIP3     3643     TIP3     OH2      OT      -0.834000       15.9994           0
     29644 TIP3     3643     TIP3     H1       HT       0.417000       1.00800           0
     29645 TIP3     3643     TIP3     H2       HT       0.417000       1.00800           0
     29646 TIP3     3644     TIP3     OH2      OT      -0.834000       15.9994           0
     29647 TIP3     3644     TIP3     H1       HT       0.417000       1.00800           0
     29648 TIP3     3644     TIP3     H2       HT       0.417000       1.00800           0
     29649 TIP3     3645     TIP3     OH2      OT      -0.834000       15.9994           0
     29650 TIP3     3645     TIP3     H1       HT       0.417000       1.00800           0
     29651 TIP3     3645     TIP3     H2       HT       0.417000       1.00800           0
     29652 TIP3     3646     TIP3     OH2      OT      -0.834000       15.9994           0
     29653 TIP3     3646     TIP3     H1       HT       0.417000       1.00800           0
     29654 TIP3     3646     TIP3     H2       HT       0.417000       1.00800           0
     29655 TIP3     3647     TIP3     OH2      OT      -0.834000       15.9994           0
     29656 TIP3     3647     TIP3     H1       HT       0.417000       1.00800           0
     29657 TIP3     3647     TIP3     H2       HT       0.417000       1.00800           0
     29658 TIP3     3648     TIP3     OH2      OT      -0.834000       15.9994           0
     29659 TIP3     3648     TIP3     H1       HT       0.417000       1.00800           0
     29660 TIP3     3648     TIP3     H2       HT       0.417000       1.00800           0
     29661 TIP3     3649     TIP3     OH2      OT      -0.834000       15.9994           0
     29662 TIP3     3649     TIP3     H1       HT       0.417000       1.00800           0
     29663 TIP3     3649     TIP3     H2       HT       0.417000       1.00800           0
     29664 TIP3     3650     TIP3     OH2      OT      -0.834000       15.9994           0
     29665 TIP3     3650     TIP3     H1       HT       0.417000       1.00800           0
     29666 TIP3     3650     TIP3     H2       HT       0.417000       1.00800           0
     29667 TIP3     3651     TIP3     OH2      OT      -0.834000       15.9994           0
     29668 TIP3     3651     TIP3     H1       HT       0.417000       1.00800           0
     29669 TIP3     3651     TIP3     H2       HT       0.417000       1.00800           0
     29670 TIP3     3652     TIP3     OH2      OT      -0.834000       15.9994           0
     29671 TIP3     3652     TIP3     H1       HT       0.417000       1.00800           0
     29672 TIP3     3652     TIP3     H2       HT       0.417000       1.00800           0
     29673 TIP3     3653     TIP3     OH2      OT      -0.834000       15.9994           0
     29674 TIP3     3653     TIP3     H1       HT       0.417000       1.00800           0
     29675 TIP3     3653     TIP3     H2       HT       0.417000       1.00800           0
     29676 TIP3     3654     TIP3     OH2      OT      -0.834000       15.9994           0
     29677 TIP3     3654     TIP3     H1       HT       0.417000       1.00800           0
     29678 TIP3     3654     TIP3     H2       HT       0.417000       1.00800           0
     29679 TIP3     3655     TIP3     OH2      OT      -0.834000       15.9994           0
     29680 TIP3     3655     TIP3     H1       HT       0.417000       1.00800           0
     29681 TIP3     3655     TIP3     H2       HT       0.417000       1.00800           0
     29682 TIP3     3656     TIP3     OH2      OT      -0.834000       15.9994           0
     29683 TIP3     3656     TIP3     H1       HT       0.417000       1.00800           0
     29684 TIP3     3656     TIP3     H2       HT       0.417000       1.00800           0
     29685 TIP3     3657     TIP3     OH2      OT      -0.834000       15.9994           0
     29686 TIP3     3657     TIP3     H1       HT       0.417000       1.00800           0
     29687 TIP3     3657     TIP3     H2       HT       0.417000       1.00800           0
     29688 TIP3     3658     TIP3     OH2      OT      -0.834000       15.9994           0
     29689 TIP3     3658     TIP3     H1       HT       0.417000       1.00800           0
     29690 TIP3     3658     TIP3     H2       HT       0.417000       1.00800           0
     29691 TIP3     3659     TIP3     OH2      OT      -0.834000       15.9994           0
     29692 TIP3     3659     TIP3     H1       HT       0.417000       1.00800           0
     29693 TIP3     3659     TIP3     H2       HT       0.417000       1.00800           0
     29694 TIP3     3660     TIP3     OH2      OT      -0.834000       15.9994           0
     29695 TIP3     3660     TIP3     H1       HT       0.417000       1.00800           0
     29696 TIP3     3660     TIP3     H2       HT       0.417000       1.00800           0
     29697 TIP3     3661     TIP3     OH2      OT      -0.834000       15.9994           0
     29698 TIP3     3661     TIP3     H1       HT       0.417000       1.00800           0
     29699 TIP3     3661     TIP3     H2       HT       0.417000       1.00800           0
     29700 TIP3     3662     TIP3     OH2      OT      -0.834000       15.9994           0
     29701 TIP3     3662     TIP3     H1       HT       0.417000       1.00800           0
     29702 TIP3     3662     TIP3     H2       HT       0.417000       1.00800           0
     29703 TIP3     3663     TIP3     OH2      OT      -0.834000       15.9994           0
     29704 TIP3     3663     TIP3     H1       HT       0.417000       1.00800           0
     29705 TIP3     3663     TIP3     H2       HT       0.417000       1.00800           0
     29706 TIP3     3664     TIP3     OH2      OT      -0.834000       15.9994           0
     29707 TIP3     3664     TIP3     H1       HT       0.417000       1.00800           0
     29708 TIP3     3664     TIP3     H2       HT       0.417000       1.00800           0
     29709 TIP3     3665     TIP3     OH2      OT      -0.834000       15.9994           0
     29710 TIP3     3665     TIP3     H1       HT       0.417000       1.00800           0
     29711 TIP3     3665     TIP3     H2       HT       0.417000       1.00800           0
     29712 TIP3     3666     TIP3     OH2      OT      -0.834000       15.9994           0
     29713 TIP3     3666     TIP3     H1       HT       0.417000       1.00800           0
     29714 TIP3     3666     TIP3     H2       HT       0.417000       1.00800           0
     29715 TIP3     3667     TIP3     OH2      OT      -0.834000       15.9994           0
     29716 TIP3     3667     TIP3     H1       HT       0.417000       1.00800           0
     29717 TIP3     3667     TIP3     H2       HT       0.417000       1.00800           0
     29718 TIP3     3668     TIP3     OH2      OT      -0.834000       15.9994           0
     29719 TIP3     3668     TIP3     H1       HT       0.417000       1.00800           0
     29720 TIP3     3668     TIP3     H2       HT       0.417000       1.00800           0
     29721 TIP3     3669     TIP3     OH2      OT      -0.834000       15.9994           0
     29722 TIP3     3669     TIP3     H1       HT       0.417000       1.00800           0
     29723 TIP3     3669     TIP3     H2       HT       0.417000       1.00800           0
     29724 TIP3     3670     TIP3     OH2      OT      -0.834000       15.9994           0
     29725 TIP3     3670     TIP3     H1       HT       0.417000       1.00800           0
     29726 TIP3     3670     TIP3     H2       HT       0.417000       1.00800           0
     29727 TIP3     3671     TIP3     OH2      OT      -0.834000       15.9994           0
     29728 TIP3     3671     TIP3     H1       HT       0.417000       1.00800           0
     29729 TIP3     3671     TIP3     H2       HT       0.417000       1.00800           0
     29730 TIP3     3672     TIP3     OH2      OT      -0.834000       15.9994           0
     29731 TIP3     3672     TIP3     H1       HT       0.417000       1.00800           0
     29732 TIP3     3672     TIP3     H2       HT       0.417000       1.00800           0
     29733 TIP3     3673     TIP3     OH2      OT      -0.834000       15.9994           0
     29734 TIP3     3673     TIP3     H1       HT       0.417000       1.00800           0
     29735 TIP3     3673     TIP3     H2       HT       0.417000       1.00800           0
     29736 TIP3     3674     TIP3     OH2      OT      -0.834000       15.9994           0
     29737 TIP3     3674     TIP3     H1       HT       0.417000       1.00800           0
     29738 TIP3     3674     TIP3     H2       HT       0.417000       1.00800           0
     29739 TIP3     3675     TIP3     OH2      OT      -0.834000       15.9994           0
     29740 TIP3     3675     TIP3     H1       HT       0.417000       1.00800           0
     29741 TIP3     3675     TIP3     H2       HT       0.417000       1.00800           0
     29742 TIP3     3676     TIP3     OH2      OT      -0.834000       15.9994           0
     29743 TIP3     3676     TIP3     H1       HT       0.417000       1.00800           0
     29744 TIP3     3676     TIP3     H2       HT       0.417000       1.00800           0
     29745 TIP3     3677     TIP3     OH2      OT      -0.834000       15.9994           0
     29746 TIP3     3677     TIP3     H1       HT       0.417000       1.00800           0
     29747 TIP3     3677     TIP3     H2       HT       0.417000       1.00800           0
     29748 TIP3     3678     TIP3     OH2      OT      -0.834000       15.9994           0
     29749 TIP3     3678     TIP3     H1       HT       0.417000       1.00800           0
     29750 TIP3     3678     TIP3     H2       HT       0.417000       1.00800           0
     29751 TIP3     3679     TIP3     OH2      OT      -0.834000       15.9994           0
     29752 TIP3     3679     TIP3     H1       HT       0.417000       1.00800           0
     29753 TIP3     3679     TIP3     H2       HT       0.417000       1.00800           0
     29754 TIP3     3680     TIP3     OH2      OT      -0.834000       15.9994           0
     29755 TIP3     3680     TIP3     H1       HT       0.417000       1.00800           0
     29756 TIP3     3680     TIP3     H2       HT       0.417000       1.00800           0
     29757 TIP3     3681     TIP3     OH2      OT      -0.834000       15.9994           0
     29758 TIP3     3681     TIP3     H1       HT       0.417000       1.00800           0
     29759 TIP3     3681     TIP3     H2       HT       0.417000       1.00800           0
     29760 TIP3     3682     TIP3     OH2      OT      -0.834000       15.9994           0
     29761 TIP3     3682     TIP3     H1       HT       0.417000       1.00800           0
     29762 TIP3     3682     TIP3     H2       HT       0.417000       1.00800           0
     29763 TIP3     3683     TIP3     OH2      OT      -0.834000       15.9994           0
     29764 TIP3     3683     TIP3     H1       HT       0.417000       1.00800           0
     29765 TIP3     3683     TIP3     H2       HT       0.417000       1.00800           0
     29766 TIP3     3684     TIP3     OH2      OT      -0.834000       15.9994           0
     29767 TIP3     3684     TIP3     H1       HT       0.417000       1.00800           0
     29768 TIP3     3684     TIP3     H2       HT       0.417000       1.00800           0
     29769 TIP3     3685     TIP3     OH2      OT      -0.834000       15.9994           0
     29770 TIP3     3685     TIP3     H1       HT       0.417000       1.00800           0
     29771 TIP3     3685     TIP3     H2       HT       0.417000       1.00800           0
     29772 TIP3     3686     TIP3     OH2      OT      -0.834000       15.9994           0
     29773 TIP3     3686     TIP3     H1       HT       0.417000       1.00800           0
     29774 TIP3     3686     TIP3     H2       HT       0.417000       1.00800           0
     29775 TIP3     3687     TIP3     OH2      OT      -0.834000       15.9994           0
     29776 TIP3     3687     TIP3     H1       HT       0.417000       1.00800           0
     29777 TIP3     3687     TIP3     H2       HT       0.417000       1.00800           0
     29778 TIP3     3688     TIP3     OH2      OT      -0.834000       15.9994           0
     29779 TIP3     3688     TIP3     H1       HT       0.417000       1.00800           0
     29780 TIP3     3688     TIP3     H2       HT       0.417000       1.00800           0
     29781 TIP3     3689     TIP3     OH2      OT      -0.834000       15.9994           0
     29782 TIP3     3689     TIP3     H1       HT       0.417000       1.00800           0
     29783 TIP3     3689     TIP3     H2       HT       0.417000       1.00800           0
     29784 TIP3     3690     TIP3     OH2      OT      -0.834000       15.9994           0
     29785 TIP3     3690     TIP3     H1       HT       0.417000       1.00800           0
     29786 TIP3     3690     TIP3     H2       HT       0.417000       1.00800           0
     29787 TIP3     3691     TIP3     OH2      OT      -0.834000       15.9994           0
     29788 TIP3     3691     TIP3     H1       HT       0.417000       1.00800           0
     29789 TIP3     3691     TIP3     H2       HT       0.417000       1.00800           0
     29790 TIP3     3692     TIP3     OH2      OT      -0.834000       15.9994           0
     29791 TIP3     3692     TIP3     H1       HT       0.417000       1.00800           0
     29792 TIP3     3692     TIP3     H2       HT       0.417000       1.00800           0
     29793 TIP3     3693     TIP3     OH2      OT      -0.834000       15.9994           0
     29794 TIP3     3693     TIP3     H1       HT       0.417000       1.00800           0
     29795 TIP3     3693     TIP3     H2       HT       0.417000       1.00800           0
     29796 TIP3     3694     TIP3     OH2      OT      -0.834000       15.9994           0
     29797 TIP3     3694     TIP3     H1       HT       0.417000       1.00800           0
     29798 TIP3     3694     TIP3     H2       HT       0.417000       1.00800           0
     29799 TIP3     3695     TIP3     OH2      OT      -0.834000       15.9994           0
     29800 TIP3     3695     TIP3     H1       HT       0.417000       1.00800           0
     29801 TIP3     3695     TIP3     H2       HT       0.417000       1.00800           0
     29802 TIP3     3696     TIP3     OH2      OT      -0.834000       15.9994           0
     29803 TIP3     3696     TIP3     H1       HT       0.417000       1.00800           0
     29804 TIP3     3696     TIP3     H2       HT       0.417000       1.00800           0
     29805 TIP3     3697     TIP3     OH2      OT      -0.834000       15.9994           0
     29806 TIP3     3697     TIP3     H1       HT       0.417000       1.00800           0
     29807 TIP3     3697     TIP3     H2       HT       0.417000       1.00800           0
     29808 TIP3     3698     TIP3     OH2      OT      -0.834000       15.9994           0
     29809 TIP3     3698     TIP3     H1       HT       0.417000       1.00800           0
     29810 TIP3     3698     TIP3     H2       HT       0.417000       1.00800           0
     29811 TIP3     3699     TIP3     OH2      OT      -0.834000       15.9994           0
     29812 TIP3     3699     TIP3     H1       HT       0.417000       1.00800           0
     29813 TIP3     3699     TIP3     H2       HT       0.417000       1.00800           0
     29814 TIP3     3700     TIP3     OH2      OT      -0.834000       15.9994           0
     29815 TIP3     3700     TIP3     H1       HT       0.417000       1.00800           0
     29816 TIP3     3700     TIP3     H2       HT       0.417000       1.00800           0
     29817 TIP3     3701     TIP3     OH2      OT      -0.834000       15.9994           0
     29818 TIP3     3701     TIP3     H1       HT       0.417000       1.00800           0
     29819 TIP3     3701     TIP3     H2       HT       0.417000       1.00800           0
     29820 TIP3     3702     TIP3     OH2      OT      -0.834000       15.9994           0
     29821 TIP3     3702     TIP3     H1       HT       0.417000       1.00800           0
     29822 TIP3     3702     TIP3     H2       HT       0.417000       1.00800           0
     29823 TIP3     3703     TIP3     OH2      OT      -0.834000       15.9994           0
     29824 TIP3     3703     TIP3     H1       HT       0.417000       1.00800           0
     29825 TIP3     3703     TIP3     H2       HT       0.417000       1.00800           0
     29826 TIP3     3704     TIP3     OH2      OT      -0.834000       15.9994           0
     29827 TIP3     3704     TIP3     H1       HT       0.417000       1.00800           0
     29828 TIP3     3704     TIP3     H2       HT       0.417000       1.00800           0
     29829 TIP3     3705     TIP3     OH2      OT      -0.834000       15.9994           0
     29830 TIP3     3705     TIP3     H1       HT       0.417000       1.00800           0
     29831 TIP3     3705     TIP3     H2       HT       0.417000       1.00800           0
     29832 TIP3     3706     TIP3     OH2      OT      -0.834000       15.9994           0
     29833 TIP3     3706     TIP3     H1       HT       0.417000       1.00800           0
     29834 TIP3     3706     TIP3     H2       HT       0.417000       1.00800           0
     29835 TIP3     3707     TIP3     OH2      OT      -0.834000       15.9994           0
     29836 TIP3     3707     TIP3     H1       HT       0.417000       1.00800           0
     29837 TIP3     3707     TIP3     H2       HT       0.417000       1.00800           0
     29838 TIP3     3708     TIP3     OH2      OT      -0.834000       15.9994           0
     29839 TIP3     3708     TIP3     H1       HT       0.417000       1.00800           0
     29840 TIP3     3708     TIP3     H2       HT       0.417000       1.00800           0
     29841 TIP3     3709     TIP3     OH2      OT      -0.834000       15.9994           0
     29842 TIP3     3709     TIP3     H1       HT       0.417000       1.00800           0
     29843 TIP3     3709     TIP3     H2       HT       0.417000       1.00800           0
     29844 TIP3     3710     TIP3     OH2      OT      -0.834000       15.9994           0
     29845 TIP3     3710     TIP3     H1       HT       0.417000       1.00800           0
     29846 TIP3     3710     TIP3     H2       HT       0.417000       1.00800           0
     29847 TIP3     3711     TIP3     OH2      OT      -0.834000       15.9994           0
     29848 TIP3     3711     TIP3     H1       HT       0.417000       1.00800           0
     29849 TIP3     3711     TIP3     H2       HT       0.417000       1.00800           0
     29850 TIP3     3712     TIP3     OH2      OT      -0.834000       15.9994           0
     29851 TIP3     3712     TIP3     H1       HT       0.417000       1.00800           0
     29852 TIP3     3712     TIP3     H2       HT       0.417000       1.00800           0
     29853 TIP3     3713     TIP3     OH2      OT      -0.834000       15.9994           0
     29854 TIP3     3713     TIP3     H1       HT       0.417000       1.00800           0
     29855 TIP3     3713     TIP3     H2       HT       0.417000       1.00800           0
     29856 TIP3     3714     TIP3     OH2      OT      -0.834000       15.9994           0
     29857 TIP3     3714     TIP3     H1       HT       0.417000       1.00800           0
     29858 TIP3     3714     TIP3     H2       HT       0.417000       1.00800           0
     29859 TIP3     3715     TIP3     OH2      OT      -0.834000       15.9994           0
     29860 TIP3     3715     TIP3     H1       HT       0.417000       1.00800           0
     29861 TIP3     3715     TIP3     H2       HT       0.417000       1.00800           0
     29862 TIP3     3716     TIP3     OH2      OT      -0.834000       15.9994           0
     29863 TIP3     3716     TIP3     H1       HT       0.417000       1.00800           0
     29864 TIP3     3716     TIP3     H2       HT       0.417000       1.00800           0
     29865 TIP3     3717     TIP3     OH2      OT      -0.834000       15.9994           0
     29866 TIP3     3717     TIP3     H1       HT       0.417000       1.00800           0
     29867 TIP3     3717     TIP3     H2       HT       0.417000       1.00800           0
     29868 TIP3     3718     TIP3     OH2      OT      -0.834000       15.9994           0
     29869 TIP3     3718     TIP3     H1       HT       0.417000       1.00800           0
     29870 TIP3     3718     TIP3     H2       HT       0.417000       1.00800           0
     29871 TIP3     3719     TIP3     OH2      OT      -0.834000       15.9994           0
     29872 TIP3     3719     TIP3     H1       HT       0.417000       1.00800           0
     29873 TIP3     3719     TIP3     H2       HT       0.417000       1.00800           0
     29874 TIP3     3720     TIP3     OH2      OT      -0.834000       15.9994           0
     29875 TIP3     3720     TIP3     H1       HT       0.417000       1.00800           0
     29876 TIP3     3720     TIP3     H2       HT       0.417000       1.00800           0
     29877 TIP3     3721     TIP3     OH2      OT      -0.834000       15.9994           0
     29878 TIP3     3721     TIP3     H1       HT       0.417000       1.00800           0
     29879 TIP3     3721     TIP3     H2       HT       0.417000       1.00800           0
     29880 TIP3     3722     TIP3     OH2      OT      -0.834000       15.9994           0
     29881 TIP3     3722     TIP3     H1       HT       0.417000       1.00800           0
     29882 TIP3     3722     TIP3     H2       HT       0.417000       1.00800           0
     29883 TIP3     3723     TIP3     OH2      OT      -0.834000       15.9994           0
     29884 TIP3     3723     TIP3     H1       HT       0.417000       1.00800           0
     29885 TIP3     3723     TIP3     H2       HT       0.417000       1.00800           0
     29886 TIP3     3724     TIP3     OH2      OT      -0.834000       15.9994           0
     29887 TIP3     3724     TIP3     H1       HT       0.417000       1.00800           0
     29888 TIP3     3724     TIP3     H2       HT       0.417000       1.00800           0
     29889 TIP3     3725     TIP3     OH2      OT      -0.834000       15.9994           0
     29890 TIP3     3725     TIP3     H1       HT       0.417000       1.00800           0
     29891 TIP3     3725     TIP3     H2       HT       0.417000       1.00800           0
     29892 TIP3     3726     TIP3     OH2      OT      -0.834000       15.9994           0
     29893 TIP3     3726     TIP3     H1       HT       0.417000       1.00800           0
     29894 TIP3     3726     TIP3     H2       HT       0.417000       1.00800           0
     29895 TIP3     3727     TIP3     OH2      OT      -0.834000       15.9994           0
     29896 TIP3     3727     TIP3     H1       HT       0.417000       1.00800           0
     29897 TIP3     3727     TIP3     H2       HT       0.417000       1.00800           0
     29898 TIP3     3728     TIP3     OH2      OT      -0.834000       15.9994           0
     29899 TIP3     3728     TIP3     H1       HT       0.417000       1.00800           0
     29900 TIP3     3728     TIP3     H2       HT       0.417000       1.00800           0
     29901 TIP3     3729     TIP3     OH2      OT      -0.834000       15.9994           0
     29902 TIP3     3729     TIP3     H1       HT       0.417000       1.00800           0
     29903 TIP3     3729     TIP3     H2       HT       0.417000       1.00800           0
     29904 TIP3     3730     TIP3     OH2      OT      -0.834000       15.9994           0
     29905 TIP3     3730     TIP3     H1       HT       0.417000       1.00800           0
     29906 TIP3     3730     TIP3     H2       HT       0.417000       1.00800           0
     29907 TIP3     3731     TIP3     OH2      OT      -0.834000       15.9994           0
     29908 TIP3     3731     TIP3     H1       HT       0.417000       1.00800           0
     29909 TIP3     3731     TIP3     H2       HT       0.417000       1.00800           0
     29910 TIP3     3732     TIP3     OH2      OT      -0.834000       15.9994           0
     29911 TIP3     3732     TIP3     H1       HT       0.417000       1.00800           0
     29912 TIP3     3732     TIP3     H2       HT       0.417000       1.00800           0
     29913 TIP3     3733     TIP3     OH2      OT      -0.834000       15.9994           0
     29914 TIP3     3733     TIP3     H1       HT       0.417000       1.00800           0
     29915 TIP3     3733     TIP3     H2       HT       0.417000       1.00800           0
     29916 TIP3     3734     TIP3     OH2      OT      -0.834000       15.9994           0
     29917 TIP3     3734     TIP3     H1       HT       0.417000       1.00800           0
     29918 TIP3     3734     TIP3     H2       HT       0.417000       1.00800           0
     29919 TIP3     3735     TIP3     OH2      OT      -0.834000       15.9994           0
     29920 TIP3     3735     TIP3     H1       HT       0.417000       1.00800           0
     29921 TIP3     3735     TIP3     H2       HT       0.417000       1.00800           0
     29922 TIP3     3736     TIP3     OH2      OT      -0.834000       15.9994           0
     29923 TIP3     3736     TIP3     H1       HT       0.417000       1.00800           0
     29924 TIP3     3736     TIP3     H2       HT       0.417000       1.00800           0
     29925 TIP3     3737     TIP3     OH2      OT      -0.834000       15.9994           0
     29926 TIP3     3737     TIP3     H1       HT       0.417000       1.00800           0
     29927 TIP3     3737     TIP3     H2       HT       0.417000       1.00800           0
     29928 TIP3     3738     TIP3     OH2      OT      -0.834000       15.9994           0
     29929 TIP3     3738     TIP3     H1       HT       0.417000       1.00800           0
     29930 TIP3     3738     TIP3     H2       HT       0.417000       1.00800           0
     29931 TIP3     3739     TIP3     OH2      OT      -0.834000       15.9994           0
     29932 TIP3     3739     TIP3     H1       HT       0.417000       1.00800           0
     29933 TIP3     3739     TIP3     H2       HT       0.417000       1.00800           0
     29934 TIP3     3740     TIP3     OH2      OT      -0.834000       15.9994           0
     29935 TIP3     3740     TIP3     H1       HT       0.417000       1.00800           0
     29936 TIP3     3740     TIP3     H2       HT       0.417000       1.00800           0
     29937 TIP3     3741     TIP3     OH2      OT      -0.834000       15.9994           0
     29938 TIP3     3741     TIP3     H1       HT       0.417000       1.00800           0
     29939 TIP3     3741     TIP3     H2       HT       0.417000       1.00800           0
     29940 TIP3     3742     TIP3     OH2      OT      -0.834000       15.9994           0
     29941 TIP3     3742     TIP3     H1       HT       0.417000       1.00800           0
     29942 TIP3     3742     TIP3     H2       HT       0.417000       1.00800           0
     29943 TIP3     3743     TIP3     OH2      OT      -0.834000       15.9994           0
     29944 TIP3     3743     TIP3     H1       HT       0.417000       1.00800           0
     29945 TIP3     3743     TIP3     H2       HT       0.417000       1.00800           0
     29946 TIP3     3744     TIP3     OH2      OT      -0.834000       15.9994           0
     29947 TIP3     3744     TIP3     H1       HT       0.417000       1.00800           0
     29948 TIP3     3744     TIP3     H2       HT       0.417000       1.00800           0
     29949 TIP3     3745     TIP3     OH2      OT      -0.834000       15.9994           0
     29950 TIP3     3745     TIP3     H1       HT       0.417000       1.00800           0
     29951 TIP3     3745     TIP3     H2       HT       0.417000       1.00800           0
     29952 TIP3     3746     TIP3     OH2      OT      -0.834000       15.9994           0
     29953 TIP3     3746     TIP3     H1       HT       0.417000       1.00800           0
     29954 TIP3     3746     TIP3     H2       HT       0.417000       1.00800           0
     29955 TIP3     3747     TIP3     OH2      OT      -0.834000       15.9994           0
     29956 TIP3     3747     TIP3     H1       HT       0.417000       1.00800           0
     29957 TIP3     3747     TIP3     H2       HT       0.417000       1.00800           0
     29958 TIP3     3748     TIP3     OH2      OT      -0.834000       15.9994           0
     29959 TIP3     3748     TIP3     H1       HT       0.417000       1.00800           0
     29960 TIP3     3748     TIP3     H2       HT       0.417000       1.00800           0
     29961 TIP3     3749     TIP3     OH2      OT      -0.834000       15.9994           0
     29962 TIP3     3749     TIP3     H1       HT       0.417000       1.00800           0
     29963 TIP3     3749     TIP3     H2       HT       0.417000       1.00800           0
     29964 TIP3     3750     TIP3     OH2      OT      -0.834000       15.9994           0
     29965 TIP3     3750     TIP3     H1       HT       0.417000       1.00800           0
     29966 TIP3     3750     TIP3     H2       HT       0.417000       1.00800           0
     29967 TIP3     3751     TIP3     OH2      OT      -0.834000       15.9994           0
     29968 TIP3     3751     TIP3     H1       HT       0.417000       1.00800           0
     29969 TIP3     3751     TIP3     H2       HT       0.417000       1.00800           0
     29970 TIP3     3752     TIP3     OH2      OT      -0.834000       15.9994           0
     29971 TIP3     3752     TIP3     H1       HT       0.417000       1.00800           0
     29972 TIP3     3752     TIP3     H2       HT       0.417000       1.00800           0
     29973 TIP3     3753     TIP3     OH2      OT      -0.834000       15.9994           0
     29974 TIP3     3753     TIP3     H1       HT       0.417000       1.00800           0
     29975 TIP3     3753     TIP3     H2       HT       0.417000       1.00800           0
     29976 TIP3     3754     TIP3     OH2      OT      -0.834000       15.9994           0
     29977 TIP3     3754     TIP3     H1       HT       0.417000       1.00800           0
     29978 TIP3     3754     TIP3     H2       HT       0.417000       1.00800           0
     29979 TIP3     3755     TIP3     OH2      OT      -0.834000       15.9994           0
     29980 TIP3     3755     TIP3     H1       HT       0.417000       1.00800           0
     29981 TIP3     3755     TIP3     H2       HT       0.417000       1.00800           0
     29982 TIP3     3756     TIP3     OH2      OT      -0.834000       15.9994           0
     29983 TIP3     3756     TIP3     H1       HT       0.417000       1.00800           0
     29984 TIP3     3756     TIP3     H2       HT       0.417000       1.00800           0
     29985 TIP3     3757     TIP3     OH2      OT      -0.834000       15.9994           0
     29986 TIP3     3757     TIP3     H1       HT       0.417000       1.00800           0
     29987 TIP3     3757     TIP3     H2       HT       0.417000       1.00800           0
     29988 TIP3     3758     TIP3     OH2      OT      -0.834000       15.9994           0
     29989 TIP3     3758     TIP3     H1       HT       0.417000       1.00800           0
     29990 TIP3     3758     TIP3     H2       HT       0.417000       1.00800           0
     29991 TIP3     3759     TIP3     OH2      OT      -0.834000       15.9994           0
     29992 TIP3     3759     TIP3     H1       HT       0.417000       1.00800           0
     29993 TIP3     3759     TIP3     H2       HT       0.417000       1.00800           0
     29994 TIP3     3760     TIP3     OH2      OT      -0.834000       15.9994           0
     29995 TIP3     3760     TIP3     H1       HT       0.417000       1.00800           0
     29996 TIP3     3760     TIP3     H2       HT       0.417000       1.00800           0
     29997 TIP3     3761     TIP3     OH2      OT      -0.834000       15.9994           0
     29998 TIP3     3761     TIP3     H1       HT       0.417000       1.00800           0
     29999 TIP3     3761     TIP3     H2       HT       0.417000       1.00800           0
     30000 TIP3     3762     TIP3     OH2      OT      -0.834000       15.9994           0
     30001 TIP3     3762     TIP3     H1       HT       0.417000       1.00800           0
     30002 TIP3     3762     TIP3     H2       HT       0.417000       1.00800           0
     30003 TIP3     3763     TIP3     OH2      OT      -0.834000       15.9994           0
     30004 TIP3     3763     TIP3     H1       HT       0.417000       1.00800           0
     30005 TIP3     3763     TIP3     H2       HT       0.417000       1.00800           0
     30006 TIP3     3764     TIP3     OH2      OT      -0.834000       15.9994           0
     30007 TIP3     3764     TIP3     H1       HT       0.417000       1.00800           0
     30008 TIP3     3764     TIP3     H2       HT       0.417000       1.00800           0
     30009 TIP3     3765     TIP3     OH2      OT      -0.834000       15.9994           0
     30010 TIP3     3765     TIP3     H1       HT       0.417000       1.00800           0
     30011 TIP3     3765     TIP3     H2       HT       0.417000       1.00800           0
     30012 TIP3     3766     TIP3     OH2      OT      -0.834000       15.9994           0
     30013 TIP3     3766     TIP3     H1       HT       0.417000       1.00800           0
     30014 TIP3     3766     TIP3     H2       HT       0.417000       1.00800           0
     30015 TIP3     3767     TIP3     OH2      OT      -0.834000       15.9994           0
     30016 TIP3     3767     TIP3     H1       HT       0.417000       1.00800           0
     30017 TIP3     3767     TIP3     H2       HT       0.417000       1.00800           0
     30018 TIP3     3768     TIP3     OH2      OT      -0.834000       15.9994           0
     30019 TIP3     3768     TIP3     H1       HT       0.417000       1.00800           0
     30020 TIP3     3768     TIP3     H2       HT       0.417000       1.00800           0
     30021 TIP3     3769     TIP3     OH2      OT      -0.834000       15.9994           0
     30022 TIP3     3769     TIP3     H1       HT       0.417000       1.00800           0
     30023 TIP3     3769     TIP3     H2       HT       0.417000       1.00800           0
     30024 TIP3     3770     TIP3     OH2      OT      -0.834000       15.9994           0
     30025 TIP3     3770     TIP3     H1       HT       0.417000       1.00800           0
     30026 TIP3     3770     TIP3     H2       HT       0.417000       1.00800           0
     30027 TIP3     3771     TIP3     OH2      OT      -0.834000       15.9994           0
     30028 TIP3     3771     TIP3     H1       HT       0.417000       1.00800           0
     30029 TIP3     3771     TIP3     H2       HT       0.417000       1.00800           0
     30030 TIP3     3772     TIP3     OH2      OT      -0.834000       15.9994           0
     30031 TIP3     3772     TIP3     H1       HT       0.417000       1.00800           0
     30032 TIP3     3772     TIP3     H2       HT       0.417000       1.00800           0
     30033 TIP3     3773     TIP3     OH2      OT      -0.834000       15.9994           0
     30034 TIP3     3773     TIP3     H1       HT       0.417000       1.00800           0
     30035 TIP3     3773     TIP3     H2       HT       0.417000       1.00800           0
     30036 TIP3     3774     TIP3     OH2      OT      -0.834000       15.9994           0
     30037 TIP3     3774     TIP3     H1       HT       0.417000       1.00800           0
     30038 TIP3     3774     TIP3     H2       HT       0.417000       1.00800           0
     30039 TIP3     3775     TIP3     OH2      OT      -0.834000       15.9994           0
     30040 TIP3     3775     TIP3     H1       HT       0.417000       1.00800           0
     30041 TIP3     3775     TIP3     H2       HT       0.417000       1.00800           0
     30042 TIP3     3776     TIP3     OH2      OT      -0.834000       15.9994           0
     30043 TIP3     3776     TIP3     H1       HT       0.417000       1.00800           0
     30044 TIP3     3776     TIP3     H2       HT       0.417000       1.00800           0
     30045 TIP3     3777     TIP3     OH2      OT      -0.834000       15.9994           0
     30046 TIP3     3777     TIP3     H1       HT       0.417000       1.00800           0
     30047 TIP3     3777     TIP3     H2       HT       0.417000       1.00800           0
     30048 TIP3     3778     TIP3     OH2      OT      -0.834000       15.9994           0
     30049 TIP3     3778     TIP3     H1       HT       0.417000       1.00800           0
     30050 TIP3     3778     TIP3     H2       HT       0.417000       1.00800           0
     30051 TIP3     3779     TIP3     OH2      OT      -0.834000       15.9994           0
     30052 TIP3     3779     TIP3     H1       HT       0.417000       1.00800           0
     30053 TIP3     3779     TIP3     H2       HT       0.417000       1.00800           0
     30054 TIP3     3780     TIP3     OH2      OT      -0.834000       15.9994           0
     30055 TIP3     3780     TIP3     H1       HT       0.417000       1.00800           0
     30056 TIP3     3780     TIP3     H2       HT       0.417000       1.00800           0
     30057 TIP3     3781     TIP3     OH2      OT      -0.834000       15.9994           0
     30058 TIP3     3781     TIP3     H1       HT       0.417000       1.00800           0
     30059 TIP3     3781     TIP3     H2       HT       0.417000       1.00800           0
     30060 TIP3     3782     TIP3     OH2      OT      -0.834000       15.9994           0
     30061 TIP3     3782     TIP3     H1       HT       0.417000       1.00800           0
     30062 TIP3     3782     TIP3     H2       HT       0.417000       1.00800           0
     30063 TIP3     3783     TIP3     OH2      OT      -0.834000       15.9994           0
     30064 TIP3     3783     TIP3     H1       HT       0.417000       1.00800           0
     30065 TIP3     3783     TIP3     H2       HT       0.417000       1.00800           0
     30066 TIP3     3784     TIP3     OH2      OT      -0.834000       15.9994           0
     30067 TIP3     3784     TIP3     H1       HT       0.417000       1.00800           0
     30068 TIP3     3784     TIP3     H2       HT       0.417000       1.00800           0
     30069 TIP3     3785     TIP3     OH2      OT      -0.834000       15.9994           0
     30070 TIP3     3785     TIP3     H1       HT       0.417000       1.00800           0
     30071 TIP3     3785     TIP3     H2       HT       0.417000       1.00800           0
     30072 TIP3     3786     TIP3     OH2      OT      -0.834000       15.9994           0
     30073 TIP3     3786     TIP3     H1       HT       0.417000       1.00800           0
     30074 TIP3     3786     TIP3     H2       HT       0.417000       1.00800           0
     30075 TIP3     3787     TIP3     OH2      OT      -0.834000       15.9994           0
     30076 TIP3     3787     TIP3     H1       HT       0.417000       1.00800           0
     30077 TIP3     3787     TIP3     H2       HT       0.417000       1.00800           0
     30078 TIP3     3788     TIP3     OH2      OT      -0.834000       15.9994           0
     30079 TIP3     3788     TIP3     H1       HT       0.417000       1.00800           0
     30080 TIP3     3788     TIP3     H2       HT       0.417000       1.00800           0
     30081 TIP3     3789     TIP3     OH2      OT      -0.834000       15.9994           0
     30082 TIP3     3789     TIP3     H1       HT       0.417000       1.00800           0
     30083 TIP3     3789     TIP3     H2       HT       0.417000       1.00800           0
     30084 TIP3     3790     TIP3     OH2      OT      -0.834000       15.9994           0
     30085 TIP3     3790     TIP3     H1       HT       0.417000       1.00800           0
     30086 TIP3     3790     TIP3     H2       HT       0.417000       1.00800           0
     30087 TIP3     3791     TIP3     OH2      OT      -0.834000       15.9994           0
     30088 TIP3     3791     TIP3     H1       HT       0.417000       1.00800           0
     30089 TIP3     3791     TIP3     H2       HT       0.417000       1.00800           0
     30090 TIP3     3792     TIP3     OH2      OT      -0.834000       15.9994           0
     30091 TIP3     3792     TIP3     H1       HT       0.417000       1.00800           0
     30092 TIP3     3792     TIP3     H2       HT       0.417000       1.00800           0
     30093 TIP3     3793     TIP3     OH2      OT      -0.834000       15.9994           0
     30094 TIP3     3793     TIP3     H1       HT       0.417000       1.00800           0
     30095 TIP3     3793     TIP3     H2       HT       0.417000       1.00800           0
     30096 TIP3     3794     TIP3     OH2      OT      -0.834000       15.9994           0
     30097 TIP3     3794     TIP3     H1       HT       0.417000       1.00800           0
     30098 TIP3     3794     TIP3     H2       HT       0.417000       1.00800           0
     30099 TIP3     3795     TIP3     OH2      OT      -0.834000       15.9994           0
     30100 TIP3     3795     TIP3     H1       HT       0.417000       1.00800           0
     30101 TIP3     3795     TIP3     H2       HT       0.417000       1.00800           0
     30102 TIP3     3796     TIP3     OH2      OT      -0.834000       15.9994           0
     30103 TIP3     3796     TIP3     H1       HT       0.417000       1.00800           0
     30104 TIP3     3796     TIP3     H2       HT       0.417000       1.00800           0
     30105 TIP3     3797     TIP3     OH2      OT      -0.834000       15.9994           0
     30106 TIP3     3797     TIP3     H1       HT       0.417000       1.00800           0
     30107 TIP3     3797     TIP3     H2       HT       0.417000       1.00800           0
     30108 TIP3     3798     TIP3     OH2      OT      -0.834000       15.9994           0
     30109 TIP3     3798     TIP3     H1       HT       0.417000       1.00800           0
     30110 TIP3     3798     TIP3     H2       HT       0.417000       1.00800           0
     30111 TIP3     3799     TIP3     OH2      OT      -0.834000       15.9994           0
     30112 TIP3     3799     TIP3     H1       HT       0.417000       1.00800           0
     30113 TIP3     3799     TIP3     H2       HT       0.417000       1.00800           0
     30114 TIP3     3800     TIP3     OH2      OT      -0.834000       15.9994           0
     30115 TIP3     3800     TIP3     H1       HT       0.417000       1.00800           0
     30116 TIP3     3800     TIP3     H2       HT       0.417000       1.00800           0
     30117 TIP3     3801     TIP3     OH2      OT      -0.834000       15.9994           0
     30118 TIP3     3801     TIP3     H1       HT       0.417000       1.00800           0
     30119 TIP3     3801     TIP3     H2       HT       0.417000       1.00800           0
     30120 TIP3     3802     TIP3     OH2      OT      -0.834000       15.9994           0
     30121 TIP3     3802     TIP3     H1       HT       0.417000       1.00800           0
     30122 TIP3     3802     TIP3     H2       HT       0.417000       1.00800           0
     30123 TIP3     3803     TIP3     OH2      OT      -0.834000       15.9994           0
     30124 TIP3     3803     TIP3     H1       HT       0.417000       1.00800           0
     30125 TIP3     3803     TIP3     H2       HT       0.417000       1.00800           0
     30126 TIP3     3804     TIP3     OH2      OT      -0.834000       15.9994           0
     30127 TIP3     3804     TIP3     H1       HT       0.417000       1.00800           0
     30128 TIP3     3804     TIP3     H2       HT       0.417000       1.00800           0
     30129 TIP3     3805     TIP3     OH2      OT      -0.834000       15.9994           0
     30130 TIP3     3805     TIP3     H1       HT       0.417000       1.00800           0
     30131 TIP3     3805     TIP3     H2       HT       0.417000       1.00800           0
     30132 TIP3     3806     TIP3     OH2      OT      -0.834000       15.9994           0
     30133 TIP3     3806     TIP3     H1       HT       0.417000       1.00800           0
     30134 TIP3     3806     TIP3     H2       HT       0.417000       1.00800           0
     30135 TIP3     3807     TIP3     OH2      OT      -0.834000       15.9994           0
     30136 TIP3     3807     TIP3     H1       HT       0.417000       1.00800           0
     30137 TIP3     3807     TIP3     H2       HT       0.417000       1.00800           0
     30138 TIP3     3808     TIP3     OH2      OT      -0.834000       15.9994           0
     30139 TIP3     3808     TIP3     H1       HT       0.417000       1.00800           0
     30140 TIP3     3808     TIP3     H2       HT       0.417000       1.00800           0
     30141 TIP3     3809     TIP3     OH2      OT      -0.834000       15.9994           0
     30142 TIP3     3809     TIP3     H1       HT       0.417000       1.00800           0
     30143 TIP3     3809     TIP3     H2       HT       0.417000       1.00800           0
     30144 TIP3     3810     TIP3     OH2      OT      -0.834000       15.9994           0
     30145 TIP3     3810     TIP3     H1       HT       0.417000       1.00800           0
     30146 TIP3     3810     TIP3     H2       HT       0.417000       1.00800           0
     30147 TIP3     3811     TIP3     OH2      OT      -0.834000       15.9994           0
     30148 TIP3     3811     TIP3     H1       HT       0.417000       1.00800           0
     30149 TIP3     3811     TIP3     H2       HT       0.417000       1.00800           0
     30150 TIP3     3812     TIP3     OH2      OT      -0.834000       15.9994           0
     30151 TIP3     3812     TIP3     H1       HT       0.417000       1.00800           0
     30152 TIP3     3812     TIP3     H2       HT       0.417000       1.00800           0
     30153 TIP3     3813     TIP3     OH2      OT      -0.834000       15.9994           0
     30154 TIP3     3813     TIP3     H1       HT       0.417000       1.00800           0
     30155 TIP3     3813     TIP3     H2       HT       0.417000       1.00800           0
     30156 TIP3     3814     TIP3     OH2      OT      -0.834000       15.9994           0
     30157 TIP3     3814     TIP3     H1       HT       0.417000       1.00800           0
     30158 TIP3     3814     TIP3     H2       HT       0.417000       1.00800           0
     30159 TIP3     3815     TIP3     OH2      OT      -0.834000       15.9994           0
     30160 TIP3     3815     TIP3     H1       HT       0.417000       1.00800           0
     30161 TIP3     3815     TIP3     H2       HT       0.417000       1.00800           0
     30162 TIP3     3816     TIP3     OH2      OT      -0.834000       15.9994           0
     30163 TIP3     3816     TIP3     H1       HT       0.417000       1.00800           0
     30164 TIP3     3816     TIP3     H2       HT       0.417000       1.00800           0
     30165 TIP3     3817     TIP3     OH2      OT      -0.834000       15.9994           0
     30166 TIP3     3817     TIP3     H1       HT       0.417000       1.00800           0
     30167 TIP3     3817     TIP3     H2       HT       0.417000       1.00800           0
     30168 TIP3     3818     TIP3     OH2      OT      -0.834000       15.9994           0
     30169 TIP3     3818     TIP3     H1       HT       0.417000       1.00800           0
     30170 TIP3     3818     TIP3     H2       HT       0.417000       1.00800           0
     30171 TIP3     3819     TIP3     OH2      OT      -0.834000       15.9994           0
     30172 TIP3     3819     TIP3     H1       HT       0.417000       1.00800           0
     30173 TIP3     3819     TIP3     H2       HT       0.417000       1.00800           0
     30174 TIP3     3820     TIP3     OH2      OT      -0.834000       15.9994           0
     30175 TIP3     3820     TIP3     H1       HT       0.417000       1.00800           0
     30176 TIP3     3820     TIP3     H2       HT       0.417000       1.00800           0
     30177 TIP3     3821     TIP3     OH2      OT      -0.834000       15.9994           0
     30178 TIP3     3821     TIP3     H1       HT       0.417000       1.00800           0
     30179 TIP3     3821     TIP3     H2       HT       0.417000       1.00800           0
     30180 TIP3     3822     TIP3     OH2      OT      -0.834000       15.9994           0
     30181 TIP3     3822     TIP3     H1       HT       0.417000       1.00800           0
     30182 TIP3     3822     TIP3     H2       HT       0.417000       1.00800           0
     30183 TIP3     3823     TIP3     OH2      OT      -0.834000       15.9994           0
     30184 TIP3     3823     TIP3     H1       HT       0.417000       1.00800           0
     30185 TIP3     3823     TIP3     H2       HT       0.417000       1.00800           0
     30186 TIP3     3824     TIP3     OH2      OT      -0.834000       15.9994           0
     30187 TIP3     3824     TIP3     H1       HT       0.417000       1.00800           0
     30188 TIP3     3824     TIP3     H2       HT       0.417000       1.00800           0
     30189 TIP3     3825     TIP3     OH2      OT      -0.834000       15.9994           0
     30190 TIP3     3825     TIP3     H1       HT       0.417000       1.00800           0
     30191 TIP3     3825     TIP3     H2       HT       0.417000       1.00800           0
     30192 TIP3     3826     TIP3     OH2      OT      -0.834000       15.9994           0
     30193 TIP3     3826     TIP3     H1       HT       0.417000       1.00800           0
     30194 TIP3     3826     TIP3     H2       HT       0.417000       1.00800           0
     30195 TIP3     3827     TIP3     OH2      OT      -0.834000       15.9994           0
     30196 TIP3     3827     TIP3     H1       HT       0.417000       1.00800           0
     30197 TIP3     3827     TIP3     H2       HT       0.417000       1.00800           0
     30198 TIP3     3828     TIP3     OH2      OT      -0.834000       15.9994           0
     30199 TIP3     3828     TIP3     H1       HT       0.417000       1.00800           0
     30200 TIP3     3828     TIP3     H2       HT       0.417000       1.00800           0
     30201 TIP3     3829     TIP3     OH2      OT      -0.834000       15.9994           0
     30202 TIP3     3829     TIP3     H1       HT       0.417000       1.00800           0
     30203 TIP3     3829     TIP3     H2       HT       0.417000       1.00800           0
     30204 TIP3     3830     TIP3     OH2      OT      -0.834000       15.9994           0
     30205 TIP3     3830     TIP3     H1       HT       0.417000       1.00800           0
     30206 TIP3     3830     TIP3     H2       HT       0.417000       1.00800           0
     30207 TIP3     3831     TIP3     OH2      OT      -0.834000       15.9994           0
     30208 TIP3     3831     TIP3     H1       HT       0.417000       1.00800           0
     30209 TIP3     3831     TIP3     H2       HT       0.417000       1.00800           0
     30210 TIP3     3832     TIP3     OH2      OT      -0.834000       15.9994           0
     30211 TIP3     3832     TIP3     H1       HT       0.417000       1.00800           0
     30212 TIP3     3832     TIP3     H2       HT       0.417000       1.00800           0
     30213 TIP3     3833     TIP3     OH2      OT      -0.834000       15.9994           0
     30214 TIP3     3833     TIP3     H1       HT       0.417000       1.00800           0
     30215 TIP3     3833     TIP3     H2       HT       0.417000       1.00800           0
     30216 TIP3     3834     TIP3     OH2      OT      -0.834000       15.9994           0
     30217 TIP3     3834     TIP3     H1       HT       0.417000       1.00800           0
     30218 TIP3     3834     TIP3     H2       HT       0.417000       1.00800           0
     30219 TIP3     3835     TIP3     OH2      OT      -0.834000       15.9994           0
     30220 TIP3     3835     TIP3     H1       HT       0.417000       1.00800           0
     30221 TIP3     3835     TIP3     H2       HT       0.417000       1.00800           0
     30222 TIP3     3836     TIP3     OH2      OT      -0.834000       15.9994           0
     30223 TIP3     3836     TIP3     H1       HT       0.417000       1.00800           0
     30224 TIP3     3836     TIP3     H2       HT       0.417000       1.00800           0
     30225 TIP3     3837     TIP3     OH2      OT      -0.834000       15.9994           0
     30226 TIP3     3837     TIP3     H1       HT       0.417000       1.00800           0
     30227 TIP3     3837     TIP3     H2       HT       0.417000       1.00800           0
     30228 TIP3     3838     TIP3     OH2      OT      -0.834000       15.9994           0
     30229 TIP3     3838     TIP3     H1       HT       0.417000       1.00800           0
     30230 TIP3     3838     TIP3     H2       HT       0.417000       1.00800           0
     30231 TIP3     3839     TIP3     OH2      OT      -0.834000       15.9994           0
     30232 TIP3     3839     TIP3     H1       HT       0.417000       1.00800           0
     30233 TIP3     3839     TIP3     H2       HT       0.417000       1.00800           0
     30234 TIP3     3840     TIP3     OH2      OT      -0.834000       15.9994           0
     30235 TIP3     3840     TIP3     H1       HT       0.417000       1.00800           0
     30236 TIP3     3840     TIP3     H2       HT       0.417000       1.00800           0
     30237 TIP3     3841     TIP3     OH2      OT      -0.834000       15.9994           0
     30238 TIP3     3841     TIP3     H1       HT       0.417000       1.00800           0
     30239 TIP3     3841     TIP3     H2       HT       0.417000       1.00800           0
     30240 TIP3     3842     TIP3     OH2      OT      -0.834000       15.9994           0
     30241 TIP3     3842     TIP3     H1       HT       0.417000       1.00800           0
     30242 TIP3     3842     TIP3     H2       HT       0.417000       1.00800           0
     30243 TIP3     3843     TIP3     OH2      OT      -0.834000       15.9994           0
     30244 TIP3     3843     TIP3     H1       HT       0.417000       1.00800           0
     30245 TIP3     3843     TIP3     H2       HT       0.417000       1.00800           0
     30246 TIP3     3844     TIP3     OH2      OT      -0.834000       15.9994           0
     30247 TIP3     3844     TIP3     H1       HT       0.417000       1.00800           0
     30248 TIP3     3844     TIP3     H2       HT       0.417000       1.00800           0
     30249 TIP3     3845     TIP3     OH2      OT      -0.834000       15.9994           0
     30250 TIP3     3845     TIP3     H1       HT       0.417000       1.00800           0
     30251 TIP3     3845     TIP3     H2       HT       0.417000       1.00800           0
     30252 TIP3     3846     TIP3     OH2      OT      -0.834000       15.9994           0
     30253 TIP3     3846     TIP3     H1       HT       0.417000       1.00800           0
     30254 TIP3     3846     TIP3     H2       HT       0.417000       1.00800           0
     30255 TIP3     3847     TIP3     OH2      OT      -0.834000       15.9994           0
     30256 TIP3     3847     TIP3     H1       HT       0.417000       1.00800           0
     30257 TIP3     3847     TIP3     H2       HT       0.417000       1.00800           0
     30258 TIP3     3848     TIP3     OH2      OT      -0.834000       15.9994           0
     30259 TIP3     3848     TIP3     H1       HT       0.417000       1.00800           0
     30260 TIP3     3848     TIP3     H2       HT       0.417000       1.00800           0
     30261 TIP3     3849     TIP3     OH2      OT      -0.834000       15.9994           0
     30262 TIP3     3849     TIP3     H1       HT       0.417000       1.00800           0
     30263 TIP3     3849     TIP3     H2       HT       0.417000       1.00800           0
     30264 TIP3     3850     TIP3     OH2      OT      -0.834000       15.9994           0
     30265 TIP3     3850     TIP3     H1       HT       0.417000       1.00800           0
     30266 TIP3     3850     TIP3     H2       HT       0.417000       1.00800           0
     30267 TIP3     3851     TIP3     OH2      OT      -0.834000       15.9994           0
     30268 TIP3     3851     TIP3     H1       HT       0.417000       1.00800           0
     30269 TIP3     3851     TIP3     H2       HT       0.417000       1.00800           0
     30270 TIP3     3852     TIP3     OH2      OT      -0.834000       15.9994           0
     30271 TIP3     3852     TIP3     H1       HT       0.417000       1.00800           0
     30272 TIP3     3852     TIP3     H2       HT       0.417000       1.00800           0
     30273 TIP3     3853     TIP3     OH2      OT      -0.834000       15.9994           0
     30274 TIP3     3853     TIP3     H1       HT       0.417000       1.00800           0
     30275 TIP3     3853     TIP3     H2       HT       0.417000       1.00800           0
     30276 TIP3     3854     TIP3     OH2      OT      -0.834000       15.9994           0
     30277 TIP3     3854     TIP3     H1       HT       0.417000       1.00800           0
     30278 TIP3     3854     TIP3     H2       HT       0.417000       1.00800           0
     30279 TIP3     3855     TIP3     OH2      OT      -0.834000       15.9994           0
     30280 TIP3     3855     TIP3     H1       HT       0.417000       1.00800           0
     30281 TIP3     3855     TIP3     H2       HT       0.417000       1.00800           0
     30282 TIP3     3856     TIP3     OH2      OT      -0.834000       15.9994           0
     30283 TIP3     3856     TIP3     H1       HT       0.417000       1.00800           0
     30284 TIP3     3856     TIP3     H2       HT       0.417000       1.00800           0
     30285 TIP3     3857     TIP3     OH2      OT      -0.834000       15.9994           0
     30286 TIP3     3857     TIP3     H1       HT       0.417000       1.00800           0
     30287 TIP3     3857     TIP3     H2       HT       0.417000       1.00800           0
     30288 TIP3     3858     TIP3     OH2      OT      -0.834000       15.9994           0
     30289 TIP3     3858     TIP3     H1       HT       0.417000       1.00800           0
     30290 TIP3     3858     TIP3     H2       HT       0.417000       1.00800           0
     30291 TIP3     3859     TIP3     OH2      OT      -0.834000       15.9994           0
     30292 TIP3     3859     TIP3     H1       HT       0.417000       1.00800           0
     30293 TIP3     3859     TIP3     H2       HT       0.417000       1.00800           0
     30294 TIP3     3860     TIP3     OH2      OT      -0.834000       15.9994           0
     30295 TIP3     3860     TIP3     H1       HT       0.417000       1.00800           0
     30296 TIP3     3860     TIP3     H2       HT       0.417000       1.00800           0
     30297 TIP3     3861     TIP3     OH2      OT      -0.834000       15.9994           0
     30298 TIP3     3861     TIP3     H1       HT       0.417000       1.00800           0
     30299 TIP3     3861     TIP3     H2       HT       0.417000       1.00800           0
     30300 TIP3     3862     TIP3     OH2      OT      -0.834000       15.9994           0
     30301 TIP3     3862     TIP3     H1       HT       0.417000       1.00800           0
     30302 TIP3     3862     TIP3     H2       HT       0.417000       1.00800           0
     30303 TIP3     3863     TIP3     OH2      OT      -0.834000       15.9994           0
     30304 TIP3     3863     TIP3     H1       HT       0.417000       1.00800           0
     30305 TIP3     3863     TIP3     H2       HT       0.417000       1.00800           0
     30306 TIP3     3864     TIP3     OH2      OT      -0.834000       15.9994           0
     30307 TIP3     3864     TIP3     H1       HT       0.417000       1.00800           0
     30308 TIP3     3864     TIP3     H2       HT       0.417000       1.00800           0
     30309 TIP3     3865     TIP3     OH2      OT      -0.834000       15.9994           0
     30310 TIP3     3865     TIP3     H1       HT       0.417000       1.00800           0
     30311 TIP3     3865     TIP3     H2       HT       0.417000       1.00800           0
     30312 TIP3     3866     TIP3     OH2      OT      -0.834000       15.9994           0
     30313 TIP3     3866     TIP3     H1       HT       0.417000       1.00800           0
     30314 TIP3     3866     TIP3     H2       HT       0.417000       1.00800           0
     30315 TIP3     3867     TIP3     OH2      OT      -0.834000       15.9994           0
     30316 TIP3     3867     TIP3     H1       HT       0.417000       1.00800           0
     30317 TIP3     3867     TIP3     H2       HT       0.417000       1.00800           0
     30318 TIP3     3868     TIP3     OH2      OT      -0.834000       15.9994           0
     30319 TIP3     3868     TIP3     H1       HT       0.417000       1.00800           0
     30320 TIP3     3868     TIP3     H2       HT       0.417000       1.00800           0
     30321 TIP3     3869     TIP3     OH2      OT      -0.834000       15.9994           0
     30322 TIP3     3869     TIP3     H1       HT       0.417000       1.00800           0
     30323 TIP3     3869     TIP3     H2       HT       0.417000       1.00800           0
     30324 TIP3     3870     TIP3     OH2      OT      -0.834000       15.9994           0
     30325 TIP3     3870     TIP3     H1       HT       0.417000       1.00800           0
     30326 TIP3     3870     TIP3     H2       HT       0.417000       1.00800           0
     30327 TIP3     3871     TIP3     OH2      OT      -0.834000       15.9994           0
     30328 TIP3     3871     TIP3     H1       HT       0.417000       1.00800           0
     30329 TIP3     3871     TIP3     H2       HT       0.417000       1.00800           0
     30330 TIP3     3872     TIP3     OH2      OT      -0.834000       15.9994           0
     30331 TIP3     3872     TIP3     H1       HT       0.417000       1.00800           0
     30332 TIP3     3872     TIP3     H2       HT       0.417000       1.00800           0
     30333 TIP3     3873     TIP3     OH2      OT      -0.834000       15.9994           0
     30334 TIP3     3873     TIP3     H1       HT       0.417000       1.00800           0
     30335 TIP3     3873     TIP3     H2       HT       0.417000       1.00800           0
     30336 TIP3     3874     TIP3     OH2      OT      -0.834000       15.9994           0
     30337 TIP3     3874     TIP3     H1       HT       0.417000       1.00800           0
     30338 TIP3     3874     TIP3     H2       HT       0.417000       1.00800           0
     30339 TIP3     3875     TIP3     OH2      OT      -0.834000       15.9994           0
     30340 TIP3     3875     TIP3     H1       HT       0.417000       1.00800           0
     30341 TIP3     3875     TIP3     H2       HT       0.417000       1.00800           0
     30342 TIP3     3876     TIP3     OH2      OT      -0.834000       15.9994           0
     30343 TIP3     3876     TIP3     H1       HT       0.417000       1.00800           0
     30344 TIP3     3876     TIP3     H2       HT       0.417000       1.00800           0
     30345 TIP3     3877     TIP3     OH2      OT      -0.834000       15.9994           0
     30346 TIP3     3877     TIP3     H1       HT       0.417000       1.00800           0
     30347 TIP3     3877     TIP3     H2       HT       0.417000       1.00800           0
     30348 TIP3     3878     TIP3     OH2      OT      -0.834000       15.9994           0
     30349 TIP3     3878     TIP3     H1       HT       0.417000       1.00800           0
     30350 TIP3     3878     TIP3     H2       HT       0.417000       1.00800           0
     30351 TIP3     3879     TIP3     OH2      OT      -0.834000       15.9994           0
     30352 TIP3     3879     TIP3     H1       HT       0.417000       1.00800           0
     30353 TIP3     3879     TIP3     H2       HT       0.417000       1.00800           0
     30354 TIP3     3880     TIP3     OH2      OT      -0.834000       15.9994           0
     30355 TIP3     3880     TIP3     H1       HT       0.417000       1.00800           0
     30356 TIP3     3880     TIP3     H2       HT       0.417000       1.00800           0
     30357 TIP3     3881     TIP3     OH2      OT      -0.834000       15.9994           0
     30358 TIP3     3881     TIP3     H1       HT       0.417000       1.00800           0
     30359 TIP3     3881     TIP3     H2       HT       0.417000       1.00800           0
     30360 TIP3     3882     TIP3     OH2      OT      -0.834000       15.9994           0
     30361 TIP3     3882     TIP3     H1       HT       0.417000       1.00800           0
     30362 TIP3     3882     TIP3     H2       HT       0.417000       1.00800           0
     30363 TIP3     3883     TIP3     OH2      OT      -0.834000       15.9994           0
     30364 TIP3     3883     TIP3     H1       HT       0.417000       1.00800           0
     30365 TIP3     3883     TIP3     H2       HT       0.417000       1.00800           0
     30366 TIP3     3884     TIP3     OH2      OT      -0.834000       15.9994           0
     30367 TIP3     3884     TIP3     H1       HT       0.417000       1.00800           0
     30368 TIP3     3884     TIP3     H2       HT       0.417000       1.00800           0
     30369 TIP3     3885     TIP3     OH2      OT      -0.834000       15.9994           0
     30370 TIP3     3885     TIP3     H1       HT       0.417000       1.00800           0
     30371 TIP3     3885     TIP3     H2       HT       0.417000       1.00800           0
     30372 TIP3     3886     TIP3     OH2      OT      -0.834000       15.9994           0
     30373 TIP3     3886     TIP3     H1       HT       0.417000       1.00800           0
     30374 TIP3     3886     TIP3     H2       HT       0.417000       1.00800           0
     30375 TIP3     3887     TIP3     OH2      OT      -0.834000       15.9994           0
     30376 TIP3     3887     TIP3     H1       HT       0.417000       1.00800           0
     30377 TIP3     3887     TIP3     H2       HT       0.417000       1.00800           0
     30378 TIP3     3888     TIP3     OH2      OT      -0.834000       15.9994           0
     30379 TIP3     3888     TIP3     H1       HT       0.417000       1.00800           0
     30380 TIP3     3888     TIP3     H2       HT       0.417000       1.00800           0
     30381 TIP3     3889     TIP3     OH2      OT      -0.834000       15.9994           0
     30382 TIP3     3889     TIP3     H1       HT       0.417000       1.00800           0
     30383 TIP3     3889     TIP3     H2       HT       0.417000       1.00800           0
     30384 TIP3     3890     TIP3     OH2      OT      -0.834000       15.9994           0
     30385 TIP3     3890     TIP3     H1       HT       0.417000       1.00800           0
     30386 TIP3     3890     TIP3     H2       HT       0.417000       1.00800           0
     30387 TIP3     3891     TIP3     OH2      OT      -0.834000       15.9994           0
     30388 TIP3     3891     TIP3     H1       HT       0.417000       1.00800           0
     30389 TIP3     3891     TIP3     H2       HT       0.417000       1.00800           0
     30390 TIP3     3892     TIP3     OH2      OT      -0.834000       15.9994           0
     30391 TIP3     3892     TIP3     H1       HT       0.417000       1.00800           0
     30392 TIP3     3892     TIP3     H2       HT       0.417000       1.00800           0
     30393 TIP3     3893     TIP3     OH2      OT      -0.834000       15.9994           0
     30394 TIP3     3893     TIP3     H1       HT       0.417000       1.00800           0
     30395 TIP3     3893     TIP3     H2       HT       0.417000       1.00800           0
     30396 TIP3     3894     TIP3     OH2      OT      -0.834000       15.9994           0
     30397 TIP3     3894     TIP3     H1       HT       0.417000       1.00800           0
     30398 TIP3     3894     TIP3     H2       HT       0.417000       1.00800           0
     30399 TIP3     3895     TIP3     OH2      OT      -0.834000       15.9994           0
     30400 TIP3     3895     TIP3     H1       HT       0.417000       1.00800           0
     30401 TIP3     3895     TIP3     H2       HT       0.417000       1.00800           0
     30402 TIP3     3896     TIP3     OH2      OT      -0.834000       15.9994           0
     30403 TIP3     3896     TIP3     H1       HT       0.417000       1.00800           0
     30404 TIP3     3896     TIP3     H2       HT       0.417000       1.00800           0
     30405 TIP3     3897     TIP3     OH2      OT      -0.834000       15.9994           0
     30406 TIP3     3897     TIP3     H1       HT       0.417000       1.00800           0
     30407 TIP3     3897     TIP3     H2       HT       0.417000       1.00800           0
     30408 TIP3     3898     TIP3     OH2      OT      -0.834000       15.9994           0
     30409 TIP3     3898     TIP3     H1       HT       0.417000       1.00800           0
     30410 TIP3     3898     TIP3     H2       HT       0.417000       1.00800           0
     30411 TIP3     3899     TIP3     OH2      OT      -0.834000       15.9994           0
     30412 TIP3     3899     TIP3     H1       HT       0.417000       1.00800           0
     30413 TIP3     3899     TIP3     H2       HT       0.417000       1.00800           0
     30414 TIP3     3900     TIP3     OH2      OT      -0.834000       15.9994           0
     30415 TIP3     3900     TIP3     H1       HT       0.417000       1.00800           0
     30416 TIP3     3900     TIP3     H2       HT       0.417000       1.00800           0
     30417 TIP3     3901     TIP3     OH2      OT      -0.834000       15.9994           0
     30418 TIP3     3901     TIP3     H1       HT       0.417000       1.00800           0
     30419 TIP3     3901     TIP3     H2       HT       0.417000       1.00800           0
     30420 TIP3     3902     TIP3     OH2      OT      -0.834000       15.9994           0
     30421 TIP3     3902     TIP3     H1       HT       0.417000       1.00800           0
     30422 TIP3     3902     TIP3     H2       HT       0.417000       1.00800           0
     30423 TIP3     3903     TIP3     OH2      OT      -0.834000       15.9994           0
     30424 TIP3     3903     TIP3     H1       HT       0.417000       1.00800           0
     30425 TIP3     3903     TIP3     H2       HT       0.417000       1.00800           0
     30426 TIP3     3904     TIP3     OH2      OT      -0.834000       15.9994           0
     30427 TIP3     3904     TIP3     H1       HT       0.417000       1.00800           0
     30428 TIP3     3904     TIP3     H2       HT       0.417000       1.00800           0
     30429 TIP3     3905     TIP3     OH2      OT      -0.834000       15.9994           0
     30430 TIP3     3905     TIP3     H1       HT       0.417000       1.00800           0
     30431 TIP3     3905     TIP3     H2       HT       0.417000       1.00800           0
     30432 TIP3     3906     TIP3     OH2      OT      -0.834000       15.9994           0
     30433 TIP3     3906     TIP3     H1       HT       0.417000       1.00800           0
     30434 TIP3     3906     TIP3     H2       HT       0.417000       1.00800           0
     30435 TIP3     3907     TIP3     OH2      OT      -0.834000       15.9994           0
     30436 TIP3     3907     TIP3     H1       HT       0.417000       1.00800           0
     30437 TIP3     3907     TIP3     H2       HT       0.417000       1.00800           0
     30438 TIP3     3908     TIP3     OH2      OT      -0.834000       15.9994           0
     30439 TIP3     3908     TIP3     H1       HT       0.417000       1.00800           0
     30440 TIP3     3908     TIP3     H2       HT       0.417000       1.00800           0
     30441 TIP3     3909     TIP3     OH2      OT      -0.834000       15.9994           0
     30442 TIP3     3909     TIP3     H1       HT       0.417000       1.00800           0
     30443 TIP3     3909     TIP3     H2       HT       0.417000       1.00800           0
     30444 TIP3     3910     TIP3     OH2      OT      -0.834000       15.9994           0
     30445 TIP3     3910     TIP3     H1       HT       0.417000       1.00800           0
     30446 TIP3     3910     TIP3     H2       HT       0.417000       1.00800           0
     30447 TIP3     3911     TIP3     OH2      OT      -0.834000       15.9994           0
     30448 TIP3     3911     TIP3     H1       HT       0.417000       1.00800           0
     30449 TIP3     3911     TIP3     H2       HT       0.417000       1.00800           0
     30450 TIP3     3912     TIP3     OH2      OT      -0.834000       15.9994           0
     30451 TIP3     3912     TIP3     H1       HT       0.417000       1.00800           0
     30452 TIP3     3912     TIP3     H2       HT       0.417000       1.00800           0
     30453 TIP3     3913     TIP3     OH2      OT      -0.834000       15.9994           0
     30454 TIP3     3913     TIP3     H1       HT       0.417000       1.00800           0
     30455 TIP3     3913     TIP3     H2       HT       0.417000       1.00800           0
     30456 TIP3     3914     TIP3     OH2      OT      -0.834000       15.9994           0
     30457 TIP3     3914     TIP3     H1       HT       0.417000       1.00800           0
     30458 TIP3     3914     TIP3     H2       HT       0.417000       1.00800           0
     30459 TIP3     3915     TIP3     OH2      OT      -0.834000       15.9994           0
     30460 TIP3     3915     TIP3     H1       HT       0.417000       1.00800           0
     30461 TIP3     3915     TIP3     H2       HT       0.417000       1.00800           0
     30462 TIP3     3916     TIP3     OH2      OT      -0.834000       15.9994           0
     30463 TIP3     3916     TIP3     H1       HT       0.417000       1.00800           0
     30464 TIP3     3916     TIP3     H2       HT       0.417000       1.00800           0
     30465 TIP3     3917     TIP3     OH2      OT      -0.834000       15.9994           0
     30466 TIP3     3917     TIP3     H1       HT       0.417000       1.00800           0
     30467 TIP3     3917     TIP3     H2       HT       0.417000       1.00800           0
     30468 TIP3     3918     TIP3     OH2      OT      -0.834000       15.9994           0
     30469 TIP3     3918     TIP3     H1       HT       0.417000       1.00800           0
     30470 TIP3     3918     TIP3     H2       HT       0.417000       1.00800           0
     30471 TIP3     3919     TIP3     OH2      OT      -0.834000       15.9994           0
     30472 TIP3     3919     TIP3     H1       HT       0.417000       1.00800           0
     30473 TIP3     3919     TIP3     H2       HT       0.417000       1.00800           0
     30474 TIP3     3920     TIP3     OH2      OT      -0.834000       15.9994           0
     30475 TIP3     3920     TIP3     H1       HT       0.417000       1.00800           0
     30476 TIP3     3920     TIP3     H2       HT       0.417000       1.00800           0
     30477 TIP3     3921     TIP3     OH2      OT      -0.834000       15.9994           0
     30478 TIP3     3921     TIP3     H1       HT       0.417000       1.00800           0
     30479 TIP3     3921     TIP3     H2       HT       0.417000       1.00800           0
     30480 TIP3     3922     TIP3     OH2      OT      -0.834000       15.9994           0
     30481 TIP3     3922     TIP3     H1       HT       0.417000       1.00800           0
     30482 TIP3     3922     TIP3     H2       HT       0.417000       1.00800           0
     30483 TIP3     3923     TIP3     OH2      OT      -0.834000       15.9994           0
     30484 TIP3     3923     TIP3     H1       HT       0.417000       1.00800           0
     30485 TIP3     3923     TIP3     H2       HT       0.417000       1.00800           0
     30486 TIP3     3924     TIP3     OH2      OT      -0.834000       15.9994           0
     30487 TIP3     3924     TIP3     H1       HT       0.417000       1.00800           0
     30488 TIP3     3924     TIP3     H2       HT       0.417000       1.00800           0
     30489 TIP3     3925     TIP3     OH2      OT      -0.834000       15.9994           0
     30490 TIP3     3925     TIP3     H1       HT       0.417000       1.00800           0
     30491 TIP3     3925     TIP3     H2       HT       0.417000       1.00800           0
     30492 TIP3     3926     TIP3     OH2      OT      -0.834000       15.9994           0
     30493 TIP3     3926     TIP3     H1       HT       0.417000       1.00800           0
     30494 TIP3     3926     TIP3     H2       HT       0.417000       1.00800           0
     30495 TIP3     3927     TIP3     OH2      OT      -0.834000       15.9994           0
     30496 TIP3     3927     TIP3     H1       HT       0.417000       1.00800           0
     30497 TIP3     3927     TIP3     H2       HT       0.417000       1.00800           0
     30498 TIP3     3928     TIP3     OH2      OT      -0.834000       15.9994           0
     30499 TIP3     3928     TIP3     H1       HT       0.417000       1.00800           0
     30500 TIP3     3928     TIP3     H2       HT       0.417000       1.00800           0
     30501 TIP3     3929     TIP3     OH2      OT      -0.834000       15.9994           0
     30502 TIP3     3929     TIP3     H1       HT       0.417000       1.00800           0
     30503 TIP3     3929     TIP3     H2       HT       0.417000       1.00800           0
     30504 TIP3     3930     TIP3     OH2      OT      -0.834000       15.9994           0
     30505 TIP3     3930     TIP3     H1       HT       0.417000       1.00800           0
     30506 TIP3     3930     TIP3     H2       HT       0.417000       1.00800           0
     30507 TIP3     3931     TIP3     OH2      OT      -0.834000       15.9994           0
     30508 TIP3     3931     TIP3     H1       HT       0.417000       1.00800           0
     30509 TIP3     3931     TIP3     H2       HT       0.417000       1.00800           0
     30510 TIP3     3932     TIP3     OH2      OT      -0.834000       15.9994           0
     30511 TIP3     3932     TIP3     H1       HT       0.417000       1.00800           0
     30512 TIP3     3932     TIP3     H2       HT       0.417000       1.00800           0
     30513 TIP3     3933     TIP3     OH2      OT      -0.834000       15.9994           0
     30514 TIP3     3933     TIP3     H1       HT       0.417000       1.00800           0
     30515 TIP3     3933     TIP3     H2       HT       0.417000       1.00800           0
     30516 TIP3     3934     TIP3     OH2      OT      -0.834000       15.9994           0
     30517 TIP3     3934     TIP3     H1       HT       0.417000       1.00800           0
     30518 TIP3     3934     TIP3     H2       HT       0.417000       1.00800           0
     30519 TIP3     3935     TIP3     OH2      OT      -0.834000       15.9994           0
     30520 TIP3     3935     TIP3     H1       HT       0.417000       1.00800           0
     30521 TIP3     3935     TIP3     H2       HT       0.417000       1.00800           0
     30522 TIP3     3936     TIP3     OH2      OT      -0.834000       15.9994           0
     30523 TIP3     3936     TIP3     H1       HT       0.417000       1.00800           0
     30524 TIP3     3936     TIP3     H2       HT       0.417000       1.00800           0
     30525 TIP3     3937     TIP3     OH2      OT      -0.834000       15.9994           0
     30526 TIP3     3937     TIP3     H1       HT       0.417000       1.00800           0
     30527 TIP3     3937     TIP3     H2       HT       0.417000       1.00800           0
     30528 TIP3     3938     TIP3     OH2      OT      -0.834000       15.9994           0
     30529 TIP3     3938     TIP3     H1       HT       0.417000       1.00800           0
     30530 TIP3     3938     TIP3     H2       HT       0.417000       1.00800           0
     30531 TIP3     3939     TIP3     OH2      OT      -0.834000       15.9994           0
     30532 TIP3     3939     TIP3     H1       HT       0.417000       1.00800           0
     30533 TIP3     3939     TIP3     H2       HT       0.417000       1.00800           0
     30534 TIP3     3940     TIP3     OH2      OT      -0.834000       15.9994           0
     30535 TIP3     3940     TIP3     H1       HT       0.417000       1.00800           0
     30536 TIP3     3940     TIP3     H2       HT       0.417000       1.00800           0
     30537 TIP3     3941     TIP3     OH2      OT      -0.834000       15.9994           0
     30538 TIP3     3941     TIP3     H1       HT       0.417000       1.00800           0
     30539 TIP3     3941     TIP3     H2       HT       0.417000       1.00800           0
     30540 TIP3     3942     TIP3     OH2      OT      -0.834000       15.9994           0
     30541 TIP3     3942     TIP3     H1       HT       0.417000       1.00800           0
     30542 TIP3     3942     TIP3     H2       HT       0.417000       1.00800           0
     30543 TIP3     3943     TIP3     OH2      OT      -0.834000       15.9994           0
     30544 TIP3     3943     TIP3     H1       HT       0.417000       1.00800           0
     30545 TIP3     3943     TIP3     H2       HT       0.417000       1.00800           0
     30546 TIP3     3944     TIP3     OH2      OT      -0.834000       15.9994           0
     30547 TIP3     3944     TIP3     H1       HT       0.417000       1.00800           0
     30548 TIP3     3944     TIP3     H2       HT       0.417000       1.00800           0
     30549 TIP3     3945     TIP3     OH2      OT      -0.834000       15.9994           0
     30550 TIP3     3945     TIP3     H1       HT       0.417000       1.00800           0
     30551 TIP3     3945     TIP3     H2       HT       0.417000       1.00800           0
     30552 TIP3     3946     TIP3     OH2      OT      -0.834000       15.9994           0
     30553 TIP3     3946     TIP3     H1       HT       0.417000       1.00800           0
     30554 TIP3     3946     TIP3     H2       HT       0.417000       1.00800           0
     30555 TIP3     3947     TIP3     OH2      OT      -0.834000       15.9994           0
     30556 TIP3     3947     TIP3     H1       HT       0.417000       1.00800           0
     30557 TIP3     3947     TIP3     H2       HT       0.417000       1.00800           0
     30558 TIP3     3948     TIP3     OH2      OT      -0.834000       15.9994           0
     30559 TIP3     3948     TIP3     H1       HT       0.417000       1.00800           0
     30560 TIP3     3948     TIP3     H2       HT       0.417000       1.00800           0
     30561 TIP3     3949     TIP3     OH2      OT      -0.834000       15.9994           0
     30562 TIP3     3949     TIP3     H1       HT       0.417000       1.00800           0
     30563 TIP3     3949     TIP3     H2       HT       0.417000       1.00800           0
     30564 TIP3     3950     TIP3     OH2      OT      -0.834000       15.9994           0
     30565 TIP3     3950     TIP3     H1       HT       0.417000       1.00800           0
     30566 TIP3     3950     TIP3     H2       HT       0.417000       1.00800           0
     30567 TIP3     3951     TIP3     OH2      OT      -0.834000       15.9994           0
     30568 TIP3     3951     TIP3     H1       HT       0.417000       1.00800           0
     30569 TIP3     3951     TIP3     H2       HT       0.417000       1.00800           0
     30570 TIP3     3952     TIP3     OH2      OT      -0.834000       15.9994           0
     30571 TIP3     3952     TIP3     H1       HT       0.417000       1.00800           0
     30572 TIP3     3952     TIP3     H2       HT       0.417000       1.00800           0
     30573 TIP3     3953     TIP3     OH2      OT      -0.834000       15.9994           0
     30574 TIP3     3953     TIP3     H1       HT       0.417000       1.00800           0
     30575 TIP3     3953     TIP3     H2       HT       0.417000       1.00800           0
     30576 TIP3     3954     TIP3     OH2      OT      -0.834000       15.9994           0
     30577 TIP3     3954     TIP3     H1       HT       0.417000       1.00800           0
     30578 TIP3     3954     TIP3     H2       HT       0.417000       1.00800           0
     30579 TIP3     3955     TIP3     OH2      OT      -0.834000       15.9994           0
     30580 TIP3     3955     TIP3     H1       HT       0.417000       1.00800           0
     30581 TIP3     3955     TIP3     H2       HT       0.417000       1.00800           0
     30582 TIP3     3956     TIP3     OH2      OT      -0.834000       15.9994           0
     30583 TIP3     3956     TIP3     H1       HT       0.417000       1.00800           0
     30584 TIP3     3956     TIP3     H2       HT       0.417000       1.00800           0
     30585 TIP3     3957     TIP3     OH2      OT      -0.834000       15.9994           0
     30586 TIP3     3957     TIP3     H1       HT       0.417000       1.00800           0
     30587 TIP3     3957     TIP3     H2       HT       0.417000       1.00800           0
     30588 TIP3     3958     TIP3     OH2      OT      -0.834000       15.9994           0
     30589 TIP3     3958     TIP3     H1       HT       0.417000       1.00800           0
     30590 TIP3     3958     TIP3     H2       HT       0.417000       1.00800           0
     30591 TIP3     3959     TIP3     OH2      OT      -0.834000       15.9994           0
     30592 TIP3     3959     TIP3     H1       HT       0.417000       1.00800           0
     30593 TIP3     3959     TIP3     H2       HT       0.417000       1.00800           0
     30594 TIP3     3960     TIP3     OH2      OT      -0.834000       15.9994           0
     30595 TIP3     3960     TIP3     H1       HT       0.417000       1.00800           0
     30596 TIP3     3960     TIP3     H2       HT       0.417000       1.00800           0
     30597 TIP3     3961     TIP3     OH2      OT      -0.834000       15.9994           0
     30598 TIP3     3961     TIP3     H1       HT       0.417000       1.00800           0
     30599 TIP3     3961     TIP3     H2       HT       0.417000       1.00800           0
     30600 TIP3     3962     TIP3     OH2      OT      -0.834000       15.9994           0
     30601 TIP3     3962     TIP3     H1       HT       0.417000       1.00800           0
     30602 TIP3     3962     TIP3     H2       HT       0.417000       1.00800           0
     30603 TIP3     3963     TIP3     OH2      OT      -0.834000       15.9994           0
     30604 TIP3     3963     TIP3     H1       HT       0.417000       1.00800           0
     30605 TIP3     3963     TIP3     H2       HT       0.417000       1.00800           0
     30606 TIP3     3964     TIP3     OH2      OT      -0.834000       15.9994           0
     30607 TIP3     3964     TIP3     H1       HT       0.417000       1.00800           0
     30608 TIP3     3964     TIP3     H2       HT       0.417000       1.00800           0
     30609 TIP3     3965     TIP3     OH2      OT      -0.834000       15.9994           0
     30610 TIP3     3965     TIP3     H1       HT       0.417000       1.00800           0
     30611 TIP3     3965     TIP3     H2       HT       0.417000       1.00800           0
     30612 TIP3     3966     TIP3     OH2      OT      -0.834000       15.9994           0
     30613 TIP3     3966     TIP3     H1       HT       0.417000       1.00800           0
     30614 TIP3     3966     TIP3     H2       HT       0.417000       1.00800           0
     30615 TIP3     3967     TIP3     OH2      OT      -0.834000       15.9994           0
     30616 TIP3     3967     TIP3     H1       HT       0.417000       1.00800           0
     30617 TIP3     3967     TIP3     H2       HT       0.417000       1.00800           0
     30618 TIP3     3968     TIP3     OH2      OT      -0.834000       15.9994           0
     30619 TIP3     3968     TIP3     H1       HT       0.417000       1.00800           0
     30620 TIP3     3968     TIP3     H2       HT       0.417000       1.00800           0
     30621 TIP3     3969     TIP3     OH2      OT      -0.834000       15.9994           0
     30622 TIP3     3969     TIP3     H1       HT       0.417000       1.00800           0
     30623 TIP3     3969     TIP3     H2       HT       0.417000       1.00800           0
     30624 TIP3     3970     TIP3     OH2      OT      -0.834000       15.9994           0
     30625 TIP3     3970     TIP3     H1       HT       0.417000       1.00800           0
     30626 TIP3     3970     TIP3     H2       HT       0.417000       1.00800           0
     30627 TIP3     3971     TIP3     OH2      OT      -0.834000       15.9994           0
     30628 TIP3     3971     TIP3     H1       HT       0.417000       1.00800           0
     30629 TIP3     3971     TIP3     H2       HT       0.417000       1.00800           0
     30630 TIP3     3972     TIP3     OH2      OT      -0.834000       15.9994           0
     30631 TIP3     3972     TIP3     H1       HT       0.417000       1.00800           0
     30632 TIP3     3972     TIP3     H2       HT       0.417000       1.00800           0
     30633 TIP3     3973     TIP3     OH2      OT      -0.834000       15.9994           0
     30634 TIP3     3973     TIP3     H1       HT       0.417000       1.00800           0
     30635 TIP3     3973     TIP3     H2       HT       0.417000       1.00800           0
     30636 TIP3     3974     TIP3     OH2      OT      -0.834000       15.9994           0
     30637 TIP3     3974     TIP3     H1       HT       0.417000       1.00800           0
     30638 TIP3     3974     TIP3     H2       HT       0.417000       1.00800           0
     30639 TIP3     3975     TIP3     OH2      OT      -0.834000       15.9994           0
     30640 TIP3     3975     TIP3     H1       HT       0.417000       1.00800           0
     30641 TIP3     3975     TIP3     H2       HT       0.417000       1.00800           0
     30642 TIP3     3976     TIP3     OH2      OT      -0.834000       15.9994           0
     30643 TIP3     3976     TIP3     H1       HT       0.417000       1.00800           0
     30644 TIP3     3976     TIP3     H2       HT       0.417000       1.00800           0
     30645 TIP3     3977     TIP3     OH2      OT      -0.834000       15.9994           0
     30646 TIP3     3977     TIP3     H1       HT       0.417000       1.00800           0
     30647 TIP3     3977     TIP3     H2       HT       0.417000       1.00800           0
     30648 TIP3     3978     TIP3     OH2      OT      -0.834000       15.9994           0
     30649 TIP3     3978     TIP3     H1       HT       0.417000       1.00800           0
     30650 TIP3     3978     TIP3     H2       HT       0.417000       1.00800           0
     30651 TIP3     3979     TIP3     OH2      OT      -0.834000       15.9994           0
     30652 TIP3     3979     TIP3     H1       HT       0.417000       1.00800           0
     30653 TIP3     3979     TIP3     H2       HT       0.417000       1.00800           0
     30654 TIP3     3980     TIP3     OH2      OT      -0.834000       15.9994           0
     30655 TIP3     3980     TIP3     H1       HT       0.417000       1.00800           0
     30656 TIP3     3980     TIP3     H2       HT       0.417000       1.00800           0
     30657 TIP3     3981     TIP3     OH2      OT      -0.834000       15.9994           0
     30658 TIP3     3981     TIP3     H1       HT       0.417000       1.00800           0
     30659 TIP3     3981     TIP3     H2       HT       0.417000       1.00800           0
     30660 TIP3     3982     TIP3     OH2      OT      -0.834000       15.9994           0
     30661 TIP3     3982     TIP3     H1       HT       0.417000       1.00800           0
     30662 TIP3     3982     TIP3     H2       HT       0.417000       1.00800           0
     30663 TIP3     3983     TIP3     OH2      OT      -0.834000       15.9994           0
     30664 TIP3     3983     TIP3     H1       HT       0.417000       1.00800           0
     30665 TIP3     3983     TIP3     H2       HT       0.417000       1.00800           0
     30666 TIP3     3984     TIP3     OH2      OT      -0.834000       15.9994           0
     30667 TIP3     3984     TIP3     H1       HT       0.417000       1.00800           0
     30668 TIP3     3984     TIP3     H2       HT       0.417000       1.00800           0
     30669 TIP3     3985     TIP3     OH2      OT      -0.834000       15.9994           0
     30670 TIP3     3985     TIP3     H1       HT       0.417000       1.00800           0
     30671 TIP3     3985     TIP3     H2       HT       0.417000       1.00800           0
     30672 TIP3     3986     TIP3     OH2      OT      -0.834000       15.9994           0
     30673 TIP3     3986     TIP3     H1       HT       0.417000       1.00800           0
     30674 TIP3     3986     TIP3     H2       HT       0.417000       1.00800           0
     30675 TIP3     3987     TIP3     OH2      OT      -0.834000       15.9994           0
     30676 TIP3     3987     TIP3     H1       HT       0.417000       1.00800           0
     30677 TIP3     3987     TIP3     H2       HT       0.417000       1.00800           0
     30678 TIP3     3988     TIP3     OH2      OT      -0.834000       15.9994           0
     30679 TIP3     3988     TIP3     H1       HT       0.417000       1.00800           0
     30680 TIP3     3988     TIP3     H2       HT       0.417000       1.00800           0
     30681 TIP3     3989     TIP3     OH2      OT      -0.834000       15.9994           0
     30682 TIP3     3989     TIP3     H1       HT       0.417000       1.00800           0
     30683 TIP3     3989     TIP3     H2       HT       0.417000       1.00800           0
     30684 TIP3     3990     TIP3     OH2      OT      -0.834000       15.9994           0
     30685 TIP3     3990     TIP3     H1       HT       0.417000       1.00800           0
     30686 TIP3     3990     TIP3     H2       HT       0.417000       1.00800           0
     30687 TIP3     3991     TIP3     OH2      OT      -0.834000       15.9994           0
     30688 TIP3     3991     TIP3     H1       HT       0.417000       1.00800           0
     30689 TIP3     3991     TIP3     H2       HT       0.417000       1.00800           0
     30690 TIP3     3992     TIP3     OH2      OT      -0.834000       15.9994           0
     30691 TIP3     3992     TIP3     H1       HT       0.417000       1.00800           0
     30692 TIP3     3992     TIP3     H2       HT       0.417000       1.00800           0
     30693 TIP3     3993     TIP3     OH2      OT      -0.834000       15.9994           0
     30694 TIP3     3993     TIP3     H1       HT       0.417000       1.00800           0
     30695 TIP3     3993     TIP3     H2       HT       0.417000       1.00800           0
     30696 TIP3     3994     TIP3     OH2      OT      -0.834000       15.9994           0
     30697 TIP3     3994     TIP3     H1       HT       0.417000       1.00800           0
     30698 TIP3     3994     TIP3     H2       HT       0.417000       1.00800           0
     30699 TIP3     3995     TIP3     OH2      OT      -0.834000       15.9994           0
     30700 TIP3     3995     TIP3     H1       HT       0.417000       1.00800           0
     30701 TIP3     3995     TIP3     H2       HT       0.417000       1.00800           0
     30702 TIP3     3996     TIP3     OH2      OT      -0.834000       15.9994           0
     30703 TIP3     3996     TIP3     H1       HT       0.417000       1.00800           0
     30704 TIP3     3996     TIP3     H2       HT       0.417000       1.00800           0
     30705 TIP3     3997     TIP3     OH2      OT      -0.834000       15.9994           0
     30706 TIP3     3997     TIP3     H1       HT       0.417000       1.00800           0
     30707 TIP3     3997     TIP3     H2       HT       0.417000       1.00800           0
     30708 TIP3     3998     TIP3     OH2      OT      -0.834000       15.9994           0
     30709 TIP3     3998     TIP3     H1       HT       0.417000       1.00800           0
     30710 TIP3     3998     TIP3     H2       HT       0.417000       1.00800           0
     30711 TIP3     3999     TIP3     OH2      OT      -0.834000       15.9994           0
     30712 TIP3     3999     TIP3     H1       HT       0.417000       1.00800           0
     30713 TIP3     3999     TIP3     H2       HT       0.417000       1.00800           0
     30714 TIP3     4000     TIP3     OH2      OT      -0.834000       15.9994           0
     30715 TIP3     4000     TIP3     H1       HT       0.417000       1.00800           0
     30716 TIP3     4000     TIP3     H2       HT       0.417000       1.00800           0
     30717 TIP3     4001     TIP3     OH2      OT      -0.834000       15.9994           0
     30718 TIP3     4001     TIP3     H1       HT       0.417000       1.00800           0
     30719 TIP3     4001     TIP3     H2       HT       0.417000       1.00800           0
     30720 TIP3     4002     TIP3     OH2      OT      -0.834000       15.9994           0
     30721 TIP3     4002     TIP3     H1       HT       0.417000       1.00800           0
     30722 TIP3     4002     TIP3     H2       HT       0.417000       1.00800           0
     30723 TIP3     4003     TIP3     OH2      OT      -0.834000       15.9994           0
     30724 TIP3     4003     TIP3     H1       HT       0.417000       1.00800           0
     30725 TIP3     4003     TIP3     H2       HT       0.417000       1.00800           0
     30726 TIP3     4004     TIP3     OH2      OT      -0.834000       15.9994           0
     30727 TIP3     4004     TIP3     H1       HT       0.417000       1.00800           0
     30728 TIP3     4004     TIP3     H2       HT       0.417000       1.00800           0
     30729 TIP3     4005     TIP3     OH2      OT      -0.834000       15.9994           0
     30730 TIP3     4005     TIP3     H1       HT       0.417000       1.00800           0
     30731 TIP3     4005     TIP3     H2       HT       0.417000       1.00800           0
     30732 TIP3     4006     TIP3     OH2      OT      -0.834000       15.9994           0
     30733 TIP3     4006     TIP3     H1       HT       0.417000       1.00800           0
     30734 TIP3     4006     TIP3     H2       HT       0.417000       1.00800           0
     30735 TIP3     4007     TIP3     OH2      OT      -0.834000       15.9994           0
     30736 TIP3     4007     TIP3     H1       HT       0.417000       1.00800           0
     30737 TIP3     4007     TIP3     H2       HT       0.417000       1.00800           0
     30738 TIP3     4008     TIP3     OH2      OT      -0.834000       15.9994           0
     30739 TIP3     4008     TIP3     H1       HT       0.417000       1.00800           0
     30740 TIP3     4008     TIP3     H2       HT       0.417000       1.00800           0
     30741 TIP3     4009     TIP3     OH2      OT      -0.834000       15.9994           0
     30742 TIP3     4009     TIP3     H1       HT       0.417000       1.00800           0
     30743 TIP3     4009     TIP3     H2       HT       0.417000       1.00800           0
     30744 TIP3     4010     TIP3     OH2      OT      -0.834000       15.9994           0
     30745 TIP3     4010     TIP3     H1       HT       0.417000       1.00800           0
     30746 TIP3     4010     TIP3     H2       HT       0.417000       1.00800           0
     30747 TIP3     4011     TIP3     OH2      OT      -0.834000       15.9994           0
     30748 TIP3     4011     TIP3     H1       HT       0.417000       1.00800           0
     30749 TIP3     4011     TIP3     H2       HT       0.417000       1.00800           0
     30750 TIP3     4012     TIP3     OH2      OT      -0.834000       15.9994           0
     30751 TIP3     4012     TIP3     H1       HT       0.417000       1.00800           0
     30752 TIP3     4012     TIP3     H2       HT       0.417000       1.00800           0
     30753 TIP3     4013     TIP3     OH2      OT      -0.834000       15.9994           0
     30754 TIP3     4013     TIP3     H1       HT       0.417000       1.00800           0
     30755 TIP3     4013     TIP3     H2       HT       0.417000       1.00800           0
     30756 TIP3     4014     TIP3     OH2      OT      -0.834000       15.9994           0
     30757 TIP3     4014     TIP3     H1       HT       0.417000       1.00800           0
     30758 TIP3     4014     TIP3     H2       HT       0.417000       1.00800           0
     30759 TIP3     4015     TIP3     OH2      OT      -0.834000       15.9994           0
     30760 TIP3     4015     TIP3     H1       HT       0.417000       1.00800           0
     30761 TIP3     4015     TIP3     H2       HT       0.417000       1.00800           0
     30762 TIP3     4016     TIP3     OH2      OT      -0.834000       15.9994           0
     30763 TIP3     4016     TIP3     H1       HT       0.417000       1.00800           0
     30764 TIP3     4016     TIP3     H2       HT       0.417000       1.00800           0
     30765 TIP3     4017     TIP3     OH2      OT      -0.834000       15.9994           0
     30766 TIP3     4017     TIP3     H1       HT       0.417000       1.00800           0
     30767 TIP3     4017     TIP3     H2       HT       0.417000       1.00800           0
     30768 TIP3     4018     TIP3     OH2      OT      -0.834000       15.9994           0
     30769 TIP3     4018     TIP3     H1       HT       0.417000       1.00800           0
     30770 TIP3     4018     TIP3     H2       HT       0.417000       1.00800           0
     30771 TIP3     4019     TIP3     OH2      OT      -0.834000       15.9994           0
     30772 TIP3     4019     TIP3     H1       HT       0.417000       1.00800           0
     30773 TIP3     4019     TIP3     H2       HT       0.417000       1.00800           0
     30774 TIP3     4020     TIP3     OH2      OT      -0.834000       15.9994           0
     30775 TIP3     4020     TIP3     H1       HT       0.417000       1.00800           0
     30776 TIP3     4020     TIP3     H2       HT       0.417000       1.00800           0
     30777 TIP3     4021     TIP3     OH2      OT      -0.834000       15.9994           0
     30778 TIP3     4021     TIP3     H1       HT       0.417000       1.00800           0
     30779 TIP3     4021     TIP3     H2       HT       0.417000       1.00800           0
     30780 TIP3     4022     TIP3     OH2      OT      -0.834000       15.9994           0
     30781 TIP3     4022     TIP3     H1       HT       0.417000       1.00800           0
     30782 TIP3     4022     TIP3     H2       HT       0.417000       1.00800           0
     30783 TIP3     4023     TIP3     OH2      OT      -0.834000       15.9994           0
     30784 TIP3     4023     TIP3     H1       HT       0.417000       1.00800           0
     30785 TIP3     4023     TIP3     H2       HT       0.417000       1.00800           0
     30786 TIP3     4024     TIP3     OH2      OT      -0.834000       15.9994           0
     30787 TIP3     4024     TIP3     H1       HT       0.417000       1.00800           0
     30788 TIP3     4024     TIP3     H2       HT       0.417000       1.00800           0
     30789 TIP3     4025     TIP3     OH2      OT      -0.834000       15.9994           0
     30790 TIP3     4025     TIP3     H1       HT       0.417000       1.00800           0
     30791 TIP3     4025     TIP3     H2       HT       0.417000       1.00800           0
     30792 TIP3     4026     TIP3     OH2      OT      -0.834000       15.9994           0
     30793 TIP3     4026     TIP3     H1       HT       0.417000       1.00800           0
     30794 TIP3     4026     TIP3     H2       HT       0.417000       1.00800           0
     30795 TIP3     4027     TIP3     OH2      OT      -0.834000       15.9994           0
     30796 TIP3     4027     TIP3     H1       HT       0.417000       1.00800           0
     30797 TIP3     4027     TIP3     H2       HT       0.417000       1.00800           0
     30798 TIP3     4028     TIP3     OH2      OT      -0.834000       15.9994           0
     30799 TIP3     4028     TIP3     H1       HT       0.417000       1.00800           0
     30800 TIP3     4028     TIP3     H2       HT       0.417000       1.00800           0
     30801 TIP3     4029     TIP3     OH2      OT      -0.834000       15.9994           0
     30802 TIP3     4029     TIP3     H1       HT       0.417000       1.00800           0
     30803 TIP3     4029     TIP3     H2       HT       0.417000       1.00800           0
     30804 TIP3     4030     TIP3     OH2      OT      -0.834000       15.9994           0
     30805 TIP3     4030     TIP3     H1       HT       0.417000       1.00800           0
     30806 TIP3     4030     TIP3     H2       HT       0.417000       1.00800           0
     30807 TIP3     4031     TIP3     OH2      OT      -0.834000       15.9994           0
     30808 TIP3     4031     TIP3     H1       HT       0.417000       1.00800           0
     30809 TIP3     4031     TIP3     H2       HT       0.417000       1.00800           0
     30810 TIP3     4032     TIP3     OH2      OT      -0.834000       15.9994           0
     30811 TIP3     4032     TIP3     H1       HT       0.417000       1.00800           0
     30812 TIP3     4032     TIP3     H2       HT       0.417000       1.00800           0
     30813 TIP3     4033     TIP3     OH2      OT      -0.834000       15.9994           0
     30814 TIP3     4033     TIP3     H1       HT       0.417000       1.00800           0
     30815 TIP3     4033     TIP3     H2       HT       0.417000       1.00800           0
     30816 TIP3     4034     TIP3     OH2      OT      -0.834000       15.9994           0
     30817 TIP3     4034     TIP3     H1       HT       0.417000       1.00800           0
     30818 TIP3     4034     TIP3     H2       HT       0.417000       1.00800           0
     30819 TIP3     4035     TIP3     OH2      OT      -0.834000       15.9994           0
     30820 TIP3     4035     TIP3     H1       HT       0.417000       1.00800           0
     30821 TIP3     4035     TIP3     H2       HT       0.417000       1.00800           0
     30822 TIP3     4036     TIP3     OH2      OT      -0.834000       15.9994           0
     30823 TIP3     4036     TIP3     H1       HT       0.417000       1.00800           0
     30824 TIP3     4036     TIP3     H2       HT       0.417000       1.00800           0
     30825 TIP3     4037     TIP3     OH2      OT      -0.834000       15.9994           0
     30826 TIP3     4037     TIP3     H1       HT       0.417000       1.00800           0
     30827 TIP3     4037     TIP3     H2       HT       0.417000       1.00800           0
     30828 TIP3     4038     TIP3     OH2      OT      -0.834000       15.9994           0
     30829 TIP3     4038     TIP3     H1       HT       0.417000       1.00800           0
     30830 TIP3     4038     TIP3     H2       HT       0.417000       1.00800           0
     30831 TIP3     4039     TIP3     OH2      OT      -0.834000       15.9994           0
     30832 TIP3     4039     TIP3     H1       HT       0.417000       1.00800           0
     30833 TIP3     4039     TIP3     H2       HT       0.417000       1.00800           0
     30834 TIP3     4040     TIP3     OH2      OT      -0.834000       15.9994           0
     30835 TIP3     4040     TIP3     H1       HT       0.417000       1.00800           0
     30836 TIP3     4040     TIP3     H2       HT       0.417000       1.00800           0
     30837 TIP3     4041     TIP3     OH2      OT      -0.834000       15.9994           0
     30838 TIP3     4041     TIP3     H1       HT       0.417000       1.00800           0
     30839 TIP3     4041     TIP3     H2       HT       0.417000       1.00800           0
     30840 TIP3     4042     TIP3     OH2      OT      -0.834000       15.9994           0
     30841 TIP3     4042     TIP3     H1       HT       0.417000       1.00800           0
     30842 TIP3     4042     TIP3     H2       HT       0.417000       1.00800           0
     30843 TIP3     4043     TIP3     OH2      OT      -0.834000       15.9994           0
     30844 TIP3     4043     TIP3     H1       HT       0.417000       1.00800           0
     30845 TIP3     4043     TIP3     H2       HT       0.417000       1.00800           0
     30846 TIP3     4044     TIP3     OH2      OT      -0.834000       15.9994           0
     30847 TIP3     4044     TIP3     H1       HT       0.417000       1.00800           0
     30848 TIP3     4044     TIP3     H2       HT       0.417000       1.00800           0
     30849 TIP3     4045     TIP3     OH2      OT      -0.834000       15.9994           0
     30850 TIP3     4045     TIP3     H1       HT       0.417000       1.00800           0
     30851 TIP3     4045     TIP3     H2       HT       0.417000       1.00800           0
     30852 TIP3     4046     TIP3     OH2      OT      -0.834000       15.9994           0
     30853 TIP3     4046     TIP3     H1       HT       0.417000       1.00800           0
     30854 TIP3     4046     TIP3     H2       HT       0.417000       1.00800           0
     30855 TIP3     4047     TIP3     OH2      OT      -0.834000       15.9994           0
     30856 TIP3     4047     TIP3     H1       HT       0.417000       1.00800           0
     30857 TIP3     4047     TIP3     H2       HT       0.417000       1.00800           0
     30858 TIP3     4048     TIP3     OH2      OT      -0.834000       15.9994           0
     30859 TIP3     4048     TIP3     H1       HT       0.417000       1.00800           0
     30860 TIP3     4048     TIP3     H2       HT       0.417000       1.00800           0
     30861 TIP3     4049     TIP3     OH2      OT      -0.834000       15.9994           0
     30862 TIP3     4049     TIP3     H1       HT       0.417000       1.00800           0
     30863 TIP3     4049     TIP3     H2       HT       0.417000       1.00800           0
     30864 TIP3     4050     TIP3     OH2      OT      -0.834000       15.9994           0
     30865 TIP3     4050     TIP3     H1       HT       0.417000       1.00800           0
     30866 TIP3     4050     TIP3     H2       HT       0.417000       1.00800           0
     30867 TIP3     4051     TIP3     OH2      OT      -0.834000       15.9994           0
     30868 TIP3     4051     TIP3     H1       HT       0.417000       1.00800           0
     30869 TIP3     4051     TIP3     H2       HT       0.417000       1.00800           0
     30870 TIP3     4052     TIP3     OH2      OT      -0.834000       15.9994           0
     30871 TIP3     4052     TIP3     H1       HT       0.417000       1.00800           0
     30872 TIP3     4052     TIP3     H2       HT       0.417000       1.00800           0
     30873 TIP3     4053     TIP3     OH2      OT      -0.834000       15.9994           0
     30874 TIP3     4053     TIP3     H1       HT       0.417000       1.00800           0
     30875 TIP3     4053     TIP3     H2       HT       0.417000       1.00800           0
     30876 TIP3     4054     TIP3     OH2      OT      -0.834000       15.9994           0
     30877 TIP3     4054     TIP3     H1       HT       0.417000       1.00800           0
     30878 TIP3     4054     TIP3     H2       HT       0.417000       1.00800           0
     30879 TIP3     4055     TIP3     OH2      OT      -0.834000       15.9994           0
     30880 TIP3     4055     TIP3     H1       HT       0.417000       1.00800           0
     30881 TIP3     4055     TIP3     H2       HT       0.417000       1.00800           0
     30882 TIP3     4056     TIP3     OH2      OT      -0.834000       15.9994           0
     30883 TIP3     4056     TIP3     H1       HT       0.417000       1.00800           0
     30884 TIP3     4056     TIP3     H2       HT       0.417000       1.00800           0
     30885 TIP3     4057     TIP3     OH2      OT      -0.834000       15.9994           0
     30886 TIP3     4057     TIP3     H1       HT       0.417000       1.00800           0
     30887 TIP3     4057     TIP3     H2       HT       0.417000       1.00800           0
     30888 TIP3     4058     TIP3     OH2      OT      -0.834000       15.9994           0
     30889 TIP3     4058     TIP3     H1       HT       0.417000       1.00800           0
     30890 TIP3     4058     TIP3     H2       HT       0.417000       1.00800           0
     30891 TIP3     4059     TIP3     OH2      OT      -0.834000       15.9994           0
     30892 TIP3     4059     TIP3     H1       HT       0.417000       1.00800           0
     30893 TIP3     4059     TIP3     H2       HT       0.417000       1.00800           0
     30894 TIP3     4060     TIP3     OH2      OT      -0.834000       15.9994           0
     30895 TIP3     4060     TIP3     H1       HT       0.417000       1.00800           0
     30896 TIP3     4060     TIP3     H2       HT       0.417000       1.00800           0
     30897 TIP3     4061     TIP3     OH2      OT      -0.834000       15.9994           0
     30898 TIP3     4061     TIP3     H1       HT       0.417000       1.00800           0
     30899 TIP3     4061     TIP3     H2       HT       0.417000       1.00800           0
     30900 TIP3     4062     TIP3     OH2      OT      -0.834000       15.9994           0
     30901 TIP3     4062     TIP3     H1       HT       0.417000       1.00800           0
     30902 TIP3     4062     TIP3     H2       HT       0.417000       1.00800           0
     30903 TIP3     4063     TIP3     OH2      OT      -0.834000       15.9994           0
     30904 TIP3     4063     TIP3     H1       HT       0.417000       1.00800           0
     30905 TIP3     4063     TIP3     H2       HT       0.417000       1.00800           0
     30906 TIP3     4064     TIP3     OH2      OT      -0.834000       15.9994           0
     30907 TIP3     4064     TIP3     H1       HT       0.417000       1.00800           0
     30908 TIP3     4064     TIP3     H2       HT       0.417000       1.00800           0
     30909 TIP3     4065     TIP3     OH2      OT      -0.834000       15.9994           0
     30910 TIP3     4065     TIP3     H1       HT       0.417000       1.00800           0
     30911 TIP3     4065     TIP3     H2       HT       0.417000       1.00800           0
     30912 TIP3     4066     TIP3     OH2      OT      -0.834000       15.9994           0
     30913 TIP3     4066     TIP3     H1       HT       0.417000       1.00800           0
     30914 TIP3     4066     TIP3     H2       HT       0.417000       1.00800           0
     30915 TIP3     4067     TIP3     OH2      OT      -0.834000       15.9994           0
     30916 TIP3     4067     TIP3     H1       HT       0.417000       1.00800           0
     30917 TIP3     4067     TIP3     H2       HT       0.417000       1.00800           0
     30918 TIP3     4068     TIP3     OH2      OT      -0.834000       15.9994           0
     30919 TIP3     4068     TIP3     H1       HT       0.417000       1.00800           0
     30920 TIP3     4068     TIP3     H2       HT       0.417000       1.00800           0
     30921 TIP3     4069     TIP3     OH2      OT      -0.834000       15.9994           0
     30922 TIP3     4069     TIP3     H1       HT       0.417000       1.00800           0
     30923 TIP3     4069     TIP3     H2       HT       0.417000       1.00800           0
     30924 TIP3     4070     TIP3     OH2      OT      -0.834000       15.9994           0
     30925 TIP3     4070     TIP3     H1       HT       0.417000       1.00800           0
     30926 TIP3     4070     TIP3     H2       HT       0.417000       1.00800           0
     30927 TIP3     4071     TIP3     OH2      OT      -0.834000       15.9994           0
     30928 TIP3     4071     TIP3     H1       HT       0.417000       1.00800           0
     30929 TIP3     4071     TIP3     H2       HT       0.417000       1.00800           0
     30930 TIP3     4072     TIP3     OH2      OT      -0.834000       15.9994           0
     30931 TIP3     4072     TIP3     H1       HT       0.417000       1.00800           0
     30932 TIP3     4072     TIP3     H2       HT       0.417000       1.00800           0
     30933 TIP3     4073     TIP3     OH2      OT      -0.834000       15.9994           0
     30934 TIP3     4073     TIP3     H1       HT       0.417000       1.00800           0
     30935 TIP3     4073     TIP3     H2       HT       0.417000       1.00800           0
     30936 TIP3     4074     TIP3     OH2      OT      -0.834000       15.9994           0
     30937 TIP3     4074     TIP3     H1       HT       0.417000       1.00800           0
     30938 TIP3     4074     TIP3     H2       HT       0.417000       1.00800           0
     30939 TIP3     4075     TIP3     OH2      OT      -0.834000       15.9994           0
     30940 TIP3     4075     TIP3     H1       HT       0.417000       1.00800           0
     30941 TIP3     4075     TIP3     H2       HT       0.417000       1.00800           0
     30942 TIP3     4076     TIP3     OH2      OT      -0.834000       15.9994           0
     30943 TIP3     4076     TIP3     H1       HT       0.417000       1.00800           0
     30944 TIP3     4076     TIP3     H2       HT       0.417000       1.00800           0
     30945 TIP3     4077     TIP3     OH2      OT      -0.834000       15.9994           0
     30946 TIP3     4077     TIP3     H1       HT       0.417000       1.00800           0
     30947 TIP3     4077     TIP3     H2       HT       0.417000       1.00800           0
     30948 TIP3     4078     TIP3     OH2      OT      -0.834000       15.9994           0
     30949 TIP3     4078     TIP3     H1       HT       0.417000       1.00800           0
     30950 TIP3     4078     TIP3     H2       HT       0.417000       1.00800           0
     30951 TIP3     4079     TIP3     OH2      OT      -0.834000       15.9994           0
     30952 TIP3     4079     TIP3     H1       HT       0.417000       1.00800           0
     30953 TIP3     4079     TIP3     H2       HT       0.417000       1.00800           0
     30954 TIP3     4080     TIP3     OH2      OT      -0.834000       15.9994           0
     30955 TIP3     4080     TIP3     H1       HT       0.417000       1.00800           0
     30956 TIP3     4080     TIP3     H2       HT       0.417000       1.00800           0
     30957 TIP3     4081     TIP3     OH2      OT      -0.834000       15.9994           0
     30958 TIP3     4081     TIP3     H1       HT       0.417000       1.00800           0
     30959 TIP3     4081     TIP3     H2       HT       0.417000       1.00800           0
     30960 TIP3     4082     TIP3     OH2      OT      -0.834000       15.9994           0
     30961 TIP3     4082     TIP3     H1       HT       0.417000       1.00800           0
     30962 TIP3     4082     TIP3     H2       HT       0.417000       1.00800           0
     30963 TIP3     4083     TIP3     OH2      OT      -0.834000       15.9994           0
     30964 TIP3     4083     TIP3     H1       HT       0.417000       1.00800           0
     30965 TIP3     4083     TIP3     H2       HT       0.417000       1.00800           0
     30966 TIP3     4084     TIP3     OH2      OT      -0.834000       15.9994           0
     30967 TIP3     4084     TIP3     H1       HT       0.417000       1.00800           0
     30968 TIP3     4084     TIP3     H2       HT       0.417000       1.00800           0
     30969 TIP3     4085     TIP3     OH2      OT      -0.834000       15.9994           0
     30970 TIP3     4085     TIP3     H1       HT       0.417000       1.00800           0
     30971 TIP3     4085     TIP3     H2       HT       0.417000       1.00800           0
     30972 TIP3     4086     TIP3     OH2      OT      -0.834000       15.9994           0
     30973 TIP3     4086     TIP3     H1       HT       0.417000       1.00800           0
     30974 TIP3     4086     TIP3     H2       HT       0.417000       1.00800           0
     30975 TIP3     4087     TIP3     OH2      OT      -0.834000       15.9994           0
     30976 TIP3     4087     TIP3     H1       HT       0.417000       1.00800           0
     30977 TIP3     4087     TIP3     H2       HT       0.417000       1.00800           0
     30978 TIP3     4088     TIP3     OH2      OT      -0.834000       15.9994           0
     30979 TIP3     4088     TIP3     H1       HT       0.417000       1.00800           0
     30980 TIP3     4088     TIP3     H2       HT       0.417000       1.00800           0
     30981 TIP3     4089     TIP3     OH2      OT      -0.834000       15.9994           0
     30982 TIP3     4089     TIP3     H1       HT       0.417000       1.00800           0
     30983 TIP3     4089     TIP3     H2       HT       0.417000       1.00800           0
     30984 TIP3     4090     TIP3     OH2      OT      -0.834000       15.9994           0
     30985 TIP3     4090     TIP3     H1       HT       0.417000       1.00800           0
     30986 TIP3     4090     TIP3     H2       HT       0.417000       1.00800           0
     30987 TIP3     4091     TIP3     OH2      OT      -0.834000       15.9994           0
     30988 TIP3     4091     TIP3     H1       HT       0.417000       1.00800           0
     30989 TIP3     4091     TIP3     H2       HT       0.417000       1.00800           0
     30990 TIP3     4092     TIP3     OH2      OT      -0.834000       15.9994           0
     30991 TIP3     4092     TIP3     H1       HT       0.417000       1.00800           0
     30992 TIP3     4092     TIP3     H2       HT       0.417000       1.00800           0
     30993 TIP3     4093     TIP3     OH2      OT      -0.834000       15.9994           0
     30994 TIP3     4093     TIP3     H1       HT       0.417000       1.00800           0
     30995 TIP3     4093     TIP3     H2       HT       0.417000       1.00800           0
     30996 TIP3     4094     TIP3     OH2      OT      -0.834000       15.9994           0
     30997 TIP3     4094     TIP3     H1       HT       0.417000       1.00800           0
     30998 TIP3     4094     TIP3     H2       HT       0.417000       1.00800           0
     30999 TIP3     4095     TIP3     OH2      OT      -0.834000       15.9994           0
     31000 TIP3     4095     TIP3     H1       HT       0.417000       1.00800           0
     31001 TIP3     4095     TIP3     H2       HT       0.417000       1.00800           0
     31002 TIP3     4096     TIP3     OH2      OT      -0.834000       15.9994           0
     31003 TIP3     4096     TIP3     H1       HT       0.417000       1.00800           0
     31004 TIP3     4096     TIP3     H2       HT       0.417000       1.00800           0
     31005 TIP3     4097     TIP3     OH2      OT      -0.834000       15.9994           0
     31006 TIP3     4097     TIP3     H1       HT       0.417000       1.00800           0
     31007 TIP3     4097     TIP3     H2       HT       0.417000       1.00800           0
     31008 TIP3     4098     TIP3     OH2      OT      -0.834000       15.9994           0
     31009 TIP3     4098     TIP3     H1       HT       0.417000       1.00800           0
     31010 TIP3     4098     TIP3     H2       HT       0.417000       1.00800           0
     31011 TIP3     4099     TIP3     OH2      OT      -0.834000       15.9994           0
     31012 TIP3     4099     TIP3     H1       HT       0.417000       1.00800           0
     31013 TIP3     4099     TIP3     H2       HT       0.417000       1.00800           0
     31014 TIP3     4100     TIP3     OH2      OT      -0.834000       15.9994           0
     31015 TIP3     4100     TIP3     H1       HT       0.417000       1.00800           0
     31016 TIP3     4100     TIP3     H2       HT       0.417000       1.00800           0
     31017 TIP3     4101     TIP3     OH2      OT      -0.834000       15.9994           0
     31018 TIP3     4101     TIP3     H1       HT       0.417000       1.00800           0
     31019 TIP3     4101     TIP3     H2       HT       0.417000       1.00800           0
     31020 TIP3     4102     TIP3     OH2      OT      -0.834000       15.9994           0
     31021 TIP3     4102     TIP3     H1       HT       0.417000       1.00800           0
     31022 TIP3     4102     TIP3     H2       HT       0.417000       1.00800           0
     31023 TIP3     4103     TIP3     OH2      OT      -0.834000       15.9994           0
     31024 TIP3     4103     TIP3     H1       HT       0.417000       1.00800           0
     31025 TIP3     4103     TIP3     H2       HT       0.417000       1.00800           0
     31026 TIP3     4104     TIP3     OH2      OT      -0.834000       15.9994           0
     31027 TIP3     4104     TIP3     H1       HT       0.417000       1.00800           0
     31028 TIP3     4104     TIP3     H2       HT       0.417000       1.00800           0
     31029 TIP3     4105     TIP3     OH2      OT      -0.834000       15.9994           0
     31030 TIP3     4105     TIP3     H1       HT       0.417000       1.00800           0
     31031 TIP3     4105     TIP3     H2       HT       0.417000       1.00800           0
     31032 TIP3     4106     TIP3     OH2      OT      -0.834000       15.9994           0
     31033 TIP3     4106     TIP3     H1       HT       0.417000       1.00800           0
     31034 TIP3     4106     TIP3     H2       HT       0.417000       1.00800           0
     31035 TIP3     4107     TIP3     OH2      OT      -0.834000       15.9994           0
     31036 TIP3     4107     TIP3     H1       HT       0.417000       1.00800           0
     31037 TIP3     4107     TIP3     H2       HT       0.417000       1.00800           0
     31038 TIP3     4108     TIP3     OH2      OT      -0.834000       15.9994           0
     31039 TIP3     4108     TIP3     H1       HT       0.417000       1.00800           0
     31040 TIP3     4108     TIP3     H2       HT       0.417000       1.00800           0
     31041 TIP3     4109     TIP3     OH2      OT      -0.834000       15.9994           0
     31042 TIP3     4109     TIP3     H1       HT       0.417000       1.00800           0
     31043 TIP3     4109     TIP3     H2       HT       0.417000       1.00800           0
     31044 TIP3     4110     TIP3     OH2      OT      -0.834000       15.9994           0
     31045 TIP3     4110     TIP3     H1       HT       0.417000       1.00800           0
     31046 TIP3     4110     TIP3     H2       HT       0.417000       1.00800           0
     31047 TIP3     4111     TIP3     OH2      OT      -0.834000       15.9994           0
     31048 TIP3     4111     TIP3     H1       HT       0.417000       1.00800           0
     31049 TIP3     4111     TIP3     H2       HT       0.417000       1.00800           0
     31050 TIP3     4112     TIP3     OH2      OT      -0.834000       15.9994           0
     31051 TIP3     4112     TIP3     H1       HT       0.417000       1.00800           0
     31052 TIP3     4112     TIP3     H2       HT       0.417000       1.00800           0
     31053 TIP3     4113     TIP3     OH2      OT      -0.834000       15.9994           0
     31054 TIP3     4113     TIP3     H1       HT       0.417000       1.00800           0
     31055 TIP3     4113     TIP3     H2       HT       0.417000       1.00800           0
     31056 TIP3     4114     TIP3     OH2      OT      -0.834000       15.9994           0
     31057 TIP3     4114     TIP3     H1       HT       0.417000       1.00800           0
     31058 TIP3     4114     TIP3     H2       HT       0.417000       1.00800           0
     31059 TIP3     4115     TIP3     OH2      OT      -0.834000       15.9994           0
     31060 TIP3     4115     TIP3     H1       HT       0.417000       1.00800           0
     31061 TIP3     4115     TIP3     H2       HT       0.417000       1.00800           0
     31062 TIP3     4116     TIP3     OH2      OT      -0.834000       15.9994           0
     31063 TIP3     4116     TIP3     H1       HT       0.417000       1.00800           0
     31064 TIP3     4116     TIP3     H2       HT       0.417000       1.00800           0
     31065 TIP3     4117     TIP3     OH2      OT      -0.834000       15.9994           0
     31066 TIP3     4117     TIP3     H1       HT       0.417000       1.00800           0
     31067 TIP3     4117     TIP3     H2       HT       0.417000       1.00800           0
     31068 TIP3     4118     TIP3     OH2      OT      -0.834000       15.9994           0
     31069 TIP3     4118     TIP3     H1       HT       0.417000       1.00800           0
     31070 TIP3     4118     TIP3     H2       HT       0.417000       1.00800           0
     31071 TIP3     4119     TIP3     OH2      OT      -0.834000       15.9994           0
     31072 TIP3     4119     TIP3     H1       HT       0.417000       1.00800           0
     31073 TIP3     4119     TIP3     H2       HT       0.417000       1.00800           0
     31074 TIP3     4120     TIP3     OH2      OT      -0.834000       15.9994           0
     31075 TIP3     4120     TIP3     H1       HT       0.417000       1.00800           0
     31076 TIP3     4120     TIP3     H2       HT       0.417000       1.00800           0
     31077 TIP3     4121     TIP3     OH2      OT      -0.834000       15.9994           0
     31078 TIP3     4121     TIP3     H1       HT       0.417000       1.00800           0
     31079 TIP3     4121     TIP3     H2       HT       0.417000       1.00800           0
     31080 TIP3     4122     TIP3     OH2      OT      -0.834000       15.9994           0
     31081 TIP3     4122     TIP3     H1       HT       0.417000       1.00800           0
     31082 TIP3     4122     TIP3     H2       HT       0.417000       1.00800           0
     31083 TIP3     4123     TIP3     OH2      OT      -0.834000       15.9994           0
     31084 TIP3     4123     TIP3     H1       HT       0.417000       1.00800           0
     31085 TIP3     4123     TIP3     H2       HT       0.417000       1.00800           0
     31086 TIP3     4124     TIP3     OH2      OT      -0.834000       15.9994           0
     31087 TIP3     4124     TIP3     H1       HT       0.417000       1.00800           0
     31088 TIP3     4124     TIP3     H2       HT       0.417000       1.00800           0
     31089 TIP3     4125     TIP3     OH2      OT      -0.834000       15.9994           0
     31090 TIP3     4125     TIP3     H1       HT       0.417000       1.00800           0
     31091 TIP3     4125     TIP3     H2       HT       0.417000       1.00800           0
     31092 TIP3     4126     TIP3     OH2      OT      -0.834000       15.9994           0
     31093 TIP3     4126     TIP3     H1       HT       0.417000       1.00800           0
     31094 TIP3     4126     TIP3     H2       HT       0.417000       1.00800           0
     31095 TIP3     4127     TIP3     OH2      OT      -0.834000       15.9994           0
     31096 TIP3     4127     TIP3     H1       HT       0.417000       1.00800           0
     31097 TIP3     4127     TIP3     H2       HT       0.417000       1.00800           0
     31098 TIP3     4128     TIP3     OH2      OT      -0.834000       15.9994           0
     31099 TIP3     4128     TIP3     H1       HT       0.417000       1.00800           0
     31100 TIP3     4128     TIP3     H2       HT       0.417000       1.00800           0
     31101 TIP3     4129     TIP3     OH2      OT      -0.834000       15.9994           0
     31102 TIP3     4129     TIP3     H1       HT       0.417000       1.00800           0
     31103 TIP3     4129     TIP3     H2       HT       0.417000       1.00800           0
     31104 TIP3     4130     TIP3     OH2      OT      -0.834000       15.9994           0
     31105 TIP3     4130     TIP3     H1       HT       0.417000       1.00800           0
     31106 TIP3     4130     TIP3     H2       HT       0.417000       1.00800           0
     31107 TIP3     4131     TIP3     OH2      OT      -0.834000       15.9994           0
     31108 TIP3     4131     TIP3     H1       HT       0.417000       1.00800           0
     31109 TIP3     4131     TIP3     H2       HT       0.417000       1.00800           0
     31110 TIP3     4132     TIP3     OH2      OT      -0.834000       15.9994           0
     31111 TIP3     4132     TIP3     H1       HT       0.417000       1.00800           0
     31112 TIP3     4132     TIP3     H2       HT       0.417000       1.00800           0
     31113 TIP3     4133     TIP3     OH2      OT      -0.834000       15.9994           0
     31114 TIP3     4133     TIP3     H1       HT       0.417000       1.00800           0
     31115 TIP3     4133     TIP3     H2       HT       0.417000       1.00800           0
     31116 TIP3     4134     TIP3     OH2      OT      -0.834000       15.9994           0
     31117 TIP3     4134     TIP3     H1       HT       0.417000       1.00800           0
     31118 TIP3     4134     TIP3     H2       HT       0.417000       1.00800           0
     31119 TIP3     4135     TIP3     OH2      OT      -0.834000       15.9994           0
     31120 TIP3     4135     TIP3     H1       HT       0.417000       1.00800           0
     31121 TIP3     4135     TIP3     H2       HT       0.417000       1.00800           0
     31122 TIP3     4136     TIP3     OH2      OT      -0.834000       15.9994           0
     31123 TIP3     4136     TIP3     H1       HT       0.417000       1.00800           0
     31124 TIP3     4136     TIP3     H2       HT       0.417000       1.00800           0
     31125 TIP3     4137     TIP3     OH2      OT      -0.834000       15.9994           0
     31126 TIP3     4137     TIP3     H1       HT       0.417000       1.00800           0
     31127 TIP3     4137     TIP3     H2       HT       0.417000       1.00800           0
     31128 TIP3     4138     TIP3     OH2      OT      -0.834000       15.9994           0
     31129 TIP3     4138     TIP3     H1       HT       0.417000       1.00800           0
     31130 TIP3     4138     TIP3     H2       HT       0.417000       1.00800           0
     31131 TIP3     4139     TIP3     OH2      OT      -0.834000       15.9994           0
     31132 TIP3     4139     TIP3     H1       HT       0.417000       1.00800           0
     31133 TIP3     4139     TIP3     H2       HT       0.417000       1.00800           0
     31134 TIP3     4140     TIP3     OH2      OT      -0.834000       15.9994           0
     31135 TIP3     4140     TIP3     H1       HT       0.417000       1.00800           0
     31136 TIP3     4140     TIP3     H2       HT       0.417000       1.00800           0
     31137 TIP3     4141     TIP3     OH2      OT      -0.834000       15.9994           0
     31138 TIP3     4141     TIP3     H1       HT       0.417000       1.00800           0
     31139 TIP3     4141     TIP3     H2       HT       0.417000       1.00800           0
     31140 TIP3     4142     TIP3     OH2      OT      -0.834000       15.9994           0
     31141 TIP3     4142     TIP3     H1       HT       0.417000       1.00800           0
     31142 TIP3     4142     TIP3     H2       HT       0.417000       1.00800           0
     31143 TIP3     4143     TIP3     OH2      OT      -0.834000       15.9994           0
     31144 TIP3     4143     TIP3     H1       HT       0.417000       1.00800           0
     31145 TIP3     4143     TIP3     H2       HT       0.417000       1.00800           0
     31146 TIP3     4144     TIP3     OH2      OT      -0.834000       15.9994           0
     31147 TIP3     4144     TIP3     H1       HT       0.417000       1.00800           0
     31148 TIP3     4144     TIP3     H2       HT       0.417000       1.00800           0
     31149 TIP3     4145     TIP3     OH2      OT      -0.834000       15.9994           0
     31150 TIP3     4145     TIP3     H1       HT       0.417000       1.00800           0
     31151 TIP3     4145     TIP3     H2       HT       0.417000       1.00800           0
     31152 TIP3     4146     TIP3     OH2      OT      -0.834000       15.9994           0
     31153 TIP3     4146     TIP3     H1       HT       0.417000       1.00800           0
     31154 TIP3     4146     TIP3     H2       HT       0.417000       1.00800           0
     31155 TIP3     4147     TIP3     OH2      OT      -0.834000       15.9994           0
     31156 TIP3     4147     TIP3     H1       HT       0.417000       1.00800           0
     31157 TIP3     4147     TIP3     H2       HT       0.417000       1.00800           0
     31158 TIP3     4148     TIP3     OH2      OT      -0.834000       15.9994           0
     31159 TIP3     4148     TIP3     H1       HT       0.417000       1.00800           0
     31160 TIP3     4148     TIP3     H2       HT       0.417000       1.00800           0
     31161 TIP3     4149     TIP3     OH2      OT      -0.834000       15.9994           0
     31162 TIP3     4149     TIP3     H1       HT       0.417000       1.00800           0
     31163 TIP3     4149     TIP3     H2       HT       0.417000       1.00800           0
     31164 TIP3     4150     TIP3     OH2      OT      -0.834000       15.9994           0
     31165 TIP3     4150     TIP3     H1       HT       0.417000       1.00800           0
     31166 TIP3     4150     TIP3     H2       HT       0.417000       1.00800           0
     31167 TIP3     4151     TIP3     OH2      OT      -0.834000       15.9994           0
     31168 TIP3     4151     TIP3     H1       HT       0.417000       1.00800           0
     31169 TIP3     4151     TIP3     H2       HT       0.417000       1.00800           0
     31170 TIP3     4152     TIP3     OH2      OT      -0.834000       15.9994           0
     31171 TIP3     4152     TIP3     H1       HT       0.417000       1.00800           0
     31172 TIP3     4152     TIP3     H2       HT       0.417000       1.00800           0
     31173 TIP3     4153     TIP3     OH2      OT      -0.834000       15.9994           0
     31174 TIP3     4153     TIP3     H1       HT       0.417000       1.00800           0
     31175 TIP3     4153     TIP3     H2       HT       0.417000       1.00800           0
     31176 TIP3     4154     TIP3     OH2      OT      -0.834000       15.9994           0
     31177 TIP3     4154     TIP3     H1       HT       0.417000       1.00800           0
     31178 TIP3     4154     TIP3     H2       HT       0.417000       1.00800           0
     31179 TIP3     4155     TIP3     OH2      OT      -0.834000       15.9994           0
     31180 TIP3     4155     TIP3     H1       HT       0.417000       1.00800           0
     31181 TIP3     4155     TIP3     H2       HT       0.417000       1.00800           0
     31182 TIP3     4156     TIP3     OH2      OT      -0.834000       15.9994           0
     31183 TIP3     4156     TIP3     H1       HT       0.417000       1.00800           0
     31184 TIP3     4156     TIP3     H2       HT       0.417000       1.00800           0
     31185 TIP3     4157     TIP3     OH2      OT      -0.834000       15.9994           0
     31186 TIP3     4157     TIP3     H1       HT       0.417000       1.00800           0
     31187 TIP3     4157     TIP3     H2       HT       0.417000       1.00800           0
     31188 TIP3     4158     TIP3     OH2      OT      -0.834000       15.9994           0
     31189 TIP3     4158     TIP3     H1       HT       0.417000       1.00800           0
     31190 TIP3     4158     TIP3     H2       HT       0.417000       1.00800           0
     31191 TIP3     4159     TIP3     OH2      OT      -0.834000       15.9994           0
     31192 TIP3     4159     TIP3     H1       HT       0.417000       1.00800           0
     31193 TIP3     4159     TIP3     H2       HT       0.417000       1.00800           0
     31194 TIP3     4160     TIP3     OH2      OT      -0.834000       15.9994           0
     31195 TIP3     4160     TIP3     H1       HT       0.417000       1.00800           0
     31196 TIP3     4160     TIP3     H2       HT       0.417000       1.00800           0
     31197 TIP3     4161     TIP3     OH2      OT      -0.834000       15.9994           0
     31198 TIP3     4161     TIP3     H1       HT       0.417000       1.00800           0
     31199 TIP3     4161     TIP3     H2       HT       0.417000       1.00800           0
     31200 TIP3     4162     TIP3     OH2      OT      -0.834000       15.9994           0
     31201 TIP3     4162     TIP3     H1       HT       0.417000       1.00800           0
     31202 TIP3     4162     TIP3     H2       HT       0.417000       1.00800           0
     31203 TIP3     4163     TIP3     OH2      OT      -0.834000       15.9994           0
     31204 TIP3     4163     TIP3     H1       HT       0.417000       1.00800           0
     31205 TIP3     4163     TIP3     H2       HT       0.417000       1.00800           0
     31206 TIP3     4164     TIP3     OH2      OT      -0.834000       15.9994           0
     31207 TIP3     4164     TIP3     H1       HT       0.417000       1.00800           0
     31208 TIP3     4164     TIP3     H2       HT       0.417000       1.00800           0
     31209 TIP3     4165     TIP3     OH2      OT      -0.834000       15.9994           0
     31210 TIP3     4165     TIP3     H1       HT       0.417000       1.00800           0
     31211 TIP3     4165     TIP3     H2       HT       0.417000       1.00800           0
     31212 TIP3     4166     TIP3     OH2      OT      -0.834000       15.9994           0
     31213 TIP3     4166     TIP3     H1       HT       0.417000       1.00800           0
     31214 TIP3     4166     TIP3     H2       HT       0.417000       1.00800           0
     31215 TIP3     4167     TIP3     OH2      OT      -0.834000       15.9994           0
     31216 TIP3     4167     TIP3     H1       HT       0.417000       1.00800           0
     31217 TIP3     4167     TIP3     H2       HT       0.417000       1.00800           0
     31218 TIP3     4168     TIP3     OH2      OT      -0.834000       15.9994           0
     31219 TIP3     4168     TIP3     H1       HT       0.417000       1.00800           0
     31220 TIP3     4168     TIP3     H2       HT       0.417000       1.00800           0
     31221 TIP3     4169     TIP3     OH2      OT      -0.834000       15.9994           0
     31222 TIP3     4169     TIP3     H1       HT       0.417000       1.00800           0
     31223 TIP3     4169     TIP3     H2       HT       0.417000       1.00800           0
     31224 TIP3     4170     TIP3     OH2      OT      -0.834000       15.9994           0
     31225 TIP3     4170     TIP3     H1       HT       0.417000       1.00800           0
     31226 TIP3     4170     TIP3     H2       HT       0.417000       1.00800           0
     31227 TIP3     4171     TIP3     OH2      OT      -0.834000       15.9994           0
     31228 TIP3     4171     TIP3     H1       HT       0.417000       1.00800           0
     31229 TIP3     4171     TIP3     H2       HT       0.417000       1.00800           0
     31230 TIP3     4172     TIP3     OH2      OT      -0.834000       15.9994           0
     31231 TIP3     4172     TIP3     H1       HT       0.417000       1.00800           0
     31232 TIP3     4172     TIP3     H2       HT       0.417000       1.00800           0
     31233 TIP3     4173     TIP3     OH2      OT      -0.834000       15.9994           0
     31234 TIP3     4173     TIP3     H1       HT       0.417000       1.00800           0
     31235 TIP3     4173     TIP3     H2       HT       0.417000       1.00800           0
     31236 TIP3     4174     TIP3     OH2      OT      -0.834000       15.9994           0
     31237 TIP3     4174     TIP3     H1       HT       0.417000       1.00800           0
     31238 TIP3     4174     TIP3     H2       HT       0.417000       1.00800           0
     31239 TIP3     4175     TIP3     OH2      OT      -0.834000       15.9994           0
     31240 TIP3     4175     TIP3     H1       HT       0.417000       1.00800           0
     31241 TIP3     4175     TIP3     H2       HT       0.417000       1.00800           0
     31242 TIP3     4176     TIP3     OH2      OT      -0.834000       15.9994           0
     31243 TIP3     4176     TIP3     H1       HT       0.417000       1.00800           0
     31244 TIP3     4176     TIP3     H2       HT       0.417000       1.00800           0
     31245 TIP3     4177     TIP3     OH2      OT      -0.834000       15.9994           0
     31246 TIP3     4177     TIP3     H1       HT       0.417000       1.00800           0
     31247 TIP3     4177     TIP3     H2       HT       0.417000       1.00800           0
     31248 TIP3     4178     TIP3     OH2      OT      -0.834000       15.9994           0
     31249 TIP3     4178     TIP3     H1       HT       0.417000       1.00800           0
     31250 TIP3     4178     TIP3     H2       HT       0.417000       1.00800           0
     31251 TIP3     4179     TIP3     OH2      OT      -0.834000       15.9994           0
     31252 TIP3     4179     TIP3     H1       HT       0.417000       1.00800           0
     31253 TIP3     4179     TIP3     H2       HT       0.417000       1.00800           0
     31254 TIP3     4180     TIP3     OH2      OT      -0.834000       15.9994           0
     31255 TIP3     4180     TIP3     H1       HT       0.417000       1.00800           0
     31256 TIP3     4180     TIP3     H2       HT       0.417000       1.00800           0
     31257 TIP3     4181     TIP3     OH2      OT      -0.834000       15.9994           0
     31258 TIP3     4181     TIP3     H1       HT       0.417000       1.00800           0
     31259 TIP3     4181     TIP3     H2       HT       0.417000       1.00800           0
     31260 TIP3     4182     TIP3     OH2      OT      -0.834000       15.9994           0
     31261 TIP3     4182     TIP3     H1       HT       0.417000       1.00800           0
     31262 TIP3     4182     TIP3     H2       HT       0.417000       1.00800           0
     31263 TIP3     4183     TIP3     OH2      OT      -0.834000       15.9994           0
     31264 TIP3     4183     TIP3     H1       HT       0.417000       1.00800           0
     31265 TIP3     4183     TIP3     H2       HT       0.417000       1.00800           0
     31266 TIP3     4184     TIP3     OH2      OT      -0.834000       15.9994           0
     31267 TIP3     4184     TIP3     H1       HT       0.417000       1.00800           0
     31268 TIP3     4184     TIP3     H2       HT       0.417000       1.00800           0
     31269 TIP3     4185     TIP3     OH2      OT      -0.834000       15.9994           0
     31270 TIP3     4185     TIP3     H1       HT       0.417000       1.00800           0
     31271 TIP3     4185     TIP3     H2       HT       0.417000       1.00800           0
     31272 TIP3     4186     TIP3     OH2      OT      -0.834000       15.9994           0
     31273 TIP3     4186     TIP3     H1       HT       0.417000       1.00800           0
     31274 TIP3     4186     TIP3     H2       HT       0.417000       1.00800           0
     31275 TIP3     4187     TIP3     OH2      OT      -0.834000       15.9994           0
     31276 TIP3     4187     TIP3     H1       HT       0.417000       1.00800           0
     31277 TIP3     4187     TIP3     H2       HT       0.417000       1.00800           0
     31278 TIP3     4188     TIP3     OH2      OT      -0.834000       15.9994           0
     31279 TIP3     4188     TIP3     H1       HT       0.417000       1.00800           0
     31280 TIP3     4188     TIP3     H2       HT       0.417000       1.00800           0
     31281 TIP3     4189     TIP3     OH2      OT      -0.834000       15.9994           0
     31282 TIP3     4189     TIP3     H1       HT       0.417000       1.00800           0
     31283 TIP3     4189     TIP3     H2       HT       0.417000       1.00800           0
     31284 TIP3     4190     TIP3     OH2      OT      -0.834000       15.9994           0
     31285 TIP3     4190     TIP3     H1       HT       0.417000       1.00800           0
     31286 TIP3     4190     TIP3     H2       HT       0.417000       1.00800           0
     31287 TIP3     4191     TIP3     OH2      OT      -0.834000       15.9994           0
     31288 TIP3     4191     TIP3     H1       HT       0.417000       1.00800           0
     31289 TIP3     4191     TIP3     H2       HT       0.417000       1.00800           0
     31290 TIP3     4192     TIP3     OH2      OT      -0.834000       15.9994           0
     31291 TIP3     4192     TIP3     H1       HT       0.417000       1.00800           0
     31292 TIP3     4192     TIP3     H2       HT       0.417000       1.00800           0
     31293 TIP3     4193     TIP3     OH2      OT      -0.834000       15.9994           0
     31294 TIP3     4193     TIP3     H1       HT       0.417000       1.00800           0
     31295 TIP3     4193     TIP3     H2       HT       0.417000       1.00800           0
     31296 TIP3     4194     TIP3     OH2      OT      -0.834000       15.9994           0
     31297 TIP3     4194     TIP3     H1       HT       0.417000       1.00800           0
     31298 TIP3     4194     TIP3     H2       HT       0.417000       1.00800           0
     31299 TIP3     4195     TIP3     OH2      OT      -0.834000       15.9994           0
     31300 TIP3     4195     TIP3     H1       HT       0.417000       1.00800           0
     31301 TIP3     4195     TIP3     H2       HT       0.417000       1.00800           0
     31302 TIP3     4196     TIP3     OH2      OT      -0.834000       15.9994           0
     31303 TIP3     4196     TIP3     H1       HT       0.417000       1.00800           0
     31304 TIP3     4196     TIP3     H2       HT       0.417000       1.00800           0
     31305 TIP3     4197     TIP3     OH2      OT      -0.834000       15.9994           0
     31306 TIP3     4197     TIP3     H1       HT       0.417000       1.00800           0
     31307 TIP3     4197     TIP3     H2       HT       0.417000       1.00800           0
     31308 TIP3     4198     TIP3     OH2      OT      -0.834000       15.9994           0
     31309 TIP3     4198     TIP3     H1       HT       0.417000       1.00800           0
     31310 TIP3     4198     TIP3     H2       HT       0.417000       1.00800           0
     31311 TIP3     4199     TIP3     OH2      OT      -0.834000       15.9994           0
     31312 TIP3     4199     TIP3     H1       HT       0.417000       1.00800           0
     31313 TIP3     4199     TIP3     H2       HT       0.417000       1.00800           0
     31314 TIP3     4200     TIP3     OH2      OT      -0.834000       15.9994           0
     31315 TIP3     4200     TIP3     H1       HT       0.417000       1.00800           0
     31316 TIP3     4200     TIP3     H2       HT       0.417000       1.00800           0
     31317 TIP3     4201     TIP3     OH2      OT      -0.834000       15.9994           0
     31318 TIP3     4201     TIP3     H1       HT       0.417000       1.00800           0
     31319 TIP3     4201     TIP3     H2       HT       0.417000       1.00800           0
     31320 TIP3     4202     TIP3     OH2      OT      -0.834000       15.9994           0
     31321 TIP3     4202     TIP3     H1       HT       0.417000       1.00800           0
     31322 TIP3     4202     TIP3     H2       HT       0.417000       1.00800           0
     31323 TIP3     4203     TIP3     OH2      OT      -0.834000       15.9994           0
     31324 TIP3     4203     TIP3     H1       HT       0.417000       1.00800           0
     31325 TIP3     4203     TIP3     H2       HT       0.417000       1.00800           0
     31326 TIP3     4204     TIP3     OH2      OT      -0.834000       15.9994           0
     31327 TIP3     4204     TIP3     H1       HT       0.417000       1.00800           0
     31328 TIP3     4204     TIP3     H2       HT       0.417000       1.00800           0
     31329 TIP3     4205     TIP3     OH2      OT      -0.834000       15.9994           0
     31330 TIP3     4205     TIP3     H1       HT       0.417000       1.00800           0
     31331 TIP3     4205     TIP3     H2       HT       0.417000       1.00800           0
     31332 TIP3     4206     TIP3     OH2      OT      -0.834000       15.9994           0
     31333 TIP3     4206     TIP3     H1       HT       0.417000       1.00800           0
     31334 TIP3     4206     TIP3     H2       HT       0.417000       1.00800           0
     31335 TIP3     4207     TIP3     OH2      OT      -0.834000       15.9994           0
     31336 TIP3     4207     TIP3     H1       HT       0.417000       1.00800           0
     31337 TIP3     4207     TIP3     H2       HT       0.417000       1.00800           0
     31338 TIP3     4208     TIP3     OH2      OT      -0.834000       15.9994           0
     31339 TIP3     4208     TIP3     H1       HT       0.417000       1.00800           0
     31340 TIP3     4208     TIP3     H2       HT       0.417000       1.00800           0
     31341 TIP3     4209     TIP3     OH2      OT      -0.834000       15.9994           0
     31342 TIP3     4209     TIP3     H1       HT       0.417000       1.00800           0
     31343 TIP3     4209     TIP3     H2       HT       0.417000       1.00800           0
     31344 TIP3     4210     TIP3     OH2      OT      -0.834000       15.9994           0
     31345 TIP3     4210     TIP3     H1       HT       0.417000       1.00800           0
     31346 TIP3     4210     TIP3     H2       HT       0.417000       1.00800           0
     31347 TIP3     4211     TIP3     OH2      OT      -0.834000       15.9994           0
     31348 TIP3     4211     TIP3     H1       HT       0.417000       1.00800           0
     31349 TIP3     4211     TIP3     H2       HT       0.417000       1.00800           0
     31350 TIP3     4212     TIP3     OH2      OT      -0.834000       15.9994           0
     31351 TIP3     4212     TIP3     H1       HT       0.417000       1.00800           0
     31352 TIP3     4212     TIP3     H2       HT       0.417000       1.00800           0
     31353 TIP3     4213     TIP3     OH2      OT      -0.834000       15.9994           0
     31354 TIP3     4213     TIP3     H1       HT       0.417000       1.00800           0
     31355 TIP3     4213     TIP3     H2       HT       0.417000       1.00800           0
     31356 TIP3     4214     TIP3     OH2      OT      -0.834000       15.9994           0
     31357 TIP3     4214     TIP3     H1       HT       0.417000       1.00800           0
     31358 TIP3     4214     TIP3     H2       HT       0.417000       1.00800           0
     31359 TIP3     4215     TIP3     OH2      OT      -0.834000       15.9994           0
     31360 TIP3     4215     TIP3     H1       HT       0.417000       1.00800           0
     31361 TIP3     4215     TIP3     H2       HT       0.417000       1.00800           0
     31362 TIP3     4216     TIP3     OH2      OT      -0.834000       15.9994           0
     31363 TIP3     4216     TIP3     H1       HT       0.417000       1.00800           0
     31364 TIP3     4216     TIP3     H2       HT       0.417000       1.00800           0
     31365 TIP3     4217     TIP3     OH2      OT      -0.834000       15.9994           0
     31366 TIP3     4217     TIP3     H1       HT       0.417000       1.00800           0
     31367 TIP3     4217     TIP3     H2       HT       0.417000       1.00800           0
     31368 TIP3     4218     TIP3     OH2      OT      -0.834000       15.9994           0
     31369 TIP3     4218     TIP3     H1       HT       0.417000       1.00800           0
     31370 TIP3     4218     TIP3     H2       HT       0.417000       1.00800           0
     31371 TIP3     4219     TIP3     OH2      OT      -0.834000       15.9994           0
     31372 TIP3     4219     TIP3     H1       HT       0.417000       1.00800           0
     31373 TIP3     4219     TIP3     H2       HT       0.417000       1.00800           0
     31374 TIP3     4220     TIP3     OH2      OT      -0.834000       15.9994           0
     31375 TIP3     4220     TIP3     H1       HT       0.417000       1.00800           0
     31376 TIP3     4220     TIP3     H2       HT       0.417000       1.00800           0
     31377 TIP3     4221     TIP3     OH2      OT      -0.834000       15.9994           0
     31378 TIP3     4221     TIP3     H1       HT       0.417000       1.00800           0
     31379 TIP3     4221     TIP3     H2       HT       0.417000       1.00800           0
     31380 TIP3     4222     TIP3     OH2      OT      -0.834000       15.9994           0
     31381 TIP3     4222     TIP3     H1       HT       0.417000       1.00800           0
     31382 TIP3     4222     TIP3     H2       HT       0.417000       1.00800           0
     31383 TIP3     4223     TIP3     OH2      OT      -0.834000       15.9994           0
     31384 TIP3     4223     TIP3     H1       HT       0.417000       1.00800           0
     31385 TIP3     4223     TIP3     H2       HT       0.417000       1.00800           0
     31386 TIP3     4224     TIP3     OH2      OT      -0.834000       15.9994           0
     31387 TIP3     4224     TIP3     H1       HT       0.417000       1.00800           0
     31388 TIP3     4224     TIP3     H2       HT       0.417000       1.00800           0
     31389 TIP3     4225     TIP3     OH2      OT      -0.834000       15.9994           0
     31390 TIP3     4225     TIP3     H1       HT       0.417000       1.00800           0
     31391 TIP3     4225     TIP3     H2       HT       0.417000       1.00800           0
     31392 TIP3     4226     TIP3     OH2      OT      -0.834000       15.9994           0
     31393 TIP3     4226     TIP3     H1       HT       0.417000       1.00800           0
     31394 TIP3     4226     TIP3     H2       HT       0.417000       1.00800           0
     31395 TIP3     4227     TIP3     OH2      OT      -0.834000       15.9994           0
     31396 TIP3     4227     TIP3     H1       HT       0.417000       1.00800           0
     31397 TIP3     4227     TIP3     H2       HT       0.417000       1.00800           0
     31398 TIP3     4228     TIP3     OH2      OT      -0.834000       15.9994           0
     31399 TIP3     4228     TIP3     H1       HT       0.417000       1.00800           0
     31400 TIP3     4228     TIP3     H2       HT       0.417000       1.00800           0
     31401 TIP3     4229     TIP3     OH2      OT      -0.834000       15.9994           0
     31402 TIP3     4229     TIP3     H1       HT       0.417000       1.00800           0
     31403 TIP3     4229     TIP3     H2       HT       0.417000       1.00800           0
     31404 TIP3     4230     TIP3     OH2      OT      -0.834000       15.9994           0
     31405 TIP3     4230     TIP3     H1       HT       0.417000       1.00800           0
     31406 TIP3     4230     TIP3     H2       HT       0.417000       1.00800           0
     31407 TIP3     4231     TIP3     OH2      OT      -0.834000       15.9994           0
     31408 TIP3     4231     TIP3     H1       HT       0.417000       1.00800           0
     31409 TIP3     4231     TIP3     H2       HT       0.417000       1.00800           0
     31410 TIP3     4232     TIP3     OH2      OT      -0.834000       15.9994           0
     31411 TIP3     4232     TIP3     H1       HT       0.417000       1.00800           0
     31412 TIP3     4232     TIP3     H2       HT       0.417000       1.00800           0
     31413 TIP3     4233     TIP3     OH2      OT      -0.834000       15.9994           0
     31414 TIP3     4233     TIP3     H1       HT       0.417000       1.00800           0
     31415 TIP3     4233     TIP3     H2       HT       0.417000       1.00800           0
     31416 TIP3     4234     TIP3     OH2      OT      -0.834000       15.9994           0
     31417 TIP3     4234     TIP3     H1       HT       0.417000       1.00800           0
     31418 TIP3     4234     TIP3     H2       HT       0.417000       1.00800           0
     31419 TIP3     4235     TIP3     OH2      OT      -0.834000       15.9994           0
     31420 TIP3     4235     TIP3     H1       HT       0.417000       1.00800           0
     31421 TIP3     4235     TIP3     H2       HT       0.417000       1.00800           0
     31422 TIP3     4236     TIP3     OH2      OT      -0.834000       15.9994           0
     31423 TIP3     4236     TIP3     H1       HT       0.417000       1.00800           0
     31424 TIP3     4236     TIP3     H2       HT       0.417000       1.00800           0
     31425 TIP3     4237     TIP3     OH2      OT      -0.834000       15.9994           0
     31426 TIP3     4237     TIP3     H1       HT       0.417000       1.00800           0
     31427 TIP3     4237     TIP3     H2       HT       0.417000       1.00800           0
     31428 TIP3     4238     TIP3     OH2      OT      -0.834000       15.9994           0
     31429 TIP3     4238     TIP3     H1       HT       0.417000       1.00800           0
     31430 TIP3     4238     TIP3     H2       HT       0.417000       1.00800           0
     31431 TIP3     4239     TIP3     OH2      OT      -0.834000       15.9994           0
     31432 TIP3     4239     TIP3     H1       HT       0.417000       1.00800           0
     31433 TIP3     4239     TIP3     H2       HT       0.417000       1.00800           0
     31434 TIP3     4240     TIP3     OH2      OT      -0.834000       15.9994           0
     31435 TIP3     4240     TIP3     H1       HT       0.417000       1.00800           0
     31436 TIP3     4240     TIP3     H2       HT       0.417000       1.00800           0
     31437 TIP3     4241     TIP3     OH2      OT      -0.834000       15.9994           0
     31438 TIP3     4241     TIP3     H1       HT       0.417000       1.00800           0
     31439 TIP3     4241     TIP3     H2       HT       0.417000       1.00800           0
     31440 TIP3     4242     TIP3     OH2      OT      -0.834000       15.9994           0
     31441 TIP3     4242     TIP3     H1       HT       0.417000       1.00800           0
     31442 TIP3     4242     TIP3     H2       HT       0.417000       1.00800           0
     31443 TIP3     4243     TIP3     OH2      OT      -0.834000       15.9994           0
     31444 TIP3     4243     TIP3     H1       HT       0.417000       1.00800           0
     31445 TIP3     4243     TIP3     H2       HT       0.417000       1.00800           0
     31446 TIP3     4244     TIP3     OH2      OT      -0.834000       15.9994           0
     31447 TIP3     4244     TIP3     H1       HT       0.417000       1.00800           0
     31448 TIP3     4244     TIP3     H2       HT       0.417000       1.00800           0
     31449 TIP3     4245     TIP3     OH2      OT      -0.834000       15.9994           0
     31450 TIP3     4245     TIP3     H1       HT       0.417000       1.00800           0
     31451 TIP3     4245     TIP3     H2       HT       0.417000       1.00800           0
     31452 TIP3     4246     TIP3     OH2      OT      -0.834000       15.9994           0
     31453 TIP3     4246     TIP3     H1       HT       0.417000       1.00800           0
     31454 TIP3     4246     TIP3     H2       HT       0.417000       1.00800           0
     31455 TIP3     4247     TIP3     OH2      OT      -0.834000       15.9994           0
     31456 TIP3     4247     TIP3     H1       HT       0.417000       1.00800           0
     31457 TIP3     4247     TIP3     H2       HT       0.417000       1.00800           0
     31458 TIP3     4248     TIP3     OH2      OT      -0.834000       15.9994           0
     31459 TIP3     4248     TIP3     H1       HT       0.417000       1.00800           0
     31460 TIP3     4248     TIP3     H2       HT       0.417000       1.00800           0
     31461 TIP3     4249     TIP3     OH2      OT      -0.834000       15.9994           0
     31462 TIP3     4249     TIP3     H1       HT       0.417000       1.00800           0
     31463 TIP3     4249     TIP3     H2       HT       0.417000       1.00800           0
     31464 TIP3     4250     TIP3     OH2      OT      -0.834000       15.9994           0
     31465 TIP3     4250     TIP3     H1       HT       0.417000       1.00800           0
     31466 TIP3     4250     TIP3     H2       HT       0.417000       1.00800           0
     31467 TIP3     4251     TIP3     OH2      OT      -0.834000       15.9994           0
     31468 TIP3     4251     TIP3     H1       HT       0.417000       1.00800           0
     31469 TIP3     4251     TIP3     H2       HT       0.417000       1.00800           0
     31470 TIP3     4252     TIP3     OH2      OT      -0.834000       15.9994           0
     31471 TIP3     4252     TIP3     H1       HT       0.417000       1.00800           0
     31472 TIP3     4252     TIP3     H2       HT       0.417000       1.00800           0
     31473 TIP3     4253     TIP3     OH2      OT      -0.834000       15.9994           0
     31474 TIP3     4253     TIP3     H1       HT       0.417000       1.00800           0
     31475 TIP3     4253     TIP3     H2       HT       0.417000       1.00800           0
     31476 TIP3     4254     TIP3     OH2      OT      -0.834000       15.9994           0
     31477 TIP3     4254     TIP3     H1       HT       0.417000       1.00800           0
     31478 TIP3     4254     TIP3     H2       HT       0.417000       1.00800           0
     31479 TIP3     4255     TIP3     OH2      OT      -0.834000       15.9994           0
     31480 TIP3     4255     TIP3     H1       HT       0.417000       1.00800           0
     31481 TIP3     4255     TIP3     H2       HT       0.417000       1.00800           0
     31482 TIP3     4256     TIP3     OH2      OT      -0.834000       15.9994           0
     31483 TIP3     4256     TIP3     H1       HT       0.417000       1.00800           0
     31484 TIP3     4256     TIP3     H2       HT       0.417000       1.00800           0
     31485 TIP3     4257     TIP3     OH2      OT      -0.834000       15.9994           0
     31486 TIP3     4257     TIP3     H1       HT       0.417000       1.00800           0
     31487 TIP3     4257     TIP3     H2       HT       0.417000       1.00800           0
     31488 TIP3     4258     TIP3     OH2      OT      -0.834000       15.9994           0
     31489 TIP3     4258     TIP3     H1       HT       0.417000       1.00800           0
     31490 TIP3     4258     TIP3     H2       HT       0.417000       1.00800           0
     31491 TIP3     4259     TIP3     OH2      OT      -0.834000       15.9994           0
     31492 TIP3     4259     TIP3     H1       HT       0.417000       1.00800           0
     31493 TIP3     4259     TIP3     H2       HT       0.417000       1.00800           0
     31494 TIP3     4260     TIP3     OH2      OT      -0.834000       15.9994           0
     31495 TIP3     4260     TIP3     H1       HT       0.417000       1.00800           0
     31496 TIP3     4260     TIP3     H2       HT       0.417000       1.00800           0
     31497 TIP3     4261     TIP3     OH2      OT      -0.834000       15.9994           0
     31498 TIP3     4261     TIP3     H1       HT       0.417000       1.00800           0
     31499 TIP3     4261     TIP3     H2       HT       0.417000       1.00800           0
     31500 TIP3     4262     TIP3     OH2      OT      -0.834000       15.9994           0
     31501 TIP3     4262     TIP3     H1       HT       0.417000       1.00800           0
     31502 TIP3     4262     TIP3     H2       HT       0.417000       1.00800           0
     31503 TIP3     4263     TIP3     OH2      OT      -0.834000       15.9994           0
     31504 TIP3     4263     TIP3     H1       HT       0.417000       1.00800           0
     31505 TIP3     4263     TIP3     H2       HT       0.417000       1.00800           0
     31506 TIP3     4264     TIP3     OH2      OT      -0.834000       15.9994           0
     31507 TIP3     4264     TIP3     H1       HT       0.417000       1.00800           0
     31508 TIP3     4264     TIP3     H2       HT       0.417000       1.00800           0
     31509 TIP3     4265     TIP3     OH2      OT      -0.834000       15.9994           0
     31510 TIP3     4265     TIP3     H1       HT       0.417000       1.00800           0
     31511 TIP3     4265     TIP3     H2       HT       0.417000       1.00800           0
     31512 TIP3     4266     TIP3     OH2      OT      -0.834000       15.9994           0
     31513 TIP3     4266     TIP3     H1       HT       0.417000       1.00800           0
     31514 TIP3     4266     TIP3     H2       HT       0.417000       1.00800           0
     31515 TIP3     4267     TIP3     OH2      OT      -0.834000       15.9994           0
     31516 TIP3     4267     TIP3     H1       HT       0.417000       1.00800           0
     31517 TIP3     4267     TIP3     H2       HT       0.417000       1.00800           0
     31518 TIP3     4268     TIP3     OH2      OT      -0.834000       15.9994           0
     31519 TIP3     4268     TIP3     H1       HT       0.417000       1.00800           0
     31520 TIP3     4268     TIP3     H2       HT       0.417000       1.00800           0
     31521 TIP3     4269     TIP3     OH2      OT      -0.834000       15.9994           0
     31522 TIP3     4269     TIP3     H1       HT       0.417000       1.00800           0
     31523 TIP3     4269     TIP3     H2       HT       0.417000       1.00800           0
     31524 TIP3     4270     TIP3     OH2      OT      -0.834000       15.9994           0
     31525 TIP3     4270     TIP3     H1       HT       0.417000       1.00800           0
     31526 TIP3     4270     TIP3     H2       HT       0.417000       1.00800           0
     31527 TIP3     4271     TIP3     OH2      OT      -0.834000       15.9994           0
     31528 TIP3     4271     TIP3     H1       HT       0.417000       1.00800           0
     31529 TIP3     4271     TIP3     H2       HT       0.417000       1.00800           0
     31530 TIP3     4272     TIP3     OH2      OT      -0.834000       15.9994           0
     31531 TIP3     4272     TIP3     H1       HT       0.417000       1.00800           0
     31532 TIP3     4272     TIP3     H2       HT       0.417000       1.00800           0
     31533 TIP3     4273     TIP3     OH2      OT      -0.834000       15.9994           0
     31534 TIP3     4273     TIP3     H1       HT       0.417000       1.00800           0
     31535 TIP3     4273     TIP3     H2       HT       0.417000       1.00800           0
     31536 TIP3     4274     TIP3     OH2      OT      -0.834000       15.9994           0
     31537 TIP3     4274     TIP3     H1       HT       0.417000       1.00800           0
     31538 TIP3     4274     TIP3     H2       HT       0.417000       1.00800           0
     31539 TIP3     4275     TIP3     OH2      OT      -0.834000       15.9994           0
     31540 TIP3     4275     TIP3     H1       HT       0.417000       1.00800           0
     31541 TIP3     4275     TIP3     H2       HT       0.417000       1.00800           0
     31542 TIP3     4276     TIP3     OH2      OT      -0.834000       15.9994           0
     31543 TIP3     4276     TIP3     H1       HT       0.417000       1.00800           0
     31544 TIP3     4276     TIP3     H2       HT       0.417000       1.00800           0
     31545 TIP3     4277     TIP3     OH2      OT      -0.834000       15.9994           0
     31546 TIP3     4277     TIP3     H1       HT       0.417000       1.00800           0
     31547 TIP3     4277     TIP3     H2       HT       0.417000       1.00800           0
     31548 TIP3     4278     TIP3     OH2      OT      -0.834000       15.9994           0
     31549 TIP3     4278     TIP3     H1       HT       0.417000       1.00800           0
     31550 TIP3     4278     TIP3     H2       HT       0.417000       1.00800           0
     31551 TIP3     4279     TIP3     OH2      OT      -0.834000       15.9994           0
     31552 TIP3     4279     TIP3     H1       HT       0.417000       1.00800           0
     31553 TIP3     4279     TIP3     H2       HT       0.417000       1.00800           0
     31554 TIP3     4280     TIP3     OH2      OT      -0.834000       15.9994           0
     31555 TIP3     4280     TIP3     H1       HT       0.417000       1.00800           0
     31556 TIP3     4280     TIP3     H2       HT       0.417000       1.00800           0
     31557 TIP3     4281     TIP3     OH2      OT      -0.834000       15.9994           0
     31558 TIP3     4281     TIP3     H1       HT       0.417000       1.00800           0
     31559 TIP3     4281     TIP3     H2       HT       0.417000       1.00800           0
     31560 TIP3     4282     TIP3     OH2      OT      -0.834000       15.9994           0
     31561 TIP3     4282     TIP3     H1       HT       0.417000       1.00800           0
     31562 TIP3     4282     TIP3     H2       HT       0.417000       1.00800           0
     31563 TIP3     4283     TIP3     OH2      OT      -0.834000       15.9994           0
     31564 TIP3     4283     TIP3     H1       HT       0.417000       1.00800           0
     31565 TIP3     4283     TIP3     H2       HT       0.417000       1.00800           0
     31566 TIP3     4284     TIP3     OH2      OT      -0.834000       15.9994           0
     31567 TIP3     4284     TIP3     H1       HT       0.417000       1.00800           0
     31568 TIP3     4284     TIP3     H2       HT       0.417000       1.00800           0
     31569 TIP3     4285     TIP3     OH2      OT      -0.834000       15.9994           0
     31570 TIP3     4285     TIP3     H1       HT       0.417000       1.00800           0
     31571 TIP3     4285     TIP3     H2       HT       0.417000       1.00800           0
     31572 TIP3     4286     TIP3     OH2      OT      -0.834000       15.9994           0
     31573 TIP3     4286     TIP3     H1       HT       0.417000       1.00800           0
     31574 TIP3     4286     TIP3     H2       HT       0.417000       1.00800           0
     31575 TIP3     4287     TIP3     OH2      OT      -0.834000       15.9994           0
     31576 TIP3     4287     TIP3     H1       HT       0.417000       1.00800           0
     31577 TIP3     4287     TIP3     H2       HT       0.417000       1.00800           0
     31578 TIP3     4288     TIP3     OH2      OT      -0.834000       15.9994           0
     31579 TIP3     4288     TIP3     H1       HT       0.417000       1.00800           0
     31580 TIP3     4288     TIP3     H2       HT       0.417000       1.00800           0
     31581 TIP3     4289     TIP3     OH2      OT      -0.834000       15.9994           0
     31582 TIP3     4289     TIP3     H1       HT       0.417000       1.00800           0
     31583 TIP3     4289     TIP3     H2       HT       0.417000       1.00800           0
     31584 TIP3     4290     TIP3     OH2      OT      -0.834000       15.9994           0
     31585 TIP3     4290     TIP3     H1       HT       0.417000       1.00800           0
     31586 TIP3     4290     TIP3     H2       HT       0.417000       1.00800           0
     31587 TIP3     4291     TIP3     OH2      OT      -0.834000       15.9994           0
     31588 TIP3     4291     TIP3     H1       HT       0.417000       1.00800           0
     31589 TIP3     4291     TIP3     H2       HT       0.417000       1.00800           0
     31590 TIP3     4292     TIP3     OH2      OT      -0.834000       15.9994           0
     31591 TIP3     4292     TIP3     H1       HT       0.417000       1.00800           0
     31592 TIP3     4292     TIP3     H2       HT       0.417000       1.00800           0
     31593 TIP3     4293     TIP3     OH2      OT      -0.834000       15.9994           0
     31594 TIP3     4293     TIP3     H1       HT       0.417000       1.00800           0
     31595 TIP3     4293     TIP3     H2       HT       0.417000       1.00800           0
     31596 TIP3     4294     TIP3     OH2      OT      -0.834000       15.9994           0
     31597 TIP3     4294     TIP3     H1       HT       0.417000       1.00800           0
     31598 TIP3     4294     TIP3     H2       HT       0.417000       1.00800           0
     31599 TIP3     4295     TIP3     OH2      OT      -0.834000       15.9994           0
     31600 TIP3     4295     TIP3     H1       HT       0.417000       1.00800           0
     31601 TIP3     4295     TIP3     H2       HT       0.417000       1.00800           0
     31602 TIP3     4296     TIP3     OH2      OT      -0.834000       15.9994           0
     31603 TIP3     4296     TIP3     H1       HT       0.417000       1.00800           0
     31604 TIP3     4296     TIP3     H2       HT       0.417000       1.00800           0
     31605 TIP3     4297     TIP3     OH2      OT      -0.834000       15.9994           0
     31606 TIP3     4297     TIP3     H1       HT       0.417000       1.00800           0
     31607 TIP3     4297     TIP3     H2       HT       0.417000       1.00800           0
     31608 TIP3     4298     TIP3     OH2      OT      -0.834000       15.9994           0
     31609 TIP3     4298     TIP3     H1       HT       0.417000       1.00800           0
     31610 TIP3     4298     TIP3     H2       HT       0.417000       1.00800           0
     31611 TIP3     4299     TIP3     OH2      OT      -0.834000       15.9994           0
     31612 TIP3     4299     TIP3     H1       HT       0.417000       1.00800           0
     31613 TIP3     4299     TIP3     H2       HT       0.417000       1.00800           0
     31614 TIP3     4300     TIP3     OH2      OT      -0.834000       15.9994           0
     31615 TIP3     4300     TIP3     H1       HT       0.417000       1.00800           0
     31616 TIP3     4300     TIP3     H2       HT       0.417000       1.00800           0
     31617 TIP3     4301     TIP3     OH2      OT      -0.834000       15.9994           0
     31618 TIP3     4301     TIP3     H1       HT       0.417000       1.00800           0
     31619 TIP3     4301     TIP3     H2       HT       0.417000       1.00800           0
     31620 TIP3     4302     TIP3     OH2      OT      -0.834000       15.9994           0
     31621 TIP3     4302     TIP3     H1       HT       0.417000       1.00800           0
     31622 TIP3     4302     TIP3     H2       HT       0.417000       1.00800           0
     31623 TIP3     4303     TIP3     OH2      OT      -0.834000       15.9994           0
     31624 TIP3     4303     TIP3     H1       HT       0.417000       1.00800           0
     31625 TIP3     4303     TIP3     H2       HT       0.417000       1.00800           0
     31626 TIP3     4304     TIP3     OH2      OT      -0.834000       15.9994           0
     31627 TIP3     4304     TIP3     H1       HT       0.417000       1.00800           0
     31628 TIP3     4304     TIP3     H2       HT       0.417000       1.00800           0
     31629 TIP3     4305     TIP3     OH2      OT      -0.834000       15.9994           0
     31630 TIP3     4305     TIP3     H1       HT       0.417000       1.00800           0
     31631 TIP3     4305     TIP3     H2       HT       0.417000       1.00800           0
     31632 TIP3     4306     TIP3     OH2      OT      -0.834000       15.9994           0
     31633 TIP3     4306     TIP3     H1       HT       0.417000       1.00800           0
     31634 TIP3     4306     TIP3     H2       HT       0.417000       1.00800           0
     31635 TIP3     4307     TIP3     OH2      OT      -0.834000       15.9994           0
     31636 TIP3     4307     TIP3     H1       HT       0.417000       1.00800           0
     31637 TIP3     4307     TIP3     H2       HT       0.417000       1.00800           0
     31638 TIP3     4308     TIP3     OH2      OT      -0.834000       15.9994           0
     31639 TIP3     4308     TIP3     H1       HT       0.417000       1.00800           0
     31640 TIP3     4308     TIP3     H2       HT       0.417000       1.00800           0
     31641 TIP3     4309     TIP3     OH2      OT      -0.834000       15.9994           0
     31642 TIP3     4309     TIP3     H1       HT       0.417000       1.00800           0
     31643 TIP3     4309     TIP3     H2       HT       0.417000       1.00800           0
     31644 TIP3     4310     TIP3     OH2      OT      -0.834000       15.9994           0
     31645 TIP3     4310     TIP3     H1       HT       0.417000       1.00800           0
     31646 TIP3     4310     TIP3     H2       HT       0.417000       1.00800           0
     31647 TIP3     4311     TIP3     OH2      OT      -0.834000       15.9994           0
     31648 TIP3     4311     TIP3     H1       HT       0.417000       1.00800           0
     31649 TIP3     4311     TIP3     H2       HT       0.417000       1.00800           0
     31650 TIP3     4312     TIP3     OH2      OT      -0.834000       15.9994           0
     31651 TIP3     4312     TIP3     H1       HT       0.417000       1.00800           0
     31652 TIP3     4312     TIP3     H2       HT       0.417000       1.00800           0
     31653 TIP3     4313     TIP3     OH2      OT      -0.834000       15.9994           0
     31654 TIP3     4313     TIP3     H1       HT       0.417000       1.00800           0
     31655 TIP3     4313     TIP3     H2       HT       0.417000       1.00800           0
     31656 TIP3     4314     TIP3     OH2      OT      -0.834000       15.9994           0
     31657 TIP3     4314     TIP3     H1       HT       0.417000       1.00800           0
     31658 TIP3     4314     TIP3     H2       HT       0.417000       1.00800           0
     31659 TIP3     4315     TIP3     OH2      OT      -0.834000       15.9994           0
     31660 TIP3     4315     TIP3     H1       HT       0.417000       1.00800           0
     31661 TIP3     4315     TIP3     H2       HT       0.417000       1.00800           0
     31662 TIP3     4316     TIP3     OH2      OT      -0.834000       15.9994           0
     31663 TIP3     4316     TIP3     H1       HT       0.417000       1.00800           0
     31664 TIP3     4316     TIP3     H2       HT       0.417000       1.00800           0
     31665 TIP3     4317     TIP3     OH2      OT      -0.834000       15.9994           0
     31666 TIP3     4317     TIP3     H1       HT       0.417000       1.00800           0
     31667 TIP3     4317     TIP3     H2       HT       0.417000       1.00800           0
     31668 TIP3     4318     TIP3     OH2      OT      -0.834000       15.9994           0
     31669 TIP3     4318     TIP3     H1       HT       0.417000       1.00800           0
     31670 TIP3     4318     TIP3     H2       HT       0.417000       1.00800           0
     31671 TIP3     4319     TIP3     OH2      OT      -0.834000       15.9994           0
     31672 TIP3     4319     TIP3     H1       HT       0.417000       1.00800           0
     31673 TIP3     4319     TIP3     H2       HT       0.417000       1.00800           0
     31674 TIP3     4320     TIP3     OH2      OT      -0.834000       15.9994           0
     31675 TIP3     4320     TIP3     H1       HT       0.417000       1.00800           0
     31676 TIP3     4320     TIP3     H2       HT       0.417000       1.00800           0
     31677 TIP3     4321     TIP3     OH2      OT      -0.834000       15.9994           0
     31678 TIP3     4321     TIP3     H1       HT       0.417000       1.00800           0
     31679 TIP3     4321     TIP3     H2       HT       0.417000       1.00800           0
     31680 TIP3     4322     TIP3     OH2      OT      -0.834000       15.9994           0
     31681 TIP3     4322     TIP3     H1       HT       0.417000       1.00800           0
     31682 TIP3     4322     TIP3     H2       HT       0.417000       1.00800           0
     31683 TIP3     4323     TIP3     OH2      OT      -0.834000       15.9994           0
     31684 TIP3     4323     TIP3     H1       HT       0.417000       1.00800           0
     31685 TIP3     4323     TIP3     H2       HT       0.417000       1.00800           0
     31686 TIP3     4324     TIP3     OH2      OT      -0.834000       15.9994           0
     31687 TIP3     4324     TIP3     H1       HT       0.417000       1.00800           0
     31688 TIP3     4324     TIP3     H2       HT       0.417000       1.00800           0
     31689 TIP3     4325     TIP3     OH2      OT      -0.834000       15.9994           0
     31690 TIP3     4325     TIP3     H1       HT       0.417000       1.00800           0
     31691 TIP3     4325     TIP3     H2       HT       0.417000       1.00800           0
     31692 TIP3     4326     TIP3     OH2      OT      -0.834000       15.9994           0
     31693 TIP3     4326     TIP3     H1       HT       0.417000       1.00800           0
     31694 TIP3     4326     TIP3     H2       HT       0.417000       1.00800           0
     31695 TIP3     4327     TIP3     OH2      OT      -0.834000       15.9994           0
     31696 TIP3     4327     TIP3     H1       HT       0.417000       1.00800           0
     31697 TIP3     4327     TIP3     H2       HT       0.417000       1.00800           0
     31698 TIP3     4328     TIP3     OH2      OT      -0.834000       15.9994           0
     31699 TIP3     4328     TIP3     H1       HT       0.417000       1.00800           0
     31700 TIP3     4328     TIP3     H2       HT       0.417000       1.00800           0
     31701 TIP3     4329     TIP3     OH2      OT      -0.834000       15.9994           0
     31702 TIP3     4329     TIP3     H1       HT       0.417000       1.00800           0
     31703 TIP3     4329     TIP3     H2       HT       0.417000       1.00800           0
     31704 TIP3     4330     TIP3     OH2      OT      -0.834000       15.9994           0
     31705 TIP3     4330     TIP3     H1       HT       0.417000       1.00800           0
     31706 TIP3     4330     TIP3     H2       HT       0.417000       1.00800           0
     31707 TIP3     4331     TIP3     OH2      OT      -0.834000       15.9994           0
     31708 TIP3     4331     TIP3     H1       HT       0.417000       1.00800           0
     31709 TIP3     4331     TIP3     H2       HT       0.417000       1.00800           0
     31710 TIP3     4332     TIP3     OH2      OT      -0.834000       15.9994           0
     31711 TIP3     4332     TIP3     H1       HT       0.417000       1.00800           0
     31712 TIP3     4332     TIP3     H2       HT       0.417000       1.00800           0
     31713 TIP3     4333     TIP3     OH2      OT      -0.834000       15.9994           0
     31714 TIP3     4333     TIP3     H1       HT       0.417000       1.00800           0
     31715 TIP3     4333     TIP3     H2       HT       0.417000       1.00800           0
     31716 TIP3     4334     TIP3     OH2      OT      -0.834000       15.9994           0
     31717 TIP3     4334     TIP3     H1       HT       0.417000       1.00800           0
     31718 TIP3     4334     TIP3     H2       HT       0.417000       1.00800           0
     31719 TIP3     4335     TIP3     OH2      OT      -0.834000       15.9994           0
     31720 TIP3     4335     TIP3     H1       HT       0.417000       1.00800           0
     31721 TIP3     4335     TIP3     H2       HT       0.417000       1.00800           0
     31722 TIP3     4336     TIP3     OH2      OT      -0.834000       15.9994           0
     31723 TIP3     4336     TIP3     H1       HT       0.417000       1.00800           0
     31724 TIP3     4336     TIP3     H2       HT       0.417000       1.00800           0
     31725 TIP3     4337     TIP3     OH2      OT      -0.834000       15.9994           0
     31726 TIP3     4337     TIP3     H1       HT       0.417000       1.00800           0
     31727 TIP3     4337     TIP3     H2       HT       0.417000       1.00800           0
     31728 TIP3     4338     TIP3     OH2      OT      -0.834000       15.9994           0
     31729 TIP3     4338     TIP3     H1       HT       0.417000       1.00800           0
     31730 TIP3     4338     TIP3     H2       HT       0.417000       1.00800           0
     31731 TIP3     4339     TIP3     OH2      OT      -0.834000       15.9994           0
     31732 TIP3     4339     TIP3     H1       HT       0.417000       1.00800           0
     31733 TIP3     4339     TIP3     H2       HT       0.417000       1.00800           0
     31734 TIP3     4340     TIP3     OH2      OT      -0.834000       15.9994           0
     31735 TIP3     4340     TIP3     H1       HT       0.417000       1.00800           0
     31736 TIP3     4340     TIP3     H2       HT       0.417000       1.00800           0
     31737 TIP3     4341     TIP3     OH2      OT      -0.834000       15.9994           0
     31738 TIP3     4341     TIP3     H1       HT       0.417000       1.00800           0
     31739 TIP3     4341     TIP3     H2       HT       0.417000       1.00800           0
     31740 TIP3     4342     TIP3     OH2      OT      -0.834000       15.9994           0
     31741 TIP3     4342     TIP3     H1       HT       0.417000       1.00800           0
     31742 TIP3     4342     TIP3     H2       HT       0.417000       1.00800           0
     31743 TIP3     4343     TIP3     OH2      OT      -0.834000       15.9994           0
     31744 TIP3     4343     TIP3     H1       HT       0.417000       1.00800           0
     31745 TIP3     4343     TIP3     H2       HT       0.417000       1.00800           0
     31746 TIP3     4344     TIP3     OH2      OT      -0.834000       15.9994           0
     31747 TIP3     4344     TIP3     H1       HT       0.417000       1.00800           0
     31748 TIP3     4344     TIP3     H2       HT       0.417000       1.00800           0
     31749 TIP3     4345     TIP3     OH2      OT      -0.834000       15.9994           0
     31750 TIP3     4345     TIP3     H1       HT       0.417000       1.00800           0
     31751 TIP3     4345     TIP3     H2       HT       0.417000       1.00800           0
     31752 TIP3     4346     TIP3     OH2      OT      -0.834000       15.9994           0
     31753 TIP3     4346     TIP3     H1       HT       0.417000       1.00800           0
     31754 TIP3     4346     TIP3     H2       HT       0.417000       1.00800           0
     31755 TIP3     4347     TIP3     OH2      OT      -0.834000       15.9994           0
     31756 TIP3     4347     TIP3     H1       HT       0.417000       1.00800           0
     31757 TIP3     4347     TIP3     H2       HT       0.417000       1.00800           0
     31758 TIP3     4348     TIP3     OH2      OT      -0.834000       15.9994           0
     31759 TIP3     4348     TIP3     H1       HT       0.417000       1.00800           0
     31760 TIP3     4348     TIP3     H2       HT       0.417000       1.00800           0
     31761 TIP3     4349     TIP3     OH2      OT      -0.834000       15.9994           0
     31762 TIP3     4349     TIP3     H1       HT       0.417000       1.00800           0
     31763 TIP3     4349     TIP3     H2       HT       0.417000       1.00800           0
     31764 TIP3     4350     TIP3     OH2      OT      -0.834000       15.9994           0
     31765 TIP3     4350     TIP3     H1       HT       0.417000       1.00800           0
     31766 TIP3     4350     TIP3     H2       HT       0.417000       1.00800           0
     31767 TIP3     4351     TIP3     OH2      OT      -0.834000       15.9994           0
     31768 TIP3     4351     TIP3     H1       HT       0.417000       1.00800           0
     31769 TIP3     4351     TIP3     H2       HT       0.417000       1.00800           0
     31770 TIP3     4352     TIP3     OH2      OT      -0.834000       15.9994           0
     31771 TIP3     4352     TIP3     H1       HT       0.417000       1.00800           0
     31772 TIP3     4352     TIP3     H2       HT       0.417000       1.00800           0
     31773 TIP3     4353     TIP3     OH2      OT      -0.834000       15.9994           0
     31774 TIP3     4353     TIP3     H1       HT       0.417000       1.00800           0
     31775 TIP3     4353     TIP3     H2       HT       0.417000       1.00800           0
     31776 TIP3     4354     TIP3     OH2      OT      -0.834000       15.9994           0
     31777 TIP3     4354     TIP3     H1       HT       0.417000       1.00800           0
     31778 TIP3     4354     TIP3     H2       HT       0.417000       1.00800           0
     31779 TIP3     4355     TIP3     OH2      OT      -0.834000       15.9994           0
     31780 TIP3     4355     TIP3     H1       HT       0.417000       1.00800           0
     31781 TIP3     4355     TIP3     H2       HT       0.417000       1.00800           0
     31782 TIP3     4356     TIP3     OH2      OT      -0.834000       15.9994           0
     31783 TIP3     4356     TIP3     H1       HT       0.417000       1.00800           0
     31784 TIP3     4356     TIP3     H2       HT       0.417000       1.00800           0
     31785 TIP3     4357     TIP3     OH2      OT      -0.834000       15.9994           0
     31786 TIP3     4357     TIP3     H1       HT       0.417000       1.00800           0
     31787 TIP3     4357     TIP3     H2       HT       0.417000       1.00800           0
     31788 TIP3     4358     TIP3     OH2      OT      -0.834000       15.9994           0
     31789 TIP3     4358     TIP3     H1       HT       0.417000       1.00800           0
     31790 TIP3     4358     TIP3     H2       HT       0.417000       1.00800           0
     31791 TIP3     4359     TIP3     OH2      OT      -0.834000       15.9994           0
     31792 TIP3     4359     TIP3     H1       HT       0.417000       1.00800           0
     31793 TIP3     4359     TIP3     H2       HT       0.417000       1.00800           0
     31794 TIP3     4360     TIP3     OH2      OT      -0.834000       15.9994           0
     31795 TIP3     4360     TIP3     H1       HT       0.417000       1.00800           0
     31796 TIP3     4360     TIP3     H2       HT       0.417000       1.00800           0
     31797 TIP3     4361     TIP3     OH2      OT      -0.834000       15.9994           0
     31798 TIP3     4361     TIP3     H1       HT       0.417000       1.00800           0
     31799 TIP3     4361     TIP3     H2       HT       0.417000       1.00800           0
     31800 TIP3     4362     TIP3     OH2      OT      -0.834000       15.9994           0
     31801 TIP3     4362     TIP3     H1       HT       0.417000       1.00800           0
     31802 TIP3     4362     TIP3     H2       HT       0.417000       1.00800           0
     31803 TIP3     4363     TIP3     OH2      OT      -0.834000       15.9994           0
     31804 TIP3     4363     TIP3     H1       HT       0.417000       1.00800           0
     31805 TIP3     4363     TIP3     H2       HT       0.417000       1.00800           0
     31806 TIP3     4364     TIP3     OH2      OT      -0.834000       15.9994           0
     31807 TIP3     4364     TIP3     H1       HT       0.417000       1.00800           0
     31808 TIP3     4364     TIP3     H2       HT       0.417000       1.00800           0
     31809 TIP3     4365     TIP3     OH2      OT      -0.834000       15.9994           0
     31810 TIP3     4365     TIP3     H1       HT       0.417000       1.00800           0
     31811 TIP3     4365     TIP3     H2       HT       0.417000       1.00800           0
     31812 TIP3     4366     TIP3     OH2      OT      -0.834000       15.9994           0
     31813 TIP3     4366     TIP3     H1       HT       0.417000       1.00800           0
     31814 TIP3     4366     TIP3     H2       HT       0.417000       1.00800           0
     31815 TIP3     4367     TIP3     OH2      OT      -0.834000       15.9994           0
     31816 TIP3     4367     TIP3     H1       HT       0.417000       1.00800           0
     31817 TIP3     4367     TIP3     H2       HT       0.417000       1.00800           0
     31818 TIP3     4368     TIP3     OH2      OT      -0.834000       15.9994           0
     31819 TIP3     4368     TIP3     H1       HT       0.417000       1.00800           0
     31820 TIP3     4368     TIP3     H2       HT       0.417000       1.00800           0
     31821 TIP3     4369     TIP3     OH2      OT      -0.834000       15.9994           0
     31822 TIP3     4369     TIP3     H1       HT       0.417000       1.00800           0
     31823 TIP3     4369     TIP3     H2       HT       0.417000       1.00800           0
     31824 TIP3     4370     TIP3     OH2      OT      -0.834000       15.9994           0
     31825 TIP3     4370     TIP3     H1       HT       0.417000       1.00800           0
     31826 TIP3     4370     TIP3     H2       HT       0.417000       1.00800           0
     31827 TIP3     4371     TIP3     OH2      OT      -0.834000       15.9994           0
     31828 TIP3     4371     TIP3     H1       HT       0.417000       1.00800           0
     31829 TIP3     4371     TIP3     H2       HT       0.417000       1.00800           0
     31830 TIP3     4372     TIP3     OH2      OT      -0.834000       15.9994           0
     31831 TIP3     4372     TIP3     H1       HT       0.417000       1.00800           0
     31832 TIP3     4372     TIP3     H2       HT       0.417000       1.00800           0
     31833 TIP3     4373     TIP3     OH2      OT      -0.834000       15.9994           0
     31834 TIP3     4373     TIP3     H1       HT       0.417000       1.00800           0
     31835 TIP3     4373     TIP3     H2       HT       0.417000       1.00800           0
     31836 TIP3     4374     TIP3     OH2      OT      -0.834000       15.9994           0
     31837 TIP3     4374     TIP3     H1       HT       0.417000       1.00800           0
     31838 TIP3     4374     TIP3     H2       HT       0.417000       1.00800           0
     31839 TIP3     4375     TIP3     OH2      OT      -0.834000       15.9994           0
     31840 TIP3     4375     TIP3     H1       HT       0.417000       1.00800           0
     31841 TIP3     4375     TIP3     H2       HT       0.417000       1.00800           0
     31842 TIP3     4376     TIP3     OH2      OT      -0.834000       15.9994           0
     31843 TIP3     4376     TIP3     H1       HT       0.417000       1.00800           0
     31844 TIP3     4376     TIP3     H2       HT       0.417000       1.00800           0
     31845 TIP3     4377     TIP3     OH2      OT      -0.834000       15.9994           0
     31846 TIP3     4377     TIP3     H1       HT       0.417000       1.00800           0
     31847 TIP3     4377     TIP3     H2       HT       0.417000       1.00800           0
     31848 TIP3     4378     TIP3     OH2      OT      -0.834000       15.9994           0
     31849 TIP3     4378     TIP3     H1       HT       0.417000       1.00800           0
     31850 TIP3     4378     TIP3     H2       HT       0.417000       1.00800           0
     31851 TIP3     4379     TIP3     OH2      OT      -0.834000       15.9994           0
     31852 TIP3     4379     TIP3     H1       HT       0.417000       1.00800           0
     31853 TIP3     4379     TIP3     H2       HT       0.417000       1.00800           0
     31854 TIP3     4380     TIP3     OH2      OT      -0.834000       15.9994           0
     31855 TIP3     4380     TIP3     H1       HT       0.417000       1.00800           0
     31856 TIP3     4380     TIP3     H2       HT       0.417000       1.00800           0
     31857 TIP3     4381     TIP3     OH2      OT      -0.834000       15.9994           0
     31858 TIP3     4381     TIP3     H1       HT       0.417000       1.00800           0
     31859 TIP3     4381     TIP3     H2       HT       0.417000       1.00800           0
     31860 TIP3     4382     TIP3     OH2      OT      -0.834000       15.9994           0
     31861 TIP3     4382     TIP3     H1       HT       0.417000       1.00800           0
     31862 TIP3     4382     TIP3     H2       HT       0.417000       1.00800           0
     31863 TIP3     4383     TIP3     OH2      OT      -0.834000       15.9994           0
     31864 TIP3     4383     TIP3     H1       HT       0.417000       1.00800           0
     31865 TIP3     4383     TIP3     H2       HT       0.417000       1.00800           0
     31866 TIP3     4384     TIP3     OH2      OT      -0.834000       15.9994           0
     31867 TIP3     4384     TIP3     H1       HT       0.417000       1.00800           0
     31868 TIP3     4384     TIP3     H2       HT       0.417000       1.00800           0
     31869 TIP3     4385     TIP3     OH2      OT      -0.834000       15.9994           0
     31870 TIP3     4385     TIP3     H1       HT       0.417000       1.00800           0
     31871 TIP3     4385     TIP3     H2       HT       0.417000       1.00800           0
     31872 TIP3     4386     TIP3     OH2      OT      -0.834000       15.9994           0
     31873 TIP3     4386     TIP3     H1       HT       0.417000       1.00800           0
     31874 TIP3     4386     TIP3     H2       HT       0.417000       1.00800           0
     31875 TIP3     4387     TIP3     OH2      OT      -0.834000       15.9994           0
     31876 TIP3     4387     TIP3     H1       HT       0.417000       1.00800           0
     31877 TIP3     4387     TIP3     H2       HT       0.417000       1.00800           0
     31878 TIP3     4388     TIP3     OH2      OT      -0.834000       15.9994           0
     31879 TIP3     4388     TIP3     H1       HT       0.417000       1.00800           0
     31880 TIP3     4388     TIP3     H2       HT       0.417000       1.00800           0
     31881 TIP3     4389     TIP3     OH2      OT      -0.834000       15.9994           0
     31882 TIP3     4389     TIP3     H1       HT       0.417000       1.00800           0
     31883 TIP3     4389     TIP3     H2       HT       0.417000       1.00800           0
     31884 TIP3     4390     TIP3     OH2      OT      -0.834000       15.9994           0
     31885 TIP3     4390     TIP3     H1       HT       0.417000       1.00800           0
     31886 TIP3     4390     TIP3     H2       HT       0.417000       1.00800           0
     31887 TIP3     4391     TIP3     OH2      OT      -0.834000       15.9994           0
     31888 TIP3     4391     TIP3     H1       HT       0.417000       1.00800           0
     31889 TIP3     4391     TIP3     H2       HT       0.417000       1.00800           0
     31890 TIP3     4392     TIP3     OH2      OT      -0.834000       15.9994           0
     31891 TIP3     4392     TIP3     H1       HT       0.417000       1.00800           0
     31892 TIP3     4392     TIP3     H2       HT       0.417000       1.00800           0
     31893 TIP3     4393     TIP3     OH2      OT      -0.834000       15.9994           0
     31894 TIP3     4393     TIP3     H1       HT       0.417000       1.00800           0
     31895 TIP3     4393     TIP3     H2       HT       0.417000       1.00800           0
     31896 TIP3     4394     TIP3     OH2      OT      -0.834000       15.9994           0
     31897 TIP3     4394     TIP3     H1       HT       0.417000       1.00800           0
     31898 TIP3     4394     TIP3     H2       HT       0.417000       1.00800           0
     31899 TIP3     4395     TIP3     OH2      OT      -0.834000       15.9994           0
     31900 TIP3     4395     TIP3     H1       HT       0.417000       1.00800           0
     31901 TIP3     4395     TIP3     H2       HT       0.417000       1.00800           0
     31902 TIP3     4396     TIP3     OH2      OT      -0.834000       15.9994           0
     31903 TIP3     4396     TIP3     H1       HT       0.417000       1.00800           0
     31904 TIP3     4396     TIP3     H2       HT       0.417000       1.00800           0
     31905 TIP3     4397     TIP3     OH2      OT      -0.834000       15.9994           0
     31906 TIP3     4397     TIP3     H1       HT       0.417000       1.00800           0
     31907 TIP3     4397     TIP3     H2       HT       0.417000       1.00800           0
     31908 TIP3     4398     TIP3     OH2      OT      -0.834000       15.9994           0
     31909 TIP3     4398     TIP3     H1       HT       0.417000       1.00800           0
     31910 TIP3     4398     TIP3     H2       HT       0.417000       1.00800           0
     31911 TIP3     4399     TIP3     OH2      OT      -0.834000       15.9994           0
     31912 TIP3     4399     TIP3     H1       HT       0.417000       1.00800           0
     31913 TIP3     4399     TIP3     H2       HT       0.417000       1.00800           0
     31914 TIP3     4400     TIP3     OH2      OT      -0.834000       15.9994           0
     31915 TIP3     4400     TIP3     H1       HT       0.417000       1.00800           0
     31916 TIP3     4400     TIP3     H2       HT       0.417000       1.00800           0
     31917 TIP3     4401     TIP3     OH2      OT      -0.834000       15.9994           0
     31918 TIP3     4401     TIP3     H1       HT       0.417000       1.00800           0
     31919 TIP3     4401     TIP3     H2       HT       0.417000       1.00800           0
     31920 TIP3     4402     TIP3     OH2      OT      -0.834000       15.9994           0
     31921 TIP3     4402     TIP3     H1       HT       0.417000       1.00800           0
     31922 TIP3     4402     TIP3     H2       HT       0.417000       1.00800           0
     31923 TIP3     4403     TIP3     OH2      OT      -0.834000       15.9994           0
     31924 TIP3     4403     TIP3     H1       HT       0.417000       1.00800           0
     31925 TIP3     4403     TIP3     H2       HT       0.417000       1.00800           0
     31926 TIP3     4404     TIP3     OH2      OT      -0.834000       15.9994           0
     31927 TIP3     4404     TIP3     H1       HT       0.417000       1.00800           0
     31928 TIP3     4404     TIP3     H2       HT       0.417000       1.00800           0
     31929 TIP3     4405     TIP3     OH2      OT      -0.834000       15.9994           0
     31930 TIP3     4405     TIP3     H1       HT       0.417000       1.00800           0
     31931 TIP3     4405     TIP3     H2       HT       0.417000       1.00800           0
     31932 TIP3     4406     TIP3     OH2      OT      -0.834000       15.9994           0
     31933 TIP3     4406     TIP3     H1       HT       0.417000       1.00800           0
     31934 TIP3     4406     TIP3     H2       HT       0.417000       1.00800           0
     31935 TIP3     4407     TIP3     OH2      OT      -0.834000       15.9994           0
     31936 TIP3     4407     TIP3     H1       HT       0.417000       1.00800           0
     31937 TIP3     4407     TIP3     H2       HT       0.417000       1.00800           0
     31938 TIP3     4408     TIP3     OH2      OT      -0.834000       15.9994           0
     31939 TIP3     4408     TIP3     H1       HT       0.417000       1.00800           0
     31940 TIP3     4408     TIP3     H2       HT       0.417000       1.00800           0
     31941 TIP3     4409     TIP3     OH2      OT      -0.834000       15.9994           0
     31942 TIP3     4409     TIP3     H1       HT       0.417000       1.00800           0
     31943 TIP3     4409     TIP3     H2       HT       0.417000       1.00800           0
     31944 TIP3     4410     TIP3     OH2      OT      -0.834000       15.9994           0
     31945 TIP3     4410     TIP3     H1       HT       0.417000       1.00800           0
     31946 TIP3     4410     TIP3     H2       HT       0.417000       1.00800           0
     31947 TIP3     4411     TIP3     OH2      OT      -0.834000       15.9994           0
     31948 TIP3     4411     TIP3     H1       HT       0.417000       1.00800           0
     31949 TIP3     4411     TIP3     H2       HT       0.417000       1.00800           0
     31950 TIP3     4412     TIP3     OH2      OT      -0.834000       15.9994           0
     31951 TIP3     4412     TIP3     H1       HT       0.417000       1.00800           0
     31952 TIP3     4412     TIP3     H2       HT       0.417000       1.00800           0
     31953 TIP3     4413     TIP3     OH2      OT      -0.834000       15.9994           0
     31954 TIP3     4413     TIP3     H1       HT       0.417000       1.00800           0
     31955 TIP3     4413     TIP3     H2       HT       0.417000       1.00800           0
     31956 TIP3     4414     TIP3     OH2      OT      -0.834000       15.9994           0
     31957 TIP3     4414     TIP3     H1       HT       0.417000       1.00800           0
     31958 TIP3     4414     TIP3     H2       HT       0.417000       1.00800           0
     31959 TIP3     4415     TIP3     OH2      OT      -0.834000       15.9994           0
     31960 TIP3     4415     TIP3     H1       HT       0.417000       1.00800           0
     31961 TIP3     4415     TIP3     H2       HT       0.417000       1.00800           0
     31962 TIP3     4416     TIP3     OH2      OT      -0.834000       15.9994           0
     31963 TIP3     4416     TIP3     H1       HT       0.417000       1.00800           0
     31964 TIP3     4416     TIP3     H2       HT       0.417000       1.00800           0
     31965 TIP3     4417     TIP3     OH2      OT      -0.834000       15.9994           0
     31966 TIP3     4417     TIP3     H1       HT       0.417000       1.00800           0
     31967 TIP3     4417     TIP3     H2       HT       0.417000       1.00800           0
     31968 TIP3     4418     TIP3     OH2      OT      -0.834000       15.9994           0
     31969 TIP3     4418     TIP3     H1       HT       0.417000       1.00800           0
     31970 TIP3     4418     TIP3     H2       HT       0.417000       1.00800           0
     31971 TIP3     4419     TIP3     OH2      OT      -0.834000       15.9994           0
     31972 TIP3     4419     TIP3     H1       HT       0.417000       1.00800           0
     31973 TIP3     4419     TIP3     H2       HT       0.417000       1.00800           0
     31974 TIP3     4420     TIP3     OH2      OT      -0.834000       15.9994           0
     31975 TIP3     4420     TIP3     H1       HT       0.417000       1.00800           0
     31976 TIP3     4420     TIP3     H2       HT       0.417000       1.00800           0
     31977 TIP3     4421     TIP3     OH2      OT      -0.834000       15.9994           0
     31978 TIP3     4421     TIP3     H1       HT       0.417000       1.00800           0
     31979 TIP3     4421     TIP3     H2       HT       0.417000       1.00800           0
     31980 TIP3     4422     TIP3     OH2      OT      -0.834000       15.9994           0
     31981 TIP3     4422     TIP3     H1       HT       0.417000       1.00800           0
     31982 TIP3     4422     TIP3     H2       HT       0.417000       1.00800           0
     31983 TIP3     4423     TIP3     OH2      OT      -0.834000       15.9994           0
     31984 TIP3     4423     TIP3     H1       HT       0.417000       1.00800           0
     31985 TIP3     4423     TIP3     H2       HT       0.417000       1.00800           0
     31986 TIP3     4424     TIP3     OH2      OT      -0.834000       15.9994           0
     31987 TIP3     4424     TIP3     H1       HT       0.417000       1.00800           0
     31988 TIP3     4424     TIP3     H2       HT       0.417000       1.00800           0
     31989 TIP3     4425     TIP3     OH2      OT      -0.834000       15.9994           0
     31990 TIP3     4425     TIP3     H1       HT       0.417000       1.00800           0
     31991 TIP3     4425     TIP3     H2       HT       0.417000       1.00800           0
     31992 TIP3     4426     TIP3     OH2      OT      -0.834000       15.9994           0
     31993 TIP3     4426     TIP3     H1       HT       0.417000       1.00800           0
     31994 TIP3     4426     TIP3     H2       HT       0.417000       1.00800           0
     31995 TIP3     4427     TIP3     OH2      OT      -0.834000       15.9994           0
     31996 TIP3     4427     TIP3     H1       HT       0.417000       1.00800           0
     31997 TIP3     4427     TIP3     H2       HT       0.417000       1.00800           0
     31998 TIP3     4428     TIP3     OH2      OT      -0.834000       15.9994           0
     31999 TIP3     4428     TIP3     H1       HT       0.417000       1.00800           0
     32000 TIP3     4428     TIP3     H2       HT       0.417000       1.00800           0
     32001 TIP3     4429     TIP3     OH2      OT      -0.834000       15.9994           0
     32002 TIP3     4429     TIP3     H1       HT       0.417000       1.00800           0
     32003 TIP3     4429     TIP3     H2       HT       0.417000       1.00800           0
     32004 TIP3     4430     TIP3     OH2      OT      -0.834000       15.9994           0
     32005 TIP3     4430     TIP3     H1       HT       0.417000       1.00800           0
     32006 TIP3     4430     TIP3     H2       HT       0.417000       1.00800           0
     32007 TIP3     4431     TIP3     OH2      OT      -0.834000       15.9994           0
     32008 TIP3     4431     TIP3     H1       HT       0.417000       1.00800           0
     32009 TIP3     4431     TIP3     H2       HT       0.417000       1.00800           0
     32010 TIP3     4432     TIP3     OH2      OT      -0.834000       15.9994           0
     32011 TIP3     4432     TIP3     H1       HT       0.417000       1.00800           0
     32012 TIP3     4432     TIP3     H2       HT       0.417000       1.00800           0
     32013 TIP3     4433     TIP3     OH2      OT      -0.834000       15.9994           0
     32014 TIP3     4433     TIP3     H1       HT       0.417000       1.00800           0
     32015 TIP3     4433     TIP3     H2       HT       0.417000       1.00800           0
     32016 TIP3     4434     TIP3     OH2      OT      -0.834000       15.9994           0
     32017 TIP3     4434     TIP3     H1       HT       0.417000       1.00800           0
     32018 TIP3     4434     TIP3     H2       HT       0.417000       1.00800           0
     32019 TIP3     4435     TIP3     OH2      OT      -0.834000       15.9994           0
     32020 TIP3     4435     TIP3     H1       HT       0.417000       1.00800           0
     32021 TIP3     4435     TIP3     H2       HT       0.417000       1.00800           0
     32022 TIP3     4436     TIP3     OH2      OT      -0.834000       15.9994           0
     32023 TIP3     4436     TIP3     H1       HT       0.417000       1.00800           0
     32024 TIP3     4436     TIP3     H2       HT       0.417000       1.00800           0
     32025 TIP3     4437     TIP3     OH2      OT      -0.834000       15.9994           0
     32026 TIP3     4437     TIP3     H1       HT       0.417000       1.00800           0
     32027 TIP3     4437     TIP3     H2       HT       0.417000       1.00800           0
     32028 TIP3     4438     TIP3     OH2      OT      -0.834000       15.9994           0
     32029 TIP3     4438     TIP3     H1       HT       0.417000       1.00800           0
     32030 TIP3     4438     TIP3     H2       HT       0.417000       1.00800           0
     32031 TIP3     4439     TIP3     OH2      OT      -0.834000       15.9994           0
     32032 TIP3     4439     TIP3     H1       HT       0.417000       1.00800           0
     32033 TIP3     4439     TIP3     H2       HT       0.417000       1.00800           0
     32034 TIP3     4440     TIP3     OH2      OT      -0.834000       15.9994           0
     32035 TIP3     4440     TIP3     H1       HT       0.417000       1.00800           0
     32036 TIP3     4440     TIP3     H2       HT       0.417000       1.00800           0
     32037 TIP3     4441     TIP3     OH2      OT      -0.834000       15.9994           0
     32038 TIP3     4441     TIP3     H1       HT       0.417000       1.00800           0
     32039 TIP3     4441     TIP3     H2       HT       0.417000       1.00800           0
     32040 TIP3     4442     TIP3     OH2      OT      -0.834000       15.9994           0
     32041 TIP3     4442     TIP3     H1       HT       0.417000       1.00800           0
     32042 TIP3     4442     TIP3     H2       HT       0.417000       1.00800           0
     32043 TIP3     4443     TIP3     OH2      OT      -0.834000       15.9994           0
     32044 TIP3     4443     TIP3     H1       HT       0.417000       1.00800           0
     32045 TIP3     4443     TIP3     H2       HT       0.417000       1.00800           0
     32046 TIP3     4444     TIP3     OH2      OT      -0.834000       15.9994           0
     32047 TIP3     4444     TIP3     H1       HT       0.417000       1.00800           0
     32048 TIP3     4444     TIP3     H2       HT       0.417000       1.00800           0
     32049 TIP3     4445     TIP3     OH2      OT      -0.834000       15.9994           0
     32050 TIP3     4445     TIP3     H1       HT       0.417000       1.00800           0
     32051 TIP3     4445     TIP3     H2       HT       0.417000       1.00800           0
     32052 TIP3     4446     TIP3     OH2      OT      -0.834000       15.9994           0
     32053 TIP3     4446     TIP3     H1       HT       0.417000       1.00800           0
     32054 TIP3     4446     TIP3     H2       HT       0.417000       1.00800           0
     32055 TIP3     4447     TIP3     OH2      OT      -0.834000       15.9994           0
     32056 TIP3     4447     TIP3     H1       HT       0.417000       1.00800           0
     32057 TIP3     4447     TIP3     H2       HT       0.417000       1.00800           0
     32058 TIP3     4448     TIP3     OH2      OT      -0.834000       15.9994           0
     32059 TIP3     4448     TIP3     H1       HT       0.417000       1.00800           0
     32060 TIP3     4448     TIP3     H2       HT       0.417000       1.00800           0
     32061 TIP3     4449     TIP3     OH2      OT      -0.834000       15.9994           0
     32062 TIP3     4449     TIP3     H1       HT       0.417000       1.00800           0
     32063 TIP3     4449     TIP3     H2       HT       0.417000       1.00800           0
     32064 TIP3     4450     TIP3     OH2      OT      -0.834000       15.9994           0
     32065 TIP3     4450     TIP3     H1       HT       0.417000       1.00800           0
     32066 TIP3     4450     TIP3     H2       HT       0.417000       1.00800           0
     32067 TIP3     4451     TIP3     OH2      OT      -0.834000       15.9994           0
     32068 TIP3     4451     TIP3     H1       HT       0.417000       1.00800           0
     32069 TIP3     4451     TIP3     H2       HT       0.417000       1.00800           0
     32070 TIP3     4452     TIP3     OH2      OT      -0.834000       15.9994           0
     32071 TIP3     4452     TIP3     H1       HT       0.417000       1.00800           0
     32072 TIP3     4452     TIP3     H2       HT       0.417000       1.00800           0
     32073 TIP3     4453     TIP3     OH2      OT      -0.834000       15.9994           0
     32074 TIP3     4453     TIP3     H1       HT       0.417000       1.00800           0
     32075 TIP3     4453     TIP3     H2       HT       0.417000       1.00800           0
     32076 TIP3     4454     TIP3     OH2      OT      -0.834000       15.9994           0
     32077 TIP3     4454     TIP3     H1       HT       0.417000       1.00800           0
     32078 TIP3     4454     TIP3     H2       HT       0.417000       1.00800           0
     32079 TIP3     4455     TIP3     OH2      OT      -0.834000       15.9994           0
     32080 TIP3     4455     TIP3     H1       HT       0.417000       1.00800           0
     32081 TIP3     4455     TIP3     H2       HT       0.417000       1.00800           0
     32082 TIP3     4456     TIP3     OH2      OT      -0.834000       15.9994           0
     32083 TIP3     4456     TIP3     H1       HT       0.417000       1.00800           0
     32084 TIP3     4456     TIP3     H2       HT       0.417000       1.00800           0
     32085 TIP3     4457     TIP3     OH2      OT      -0.834000       15.9994           0
     32086 TIP3     4457     TIP3     H1       HT       0.417000       1.00800           0
     32087 TIP3     4457     TIP3     H2       HT       0.417000       1.00800           0
     32088 TIP3     4458     TIP3     OH2      OT      -0.834000       15.9994           0
     32089 TIP3     4458     TIP3     H1       HT       0.417000       1.00800           0
     32090 TIP3     4458     TIP3     H2       HT       0.417000       1.00800           0
     32091 TIP3     4459     TIP3     OH2      OT      -0.834000       15.9994           0
     32092 TIP3     4459     TIP3     H1       HT       0.417000       1.00800           0
     32093 TIP3     4459     TIP3     H2       HT       0.417000       1.00800           0
     32094 TIP3     4460     TIP3     OH2      OT      -0.834000       15.9994           0
     32095 TIP3     4460     TIP3     H1       HT       0.417000       1.00800           0
     32096 TIP3     4460     TIP3     H2       HT       0.417000       1.00800           0
     32097 TIP3     4461     TIP3     OH2      OT      -0.834000       15.9994           0
     32098 TIP3     4461     TIP3     H1       HT       0.417000       1.00800           0
     32099 TIP3     4461     TIP3     H2       HT       0.417000       1.00800           0
     32100 TIP3     4462     TIP3     OH2      OT      -0.834000       15.9994           0
     32101 TIP3     4462     TIP3     H1       HT       0.417000       1.00800           0
     32102 TIP3     4462     TIP3     H2       HT       0.417000       1.00800           0
     32103 TIP3     4463     TIP3     OH2      OT      -0.834000       15.9994           0
     32104 TIP3     4463     TIP3     H1       HT       0.417000       1.00800           0
     32105 TIP3     4463     TIP3     H2       HT       0.417000       1.00800           0
     32106 TIP3     4464     TIP3     OH2      OT      -0.834000       15.9994           0
     32107 TIP3     4464     TIP3     H1       HT       0.417000       1.00800           0
     32108 TIP3     4464     TIP3     H2       HT       0.417000       1.00800           0
     32109 TIP3     4465     TIP3     OH2      OT      -0.834000       15.9994           0
     32110 TIP3     4465     TIP3     H1       HT       0.417000       1.00800           0
     32111 TIP3     4465     TIP3     H2       HT       0.417000       1.00800           0
     32112 TIP3     4466     TIP3     OH2      OT      -0.834000       15.9994           0
     32113 TIP3     4466     TIP3     H1       HT       0.417000       1.00800           0
     32114 TIP3     4466     TIP3     H2       HT       0.417000       1.00800           0
     32115 TIP3     4467     TIP3     OH2      OT      -0.834000       15.9994           0
     32116 TIP3     4467     TIP3     H1       HT       0.417000       1.00800           0
     32117 TIP3     4467     TIP3     H2       HT       0.417000       1.00800           0
     32118 TIP3     4468     TIP3     OH2      OT      -0.834000       15.9994           0
     32119 TIP3     4468     TIP3     H1       HT       0.417000       1.00800           0
     32120 TIP3     4468     TIP3     H2       HT       0.417000       1.00800           0
     32121 TIP3     4469     TIP3     OH2      OT      -0.834000       15.9994           0
     32122 TIP3     4469     TIP3     H1       HT       0.417000       1.00800           0
     32123 TIP3     4469     TIP3     H2       HT       0.417000       1.00800           0
     32124 TIP3     4470     TIP3     OH2      OT      -0.834000       15.9994           0
     32125 TIP3     4470     TIP3     H1       HT       0.417000       1.00800           0
     32126 TIP3     4470     TIP3     H2       HT       0.417000       1.00800           0
     32127 TIP3     4471     TIP3     OH2      OT      -0.834000       15.9994           0
     32128 TIP3     4471     TIP3     H1       HT       0.417000       1.00800           0
     32129 TIP3     4471     TIP3     H2       HT       0.417000       1.00800           0
     32130 TIP3     4472     TIP3     OH2      OT      -0.834000       15.9994           0
     32131 TIP3     4472     TIP3     H1       HT       0.417000       1.00800           0
     32132 TIP3     4472     TIP3     H2       HT       0.417000       1.00800           0
     32133 TIP3     4473     TIP3     OH2      OT      -0.834000       15.9994           0
     32134 TIP3     4473     TIP3     H1       HT       0.417000       1.00800           0
     32135 TIP3     4473     TIP3     H2       HT       0.417000       1.00800           0
     32136 TIP3     4474     TIP3     OH2      OT      -0.834000       15.9994           0
     32137 TIP3     4474     TIP3     H1       HT       0.417000       1.00800           0
     32138 TIP3     4474     TIP3     H2       HT       0.417000       1.00800           0
     32139 TIP3     4475     TIP3     OH2      OT      -0.834000       15.9994           0
     32140 TIP3     4475     TIP3     H1       HT       0.417000       1.00800           0
     32141 TIP3     4475     TIP3     H2       HT       0.417000       1.00800           0
     32142 TIP3     4476     TIP3     OH2      OT      -0.834000       15.9994           0
     32143 TIP3     4476     TIP3     H1       HT       0.417000       1.00800           0
     32144 TIP3     4476     TIP3     H2       HT       0.417000       1.00800           0
     32145 TIP3     4477     TIP3     OH2      OT      -0.834000       15.9994           0
     32146 TIP3     4477     TIP3     H1       HT       0.417000       1.00800           0
     32147 TIP3     4477     TIP3     H2       HT       0.417000       1.00800           0
     32148 TIP3     4478     TIP3     OH2      OT      -0.834000       15.9994           0
     32149 TIP3     4478     TIP3     H1       HT       0.417000       1.00800           0
     32150 TIP3     4478     TIP3     H2       HT       0.417000       1.00800           0
     32151 TIP3     4479     TIP3     OH2      OT      -0.834000       15.9994           0
     32152 TIP3     4479     TIP3     H1       HT       0.417000       1.00800           0
     32153 TIP3     4479     TIP3     H2       HT       0.417000       1.00800           0
     32154 TIP3     4480     TIP3     OH2      OT      -0.834000       15.9994           0
     32155 TIP3     4480     TIP3     H1       HT       0.417000       1.00800           0
     32156 TIP3     4480     TIP3     H2       HT       0.417000       1.00800           0
     32157 TIP3     4481     TIP3     OH2      OT      -0.834000       15.9994           0
     32158 TIP3     4481     TIP3     H1       HT       0.417000       1.00800           0
     32159 TIP3     4481     TIP3     H2       HT       0.417000       1.00800           0
     32160 TIP3     4482     TIP3     OH2      OT      -0.834000       15.9994           0
     32161 TIP3     4482     TIP3     H1       HT       0.417000       1.00800           0
     32162 TIP3     4482     TIP3     H2       HT       0.417000       1.00800           0
     32163 TIP3     4483     TIP3     OH2      OT      -0.834000       15.9994           0
     32164 TIP3     4483     TIP3     H1       HT       0.417000       1.00800           0
     32165 TIP3     4483     TIP3     H2       HT       0.417000       1.00800           0
     32166 TIP3     4484     TIP3     OH2      OT      -0.834000       15.9994           0
     32167 TIP3     4484     TIP3     H1       HT       0.417000       1.00800           0
     32168 TIP3     4484     TIP3     H2       HT       0.417000       1.00800           0
     32169 TIP3     4485     TIP3     OH2      OT      -0.834000       15.9994           0
     32170 TIP3     4485     TIP3     H1       HT       0.417000       1.00800           0
     32171 TIP3     4485     TIP3     H2       HT       0.417000       1.00800           0
     32172 TIP3     4486     TIP3     OH2      OT      -0.834000       15.9994           0
     32173 TIP3     4486     TIP3     H1       HT       0.417000       1.00800           0
     32174 TIP3     4486     TIP3     H2       HT       0.417000       1.00800           0
     32175 TIP3     4487     TIP3     OH2      OT      -0.834000       15.9994           0
     32176 TIP3     4487     TIP3     H1       HT       0.417000       1.00800           0
     32177 TIP3     4487     TIP3     H2       HT       0.417000       1.00800           0
     32178 TIP3     4488     TIP3     OH2      OT      -0.834000       15.9994           0
     32179 TIP3     4488     TIP3     H1       HT       0.417000       1.00800           0
     32180 TIP3     4488     TIP3     H2       HT       0.417000       1.00800           0
     32181 TIP3     4489     TIP3     OH2      OT      -0.834000       15.9994           0
     32182 TIP3     4489     TIP3     H1       HT       0.417000       1.00800           0
     32183 TIP3     4489     TIP3     H2       HT       0.417000       1.00800           0
     32184 TIP3     4490     TIP3     OH2      OT      -0.834000       15.9994           0
     32185 TIP3     4490     TIP3     H1       HT       0.417000       1.00800           0
     32186 TIP3     4490     TIP3     H2       HT       0.417000       1.00800           0
     32187 TIP3     4491     TIP3     OH2      OT      -0.834000       15.9994           0
     32188 TIP3     4491     TIP3     H1       HT       0.417000       1.00800           0
     32189 TIP3     4491     TIP3     H2       HT       0.417000       1.00800           0
     32190 TIP3     4492     TIP3     OH2      OT      -0.834000       15.9994           0
     32191 TIP3     4492     TIP3     H1       HT       0.417000       1.00800           0
     32192 TIP3     4492     TIP3     H2       HT       0.417000       1.00800           0
     32193 TIP3     4493     TIP3     OH2      OT      -0.834000       15.9994           0
     32194 TIP3     4493     TIP3     H1       HT       0.417000       1.00800           0
     32195 TIP3     4493     TIP3     H2       HT       0.417000       1.00800           0
     32196 TIP3     4494     TIP3     OH2      OT      -0.834000       15.9994           0
     32197 TIP3     4494     TIP3     H1       HT       0.417000       1.00800           0
     32198 TIP3     4494     TIP3     H2       HT       0.417000       1.00800           0
     32199 TIP3     4495     TIP3     OH2      OT      -0.834000       15.9994           0
     32200 TIP3     4495     TIP3     H1       HT       0.417000       1.00800           0
     32201 TIP3     4495     TIP3     H2       HT       0.417000       1.00800           0
     32202 TIP3     4496     TIP3     OH2      OT      -0.834000       15.9994           0
     32203 TIP3     4496     TIP3     H1       HT       0.417000       1.00800           0
     32204 TIP3     4496     TIP3     H2       HT       0.417000       1.00800           0
     32205 TIP3     4497     TIP3     OH2      OT      -0.834000       15.9994           0
     32206 TIP3     4497     TIP3     H1       HT       0.417000       1.00800           0
     32207 TIP3     4497     TIP3     H2       HT       0.417000       1.00800           0
     32208 TIP3     4498     TIP3     OH2      OT      -0.834000       15.9994           0
     32209 TIP3     4498     TIP3     H1       HT       0.417000       1.00800           0
     32210 TIP3     4498     TIP3     H2       HT       0.417000       1.00800           0
     32211 TIP3     4499     TIP3     OH2      OT      -0.834000       15.9994           0
     32212 TIP3     4499     TIP3     H1       HT       0.417000       1.00800           0
     32213 TIP3     4499     TIP3     H2       HT       0.417000       1.00800           0
     32214 TIP3     4500     TIP3     OH2      OT      -0.834000       15.9994           0
     32215 TIP3     4500     TIP3     H1       HT       0.417000       1.00800           0
     32216 TIP3     4500     TIP3     H2       HT       0.417000       1.00800           0
     32217 TIP3     4501     TIP3     OH2      OT      -0.834000       15.9994           0
     32218 TIP3     4501     TIP3     H1       HT       0.417000       1.00800           0
     32219 TIP3     4501     TIP3     H2       HT       0.417000       1.00800           0
     32220 TIP3     4502     TIP3     OH2      OT      -0.834000       15.9994           0
     32221 TIP3     4502     TIP3     H1       HT       0.417000       1.00800           0
     32222 TIP3     4502     TIP3     H2       HT       0.417000       1.00800           0
     32223 TIP3     4503     TIP3     OH2      OT      -0.834000       15.9994           0
     32224 TIP3     4503     TIP3     H1       HT       0.417000       1.00800           0
     32225 TIP3     4503     TIP3     H2       HT       0.417000       1.00800           0
     32226 TIP3     4504     TIP3     OH2      OT      -0.834000       15.9994           0
     32227 TIP3     4504     TIP3     H1       HT       0.417000       1.00800           0
     32228 TIP3     4504     TIP3     H2       HT       0.417000       1.00800           0
     32229 TIP3     4505     TIP3     OH2      OT      -0.834000       15.9994           0
     32230 TIP3     4505     TIP3     H1       HT       0.417000       1.00800           0
     32231 TIP3     4505     TIP3     H2       HT       0.417000       1.00800           0
     32232 TIP3     4506     TIP3     OH2      OT      -0.834000       15.9994           0
     32233 TIP3     4506     TIP3     H1       HT       0.417000       1.00800           0
     32234 TIP3     4506     TIP3     H2       HT       0.417000       1.00800           0
     32235 TIP3     4507     TIP3     OH2      OT      -0.834000       15.9994           0
     32236 TIP3     4507     TIP3     H1       HT       0.417000       1.00800           0
     32237 TIP3     4507     TIP3     H2       HT       0.417000       1.00800           0
     32238 TIP3     4508     TIP3     OH2      OT      -0.834000       15.9994           0
     32239 TIP3     4508     TIP3     H1       HT       0.417000       1.00800           0
     32240 TIP3     4508     TIP3     H2       HT       0.417000       1.00800           0
     32241 TIP3     4509     TIP3     OH2      OT      -0.834000       15.9994           0
     32242 TIP3     4509     TIP3     H1       HT       0.417000       1.00800           0
     32243 TIP3     4509     TIP3     H2       HT       0.417000       1.00800           0
     32244 TIP3     4510     TIP3     OH2      OT      -0.834000       15.9994           0
     32245 TIP3     4510     TIP3     H1       HT       0.417000       1.00800           0
     32246 TIP3     4510     TIP3     H2       HT       0.417000       1.00800           0
     32247 TIP3     4511     TIP3     OH2      OT      -0.834000       15.9994           0
     32248 TIP3     4511     TIP3     H1       HT       0.417000       1.00800           0
     32249 TIP3     4511     TIP3     H2       HT       0.417000       1.00800           0
     32250 TIP3     4512     TIP3     OH2      OT      -0.834000       15.9994           0
     32251 TIP3     4512     TIP3     H1       HT       0.417000       1.00800           0
     32252 TIP3     4512     TIP3     H2       HT       0.417000       1.00800           0
     32253 TIP3     4513     TIP3     OH2      OT      -0.834000       15.9994           0
     32254 TIP3     4513     TIP3     H1       HT       0.417000       1.00800           0
     32255 TIP3     4513     TIP3     H2       HT       0.417000       1.00800           0
     32256 TIP3     4514     TIP3     OH2      OT      -0.834000       15.9994           0
     32257 TIP3     4514     TIP3     H1       HT       0.417000       1.00800           0
     32258 TIP3     4514     TIP3     H2       HT       0.417000       1.00800           0
     32259 TIP3     4515     TIP3     OH2      OT      -0.834000       15.9994           0
     32260 TIP3     4515     TIP3     H1       HT       0.417000       1.00800           0
     32261 TIP3     4515     TIP3     H2       HT       0.417000       1.00800           0
     32262 TIP3     4516     TIP3     OH2      OT      -0.834000       15.9994           0
     32263 TIP3     4516     TIP3     H1       HT       0.417000       1.00800           0
     32264 TIP3     4516     TIP3     H2       HT       0.417000       1.00800           0
     32265 TIP3     4517     TIP3     OH2      OT      -0.834000       15.9994           0
     32266 TIP3     4517     TIP3     H1       HT       0.417000       1.00800           0
     32267 TIP3     4517     TIP3     H2       HT       0.417000       1.00800           0
     32268 TIP3     4518     TIP3     OH2      OT      -0.834000       15.9994           0
     32269 TIP3     4518     TIP3     H1       HT       0.417000       1.00800           0
     32270 TIP3     4518     TIP3     H2       HT       0.417000       1.00800           0
     32271 TIP3     4519     TIP3     OH2      OT      -0.834000       15.9994           0
     32272 TIP3     4519     TIP3     H1       HT       0.417000       1.00800           0
     32273 TIP3     4519     TIP3     H2       HT       0.417000       1.00800           0
     32274 TIP3     4520     TIP3     OH2      OT      -0.834000       15.9994           0
     32275 TIP3     4520     TIP3     H1       HT       0.417000       1.00800           0
     32276 TIP3     4520     TIP3     H2       HT       0.417000       1.00800           0
     32277 TIP3     4521     TIP3     OH2      OT      -0.834000       15.9994           0
     32278 TIP3     4521     TIP3     H1       HT       0.417000       1.00800           0
     32279 TIP3     4521     TIP3     H2       HT       0.417000       1.00800           0
     32280 TIP3     4522     TIP3     OH2      OT      -0.834000       15.9994           0
     32281 TIP3     4522     TIP3     H1       HT       0.417000       1.00800           0
     32282 TIP3     4522     TIP3     H2       HT       0.417000       1.00800           0
     32283 TIP3     4523     TIP3     OH2      OT      -0.834000       15.9994           0
     32284 TIP3     4523     TIP3     H1       HT       0.417000       1.00800           0
     32285 TIP3     4523     TIP3     H2       HT       0.417000       1.00800           0
     32286 TIP3     4524     TIP3     OH2      OT      -0.834000       15.9994           0
     32287 TIP3     4524     TIP3     H1       HT       0.417000       1.00800           0
     32288 TIP3     4524     TIP3     H2       HT       0.417000       1.00800           0
     32289 TIP3     4525     TIP3     OH2      OT      -0.834000       15.9994           0
     32290 TIP3     4525     TIP3     H1       HT       0.417000       1.00800           0
     32291 TIP3     4525     TIP3     H2       HT       0.417000       1.00800           0
     32292 TIP3     4526     TIP3     OH2      OT      -0.834000       15.9994           0
     32293 TIP3     4526     TIP3     H1       HT       0.417000       1.00800           0
     32294 TIP3     4526     TIP3     H2       HT       0.417000       1.00800           0
     32295 TIP3     4527     TIP3     OH2      OT      -0.834000       15.9994           0
     32296 TIP3     4527     TIP3     H1       HT       0.417000       1.00800           0
     32297 TIP3     4527     TIP3     H2       HT       0.417000       1.00800           0
     32298 TIP3     4528     TIP3     OH2      OT      -0.834000       15.9994           0
     32299 TIP3     4528     TIP3     H1       HT       0.417000       1.00800           0
     32300 TIP3     4528     TIP3     H2       HT       0.417000       1.00800           0
     32301 TIP3     4529     TIP3     OH2      OT      -0.834000       15.9994           0
     32302 TIP3     4529     TIP3     H1       HT       0.417000       1.00800           0
     32303 TIP3     4529     TIP3     H2       HT       0.417000       1.00800           0
     32304 TIP3     4530     TIP3     OH2      OT      -0.834000       15.9994           0
     32305 TIP3     4530     TIP3     H1       HT       0.417000       1.00800           0
     32306 TIP3     4530     TIP3     H2       HT       0.417000       1.00800           0
     32307 TIP3     4531     TIP3     OH2      OT      -0.834000       15.9994           0
     32308 TIP3     4531     TIP3     H1       HT       0.417000       1.00800           0
     32309 TIP3     4531     TIP3     H2       HT       0.417000       1.00800           0
     32310 TIP3     4532     TIP3     OH2      OT      -0.834000       15.9994           0
     32311 TIP3     4532     TIP3     H1       HT       0.417000       1.00800           0
     32312 TIP3     4532     TIP3     H2       HT       0.417000       1.00800           0
     32313 TIP3     4533     TIP3     OH2      OT      -0.834000       15.9994           0
     32314 TIP3     4533     TIP3     H1       HT       0.417000       1.00800           0
     32315 TIP3     4533     TIP3     H2       HT       0.417000       1.00800           0
     32316 TIP3     4534     TIP3     OH2      OT      -0.834000       15.9994           0
     32317 TIP3     4534     TIP3     H1       HT       0.417000       1.00800           0
     32318 TIP3     4534     TIP3     H2       HT       0.417000       1.00800           0
     32319 TIP3     4535     TIP3     OH2      OT      -0.834000       15.9994           0
     32320 TIP3     4535     TIP3     H1       HT       0.417000       1.00800           0
     32321 TIP3     4535     TIP3     H2       HT       0.417000       1.00800           0
     32322 TIP3     4536     TIP3     OH2      OT      -0.834000       15.9994           0
     32323 TIP3     4536     TIP3     H1       HT       0.417000       1.00800           0
     32324 TIP3     4536     TIP3     H2       HT       0.417000       1.00800           0
     32325 TIP3     4537     TIP3     OH2      OT      -0.834000       15.9994           0
     32326 TIP3     4537     TIP3     H1       HT       0.417000       1.00800           0
     32327 TIP3     4537     TIP3     H2       HT       0.417000       1.00800           0
     32328 TIP3     4538     TIP3     OH2      OT      -0.834000       15.9994           0
     32329 TIP3     4538     TIP3     H1       HT       0.417000       1.00800           0
     32330 TIP3     4538     TIP3     H2       HT       0.417000       1.00800           0
     32331 TIP3     4539     TIP3     OH2      OT      -0.834000       15.9994           0
     32332 TIP3     4539     TIP3     H1       HT       0.417000       1.00800           0
     32333 TIP3     4539     TIP3     H2       HT       0.417000       1.00800           0
     32334 TIP3     4540     TIP3     OH2      OT      -0.834000       15.9994           0
     32335 TIP3     4540     TIP3     H1       HT       0.417000       1.00800           0
     32336 TIP3     4540     TIP3     H2       HT       0.417000       1.00800           0
     32337 TIP3     4541     TIP3     OH2      OT      -0.834000       15.9994           0
     32338 TIP3     4541     TIP3     H1       HT       0.417000       1.00800           0
     32339 TIP3     4541     TIP3     H2       HT       0.417000       1.00800           0
     32340 TIP3     4542     TIP3     OH2      OT      -0.834000       15.9994           0
     32341 TIP3     4542     TIP3     H1       HT       0.417000       1.00800           0
     32342 TIP3     4542     TIP3     H2       HT       0.417000       1.00800           0
     32343 TIP3     4543     TIP3     OH2      OT      -0.834000       15.9994           0
     32344 TIP3     4543     TIP3     H1       HT       0.417000       1.00800           0
     32345 TIP3     4543     TIP3     H2       HT       0.417000       1.00800           0
     32346 TIP3     4544     TIP3     OH2      OT      -0.834000       15.9994           0
     32347 TIP3     4544     TIP3     H1       HT       0.417000       1.00800           0
     32348 TIP3     4544     TIP3     H2       HT       0.417000       1.00800           0
     32349 TIP3     4545     TIP3     OH2      OT      -0.834000       15.9994           0
     32350 TIP3     4545     TIP3     H1       HT       0.417000       1.00800           0
     32351 TIP3     4545     TIP3     H2       HT       0.417000       1.00800           0
     32352 TIP3     4546     TIP3     OH2      OT      -0.834000       15.9994           0
     32353 TIP3     4546     TIP3     H1       HT       0.417000       1.00800           0
     32354 TIP3     4546     TIP3     H2       HT       0.417000       1.00800           0
     32355 TIP3     4547     TIP3     OH2      OT      -0.834000       15.9994           0
     32356 TIP3     4547     TIP3     H1       HT       0.417000       1.00800           0
     32357 TIP3     4547     TIP3     H2       HT       0.417000       1.00800           0
     32358 TIP3     4548     TIP3     OH2      OT      -0.834000       15.9994           0
     32359 TIP3     4548     TIP3     H1       HT       0.417000       1.00800           0
     32360 TIP3     4548     TIP3     H2       HT       0.417000       1.00800           0
     32361 TIP3     4549     TIP3     OH2      OT      -0.834000       15.9994           0
     32362 TIP3     4549     TIP3     H1       HT       0.417000       1.00800           0
     32363 TIP3     4549     TIP3     H2       HT       0.417000       1.00800           0
     32364 TIP3     4550     TIP3     OH2      OT      -0.834000       15.9994           0
     32365 TIP3     4550     TIP3     H1       HT       0.417000       1.00800           0
     32366 TIP3     4550     TIP3     H2       HT       0.417000       1.00800           0
     32367 TIP3     4551     TIP3     OH2      OT      -0.834000       15.9994           0
     32368 TIP3     4551     TIP3     H1       HT       0.417000       1.00800           0
     32369 TIP3     4551     TIP3     H2       HT       0.417000       1.00800           0
     32370 TIP3     4552     TIP3     OH2      OT      -0.834000       15.9994           0
     32371 TIP3     4552     TIP3     H1       HT       0.417000       1.00800           0
     32372 TIP3     4552     TIP3     H2       HT       0.417000       1.00800           0
     32373 TIP3     4553     TIP3     OH2      OT      -0.834000       15.9994           0
     32374 TIP3     4553     TIP3     H1       HT       0.417000       1.00800           0
     32375 TIP3     4553     TIP3     H2       HT       0.417000       1.00800           0
     32376 TIP3     4554     TIP3     OH2      OT      -0.834000       15.9994           0
     32377 TIP3     4554     TIP3     H1       HT       0.417000       1.00800           0
     32378 TIP3     4554     TIP3     H2       HT       0.417000       1.00800           0
     32379 TIP3     4555     TIP3     OH2      OT      -0.834000       15.9994           0
     32380 TIP3     4555     TIP3     H1       HT       0.417000       1.00800           0
     32381 TIP3     4555     TIP3     H2       HT       0.417000       1.00800           0
     32382 TIP3     4556     TIP3     OH2      OT      -0.834000       15.9994           0
     32383 TIP3     4556     TIP3     H1       HT       0.417000       1.00800           0
     32384 TIP3     4556     TIP3     H2       HT       0.417000       1.00800           0
     32385 TIP3     4557     TIP3     OH2      OT      -0.834000       15.9994           0
     32386 TIP3     4557     TIP3     H1       HT       0.417000       1.00800           0
     32387 TIP3     4557     TIP3     H2       HT       0.417000       1.00800           0
     32388 TIP3     4558     TIP3     OH2      OT      -0.834000       15.9994           0
     32389 TIP3     4558     TIP3     H1       HT       0.417000       1.00800           0
     32390 TIP3     4558     TIP3     H2       HT       0.417000       1.00800           0
     32391 TIP3     4559     TIP3     OH2      OT      -0.834000       15.9994           0
     32392 TIP3     4559     TIP3     H1       HT       0.417000       1.00800           0
     32393 TIP3     4559     TIP3     H2       HT       0.417000       1.00800           0
     32394 TIP3     4560     TIP3     OH2      OT      -0.834000       15.9994           0
     32395 TIP3     4560     TIP3     H1       HT       0.417000       1.00800           0
     32396 TIP3     4560     TIP3     H2       HT       0.417000       1.00800           0
     32397 TIP3     4561     TIP3     OH2      OT      -0.834000       15.9994           0
     32398 TIP3     4561     TIP3     H1       HT       0.417000       1.00800           0
     32399 TIP3     4561     TIP3     H2       HT       0.417000       1.00800           0
     32400 TIP3     4562     TIP3     OH2      OT      -0.834000       15.9994           0
     32401 TIP3     4562     TIP3     H1       HT       0.417000       1.00800           0
     32402 TIP3     4562     TIP3     H2       HT       0.417000       1.00800           0
     32403 TIP3     4563     TIP3     OH2      OT      -0.834000       15.9994           0
     32404 TIP3     4563     TIP3     H1       HT       0.417000       1.00800           0
     32405 TIP3     4563     TIP3     H2       HT       0.417000       1.00800           0
     32406 TIP3     4564     TIP3     OH2      OT      -0.834000       15.9994           0
     32407 TIP3     4564     TIP3     H1       HT       0.417000       1.00800           0
     32408 TIP3     4564     TIP3     H2       HT       0.417000       1.00800           0
     32409 TIP3     4565     TIP3     OH2      OT      -0.834000       15.9994           0
     32410 TIP3     4565     TIP3     H1       HT       0.417000       1.00800           0
     32411 TIP3     4565     TIP3     H2       HT       0.417000       1.00800           0
     32412 TIP3     4566     TIP3     OH2      OT      -0.834000       15.9994           0
     32413 TIP3     4566     TIP3     H1       HT       0.417000       1.00800           0
     32414 TIP3     4566     TIP3     H2       HT       0.417000       1.00800           0
     32415 TIP3     4567     TIP3     OH2      OT      -0.834000       15.9994           0
     32416 TIP3     4567     TIP3     H1       HT       0.417000       1.00800           0
     32417 TIP3     4567     TIP3     H2       HT       0.417000       1.00800           0
     32418 TIP3     4568     TIP3     OH2      OT      -0.834000       15.9994           0
     32419 TIP3     4568     TIP3     H1       HT       0.417000       1.00800           0
     32420 TIP3     4568     TIP3     H2       HT       0.417000       1.00800           0
     32421 TIP3     4569     TIP3     OH2      OT      -0.834000       15.9994           0
     32422 TIP3     4569     TIP3     H1       HT       0.417000       1.00800           0
     32423 TIP3     4569     TIP3     H2       HT       0.417000       1.00800           0
     32424 TIP3     4570     TIP3     OH2      OT      -0.834000       15.9994           0
     32425 TIP3     4570     TIP3     H1       HT       0.417000       1.00800           0
     32426 TIP3     4570     TIP3     H2       HT       0.417000       1.00800           0
     32427 TIP3     4571     TIP3     OH2      OT      -0.834000       15.9994           0
     32428 TIP3     4571     TIP3     H1       HT       0.417000       1.00800           0
     32429 TIP3     4571     TIP3     H2       HT       0.417000       1.00800           0
     32430 TIP3     4572     TIP3     OH2      OT      -0.834000       15.9994           0
     32431 TIP3     4572     TIP3     H1       HT       0.417000       1.00800           0
     32432 TIP3     4572     TIP3     H2       HT       0.417000       1.00800           0
     32433 TIP3     4573     TIP3     OH2      OT      -0.834000       15.9994           0
     32434 TIP3     4573     TIP3     H1       HT       0.417000       1.00800           0
     32435 TIP3     4573     TIP3     H2       HT       0.417000       1.00800           0
     32436 TIP3     4574     TIP3     OH2      OT      -0.834000       15.9994           0
     32437 TIP3     4574     TIP3     H1       HT       0.417000       1.00800           0
     32438 TIP3     4574     TIP3     H2       HT       0.417000       1.00800           0
     32439 TIP3     4575     TIP3     OH2      OT      -0.834000       15.9994           0
     32440 TIP3     4575     TIP3     H1       HT       0.417000       1.00800           0
     32441 TIP3     4575     TIP3     H2       HT       0.417000       1.00800           0
     32442 TIP3     4576     TIP3     OH2      OT      -0.834000       15.9994           0
     32443 TIP3     4576     TIP3     H1       HT       0.417000       1.00800           0
     32444 TIP3     4576     TIP3     H2       HT       0.417000       1.00800           0
     32445 TIP3     4577     TIP3     OH2      OT      -0.834000       15.9994           0
     32446 TIP3     4577     TIP3     H1       HT       0.417000       1.00800           0
     32447 TIP3     4577     TIP3     H2       HT       0.417000       1.00800           0
     32448 TIP3     4578     TIP3     OH2      OT      -0.834000       15.9994           0
     32449 TIP3     4578     TIP3     H1       HT       0.417000       1.00800           0
     32450 TIP3     4578     TIP3     H2       HT       0.417000       1.00800           0
     32451 TIP3     4579     TIP3     OH2      OT      -0.834000       15.9994           0
     32452 TIP3     4579     TIP3     H1       HT       0.417000       1.00800           0
     32453 TIP3     4579     TIP3     H2       HT       0.417000       1.00800           0
     32454 TIP3     4580     TIP3     OH2      OT      -0.834000       15.9994           0
     32455 TIP3     4580     TIP3     H1       HT       0.417000       1.00800           0
     32456 TIP3     4580     TIP3     H2       HT       0.417000       1.00800           0
     32457 TIP3     4581     TIP3     OH2      OT      -0.834000       15.9994           0
     32458 TIP3     4581     TIP3     H1       HT       0.417000       1.00800           0
     32459 TIP3     4581     TIP3     H2       HT       0.417000       1.00800           0
     32460 TIP3     4582     TIP3     OH2      OT      -0.834000       15.9994           0
     32461 TIP3     4582     TIP3     H1       HT       0.417000       1.00800           0
     32462 TIP3     4582     TIP3     H2       HT       0.417000       1.00800           0
     32463 TIP3     4583     TIP3     OH2      OT      -0.834000       15.9994           0
     32464 TIP3     4583     TIP3     H1       HT       0.417000       1.00800           0
     32465 TIP3     4583     TIP3     H2       HT       0.417000       1.00800           0
     32466 TIP3     4584     TIP3     OH2      OT      -0.834000       15.9994           0
     32467 TIP3     4584     TIP3     H1       HT       0.417000       1.00800           0
     32468 TIP3     4584     TIP3     H2       HT       0.417000       1.00800           0
     32469 TIP3     4585     TIP3     OH2      OT      -0.834000       15.9994           0
     32470 TIP3     4585     TIP3     H1       HT       0.417000       1.00800           0
     32471 TIP3     4585     TIP3     H2       HT       0.417000       1.00800           0
     32472 TIP3     4586     TIP3     OH2      OT      -0.834000       15.9994           0
     32473 TIP3     4586     TIP3     H1       HT       0.417000       1.00800           0
     32474 TIP3     4586     TIP3     H2       HT       0.417000       1.00800           0
     32475 TIP3     4587     TIP3     OH2      OT      -0.834000       15.9994           0
     32476 TIP3     4587     TIP3     H1       HT       0.417000       1.00800           0
     32477 TIP3     4587     TIP3     H2       HT       0.417000       1.00800           0
     32478 TIP3     4588     TIP3     OH2      OT      -0.834000       15.9994           0
     32479 TIP3     4588     TIP3     H1       HT       0.417000       1.00800           0
     32480 TIP3     4588     TIP3     H2       HT       0.417000       1.00800           0
     32481 TIP3     4589     TIP3     OH2      OT      -0.834000       15.9994           0
     32482 TIP3     4589     TIP3     H1       HT       0.417000       1.00800           0
     32483 TIP3     4589     TIP3     H2       HT       0.417000       1.00800           0
     32484 TIP3     4590     TIP3     OH2      OT      -0.834000       15.9994           0
     32485 TIP3     4590     TIP3     H1       HT       0.417000       1.00800           0
     32486 TIP3     4590     TIP3     H2       HT       0.417000       1.00800           0
     32487 TIP3     4591     TIP3     OH2      OT      -0.834000       15.9994           0
     32488 TIP3     4591     TIP3     H1       HT       0.417000       1.00800           0
     32489 TIP3     4591     TIP3     H2       HT       0.417000       1.00800           0
     32490 TIP3     4592     TIP3     OH2      OT      -0.834000       15.9994           0
     32491 TIP3     4592     TIP3     H1       HT       0.417000       1.00800           0
     32492 TIP3     4592     TIP3     H2       HT       0.417000       1.00800           0
     32493 TIP3     4593     TIP3     OH2      OT      -0.834000       15.9994           0
     32494 TIP3     4593     TIP3     H1       HT       0.417000       1.00800           0
     32495 TIP3     4593     TIP3     H2       HT       0.417000       1.00800           0
     32496 TIP3     4594     TIP3     OH2      OT      -0.834000       15.9994           0
     32497 TIP3     4594     TIP3     H1       HT       0.417000       1.00800           0
     32498 TIP3     4594     TIP3     H2       HT       0.417000       1.00800           0
     32499 TIP3     4595     TIP3     OH2      OT      -0.834000       15.9994           0
     32500 TIP3     4595     TIP3     H1       HT       0.417000       1.00800           0
     32501 TIP3     4595     TIP3     H2       HT       0.417000       1.00800           0
     32502 TIP3     4596     TIP3     OH2      OT      -0.834000       15.9994           0
     32503 TIP3     4596     TIP3     H1       HT       0.417000       1.00800           0
     32504 TIP3     4596     TIP3     H2       HT       0.417000       1.00800           0
     32505 TIP3     4597     TIP3     OH2      OT      -0.834000       15.9994           0
     32506 TIP3     4597     TIP3     H1       HT       0.417000       1.00800           0
     32507 TIP3     4597     TIP3     H2       HT       0.417000       1.00800           0
     32508 TIP3     4598     TIP3     OH2      OT      -0.834000       15.9994           0
     32509 TIP3     4598     TIP3     H1       HT       0.417000       1.00800           0
     32510 TIP3     4598     TIP3     H2       HT       0.417000       1.00800           0
     32511 TIP3     4599     TIP3     OH2      OT      -0.834000       15.9994           0
     32512 TIP3     4599     TIP3     H1       HT       0.417000       1.00800           0
     32513 TIP3     4599     TIP3     H2       HT       0.417000       1.00800           0
     32514 TIP3     4600     TIP3     OH2      OT      -0.834000       15.9994           0
     32515 TIP3     4600     TIP3     H1       HT       0.417000       1.00800           0
     32516 TIP3     4600     TIP3     H2       HT       0.417000       1.00800           0
     32517 TIP3     4601     TIP3     OH2      OT      -0.834000       15.9994           0
     32518 TIP3     4601     TIP3     H1       HT       0.417000       1.00800           0
     32519 TIP3     4601     TIP3     H2       HT       0.417000       1.00800           0
     32520 TIP3     4602     TIP3     OH2      OT      -0.834000       15.9994           0
     32521 TIP3     4602     TIP3     H1       HT       0.417000       1.00800           0
     32522 TIP3     4602     TIP3     H2       HT       0.417000       1.00800           0
     32523 TIP3     4603     TIP3     OH2      OT      -0.834000       15.9994           0
     32524 TIP3     4603     TIP3     H1       HT       0.417000       1.00800           0
     32525 TIP3     4603     TIP3     H2       HT       0.417000       1.00800           0
     32526 TIP3     4604     TIP3     OH2      OT      -0.834000       15.9994           0
     32527 TIP3     4604     TIP3     H1       HT       0.417000       1.00800           0
     32528 TIP3     4604     TIP3     H2       HT       0.417000       1.00800           0
     32529 TIP3     4605     TIP3     OH2      OT      -0.834000       15.9994           0
     32530 TIP3     4605     TIP3     H1       HT       0.417000       1.00800           0
     32531 TIP3     4605     TIP3     H2       HT       0.417000       1.00800           0
     32532 TIP3     4606     TIP3     OH2      OT      -0.834000       15.9994           0
     32533 TIP3     4606     TIP3     H1       HT       0.417000       1.00800           0
     32534 TIP3     4606     TIP3     H2       HT       0.417000       1.00800           0
     32535 TIP3     4607     TIP3     OH2      OT      -0.834000       15.9994           0
     32536 TIP3     4607     TIP3     H1       HT       0.417000       1.00800           0
     32537 TIP3     4607     TIP3     H2       HT       0.417000       1.00800           0
     32538 TIP3     4608     TIP3     OH2      OT      -0.834000       15.9994           0
     32539 TIP3     4608     TIP3     H1       HT       0.417000       1.00800           0
     32540 TIP3     4608     TIP3     H2       HT       0.417000       1.00800           0
     32541 TIP3     4609     TIP3     OH2      OT      -0.834000       15.9994           0
     32542 TIP3     4609     TIP3     H1       HT       0.417000       1.00800           0
     32543 TIP3     4609     TIP3     H2       HT       0.417000       1.00800           0
     32544 TIP3     4610     TIP3     OH2      OT      -0.834000       15.9994           0
     32545 TIP3     4610     TIP3     H1       HT       0.417000       1.00800           0
     32546 TIP3     4610     TIP3     H2       HT       0.417000       1.00800           0
     32547 TIP3     4611     TIP3     OH2      OT      -0.834000       15.9994           0
     32548 TIP3     4611     TIP3     H1       HT       0.417000       1.00800           0
     32549 TIP3     4611     TIP3     H2       HT       0.417000       1.00800           0
     32550 TIP3     4612     TIP3     OH2      OT      -0.834000       15.9994           0
     32551 TIP3     4612     TIP3     H1       HT       0.417000       1.00800           0
     32552 TIP3     4612     TIP3     H2       HT       0.417000       1.00800           0
     32553 TIP3     4613     TIP3     OH2      OT      -0.834000       15.9994           0
     32554 TIP3     4613     TIP3     H1       HT       0.417000       1.00800           0
     32555 TIP3     4613     TIP3     H2       HT       0.417000       1.00800           0
     32556 TIP3     4614     TIP3     OH2      OT      -0.834000       15.9994           0
     32557 TIP3     4614     TIP3     H1       HT       0.417000       1.00800           0
     32558 TIP3     4614     TIP3     H2       HT       0.417000       1.00800           0
     32559 TIP3     4615     TIP3     OH2      OT      -0.834000       15.9994           0
     32560 TIP3     4615     TIP3     H1       HT       0.417000       1.00800           0
     32561 TIP3     4615     TIP3     H2       HT       0.417000       1.00800           0
     32562 TIP3     4616     TIP3     OH2      OT      -0.834000       15.9994           0
     32563 TIP3     4616     TIP3     H1       HT       0.417000       1.00800           0
     32564 TIP3     4616     TIP3     H2       HT       0.417000       1.00800           0
     32565 TIP3     4617     TIP3     OH2      OT      -0.834000       15.9994           0
     32566 TIP3     4617     TIP3     H1       HT       0.417000       1.00800           0
     32567 TIP3     4617     TIP3     H2       HT       0.417000       1.00800           0
     32568 TIP3     4618     TIP3     OH2      OT      -0.834000       15.9994           0
     32569 TIP3     4618     TIP3     H1       HT       0.417000       1.00800           0
     32570 TIP3     4618     TIP3     H2       HT       0.417000       1.00800           0
     32571 TIP3     4619     TIP3     OH2      OT      -0.834000       15.9994           0
     32572 TIP3     4619     TIP3     H1       HT       0.417000       1.00800           0
     32573 TIP3     4619     TIP3     H2       HT       0.417000       1.00800           0
     32574 TIP3     4620     TIP3     OH2      OT      -0.834000       15.9994           0
     32575 TIP3     4620     TIP3     H1       HT       0.417000       1.00800           0
     32576 TIP3     4620     TIP3     H2       HT       0.417000       1.00800           0
     32577 TIP3     4621     TIP3     OH2      OT      -0.834000       15.9994           0
     32578 TIP3     4621     TIP3     H1       HT       0.417000       1.00800           0
     32579 TIP3     4621     TIP3     H2       HT       0.417000       1.00800           0
     32580 TIP3     4622     TIP3     OH2      OT      -0.834000       15.9994           0
     32581 TIP3     4622     TIP3     H1       HT       0.417000       1.00800           0
     32582 TIP3     4622     TIP3     H2       HT       0.417000       1.00800           0
     32583 TIP3     4623     TIP3     OH2      OT      -0.834000       15.9994           0
     32584 TIP3     4623     TIP3     H1       HT       0.417000       1.00800           0
     32585 TIP3     4623     TIP3     H2       HT       0.417000       1.00800           0
     32586 TIP3     4624     TIP3     OH2      OT      -0.834000       15.9994           0
     32587 TIP3     4624     TIP3     H1       HT       0.417000       1.00800           0
     32588 TIP3     4624     TIP3     H2       HT       0.417000       1.00800           0
     32589 TIP3     4625     TIP3     OH2      OT      -0.834000       15.9994           0
     32590 TIP3     4625     TIP3     H1       HT       0.417000       1.00800           0
     32591 TIP3     4625     TIP3     H2       HT       0.417000       1.00800           0
     32592 TIP3     4626     TIP3     OH2      OT      -0.834000       15.9994           0
     32593 TIP3     4626     TIP3     H1       HT       0.417000       1.00800           0
     32594 TIP3     4626     TIP3     H2       HT       0.417000       1.00800           0
     32595 TIP3     4627     TIP3     OH2      OT      -0.834000       15.9994           0
     32596 TIP3     4627     TIP3     H1       HT       0.417000       1.00800           0
     32597 TIP3     4627     TIP3     H2       HT       0.417000       1.00800           0
     32598 TIP3     4628     TIP3     OH2      OT      -0.834000       15.9994           0
     32599 TIP3     4628     TIP3     H1       HT       0.417000       1.00800           0
     32600 TIP3     4628     TIP3     H2       HT       0.417000       1.00800           0
     32601 TIP3     4629     TIP3     OH2      OT      -0.834000       15.9994           0
     32602 TIP3     4629     TIP3     H1       HT       0.417000       1.00800           0
     32603 TIP3     4629     TIP3     H2       HT       0.417000       1.00800           0
     32604 TIP3     4630     TIP3     OH2      OT      -0.834000       15.9994           0
     32605 TIP3     4630     TIP3     H1       HT       0.417000       1.00800           0
     32606 TIP3     4630     TIP3     H2       HT       0.417000       1.00800           0
     32607 TIP3     4631     TIP3     OH2      OT      -0.834000       15.9994           0
     32608 TIP3     4631     TIP3     H1       HT       0.417000       1.00800           0
     32609 TIP3     4631     TIP3     H2       HT       0.417000       1.00800           0
     32610 TIP3     4632     TIP3     OH2      OT      -0.834000       15.9994           0
     32611 TIP3     4632     TIP3     H1       HT       0.417000       1.00800           0
     32612 TIP3     4632     TIP3     H2       HT       0.417000       1.00800           0
     32613 TIP3     4633     TIP3     OH2      OT      -0.834000       15.9994           0
     32614 TIP3     4633     TIP3     H1       HT       0.417000       1.00800           0
     32615 TIP3     4633     TIP3     H2       HT       0.417000       1.00800           0
     32616 TIP3     4634     TIP3     OH2      OT      -0.834000       15.9994           0
     32617 TIP3     4634     TIP3     H1       HT       0.417000       1.00800           0
     32618 TIP3     4634     TIP3     H2       HT       0.417000       1.00800           0
     32619 TIP3     4635     TIP3     OH2      OT      -0.834000       15.9994           0
     32620 TIP3     4635     TIP3     H1       HT       0.417000       1.00800           0
     32621 TIP3     4635     TIP3     H2       HT       0.417000       1.00800           0
     32622 TIP3     4636     TIP3     OH2      OT      -0.834000       15.9994           0
     32623 TIP3     4636     TIP3     H1       HT       0.417000       1.00800           0
     32624 TIP3     4636     TIP3     H2       HT       0.417000       1.00800           0
     32625 TIP3     4637     TIP3     OH2      OT      -0.834000       15.9994           0
     32626 TIP3     4637     TIP3     H1       HT       0.417000       1.00800           0
     32627 TIP3     4637     TIP3     H2       HT       0.417000       1.00800           0
     32628 TIP3     4638     TIP3     OH2      OT      -0.834000       15.9994           0
     32629 TIP3     4638     TIP3     H1       HT       0.417000       1.00800           0
     32630 TIP3     4638     TIP3     H2       HT       0.417000       1.00800           0
     32631 TIP3     4639     TIP3     OH2      OT      -0.834000       15.9994           0
     32632 TIP3     4639     TIP3     H1       HT       0.417000       1.00800           0
     32633 TIP3     4639     TIP3     H2       HT       0.417000       1.00800           0
     32634 TIP3     4640     TIP3     OH2      OT      -0.834000       15.9994           0
     32635 TIP3     4640     TIP3     H1       HT       0.417000       1.00800           0
     32636 TIP3     4640     TIP3     H2       HT       0.417000       1.00800           0
     32637 TIP3     4641     TIP3     OH2      OT      -0.834000       15.9994           0
     32638 TIP3     4641     TIP3     H1       HT       0.417000       1.00800           0
     32639 TIP3     4641     TIP3     H2       HT       0.417000       1.00800           0
     32640 TIP3     4642     TIP3     OH2      OT      -0.834000       15.9994           0
     32641 TIP3     4642     TIP3     H1       HT       0.417000       1.00800           0
     32642 TIP3     4642     TIP3     H2       HT       0.417000       1.00800           0
     32643 TIP3     4643     TIP3     OH2      OT      -0.834000       15.9994           0
     32644 TIP3     4643     TIP3     H1       HT       0.417000       1.00800           0
     32645 TIP3     4643     TIP3     H2       HT       0.417000       1.00800           0
     32646 TIP3     4644     TIP3     OH2      OT      -0.834000       15.9994           0
     32647 TIP3     4644     TIP3     H1       HT       0.417000       1.00800           0
     32648 TIP3     4644     TIP3     H2       HT       0.417000       1.00800           0
     32649 TIP3     4645     TIP3     OH2      OT      -0.834000       15.9994           0
     32650 TIP3     4645     TIP3     H1       HT       0.417000       1.00800           0
     32651 TIP3     4645     TIP3     H2       HT       0.417000       1.00800           0
     32652 TIP3     4646     TIP3     OH2      OT      -0.834000       15.9994           0
     32653 TIP3     4646     TIP3     H1       HT       0.417000       1.00800           0
     32654 TIP3     4646     TIP3     H2       HT       0.417000       1.00800           0
     32655 TIP3     4647     TIP3     OH2      OT      -0.834000       15.9994           0
     32656 TIP3     4647     TIP3     H1       HT       0.417000       1.00800           0
     32657 TIP3     4647     TIP3     H2       HT       0.417000       1.00800           0
     32658 TIP3     4648     TIP3     OH2      OT      -0.834000       15.9994           0
     32659 TIP3     4648     TIP3     H1       HT       0.417000       1.00800           0
     32660 TIP3     4648     TIP3     H2       HT       0.417000       1.00800           0
     32661 TIP3     4649     TIP3     OH2      OT      -0.834000       15.9994           0
     32662 TIP3     4649     TIP3     H1       HT       0.417000       1.00800           0
     32663 TIP3     4649     TIP3     H2       HT       0.417000       1.00800           0
     32664 TIP3     4650     TIP3     OH2      OT      -0.834000       15.9994           0
     32665 TIP3     4650     TIP3     H1       HT       0.417000       1.00800           0
     32666 TIP3     4650     TIP3     H2       HT       0.417000       1.00800           0
     32667 TIP3     4651     TIP3     OH2      OT      -0.834000       15.9994           0
     32668 TIP3     4651     TIP3     H1       HT       0.417000       1.00800           0
     32669 TIP3     4651     TIP3     H2       HT       0.417000       1.00800           0
     32670 TIP3     4652     TIP3     OH2      OT      -0.834000       15.9994           0
     32671 TIP3     4652     TIP3     H1       HT       0.417000       1.00800           0
     32672 TIP3     4652     TIP3     H2       HT       0.417000       1.00800           0
     32673 TIP3     4653     TIP3     OH2      OT      -0.834000       15.9994           0
     32674 TIP3     4653     TIP3     H1       HT       0.417000       1.00800           0
     32675 TIP3     4653     TIP3     H2       HT       0.417000       1.00800           0
     32676 TIP3     4654     TIP3     OH2      OT      -0.834000       15.9994           0
     32677 TIP3     4654     TIP3     H1       HT       0.417000       1.00800           0
     32678 TIP3     4654     TIP3     H2       HT       0.417000       1.00800           0
     32679 TIP3     4655     TIP3     OH2      OT      -0.834000       15.9994           0
     32680 TIP3     4655     TIP3     H1       HT       0.417000       1.00800           0
     32681 TIP3     4655     TIP3     H2       HT       0.417000       1.00800           0
     32682 TIP3     4656     TIP3     OH2      OT      -0.834000       15.9994           0
     32683 TIP3     4656     TIP3     H1       HT       0.417000       1.00800           0
     32684 TIP3     4656     TIP3     H2       HT       0.417000       1.00800           0
     32685 TIP3     4657     TIP3     OH2      OT      -0.834000       15.9994           0
     32686 TIP3     4657     TIP3     H1       HT       0.417000       1.00800           0
     32687 TIP3     4657     TIP3     H2       HT       0.417000       1.00800           0
     32688 TIP3     4658     TIP3     OH2      OT      -0.834000       15.9994           0
     32689 TIP3     4658     TIP3     H1       HT       0.417000       1.00800           0
     32690 TIP3     4658     TIP3     H2       HT       0.417000       1.00800           0
     32691 TIP3     4659     TIP3     OH2      OT      -0.834000       15.9994           0
     32692 TIP3     4659     TIP3     H1       HT       0.417000       1.00800           0
     32693 TIP3     4659     TIP3     H2       HT       0.417000       1.00800           0
     32694 TIP3     4660     TIP3     OH2      OT      -0.834000       15.9994           0
     32695 TIP3     4660     TIP3     H1       HT       0.417000       1.00800           0
     32696 TIP3     4660     TIP3     H2       HT       0.417000       1.00800           0
     32697 TIP3     4661     TIP3     OH2      OT      -0.834000       15.9994           0
     32698 TIP3     4661     TIP3     H1       HT       0.417000       1.00800           0
     32699 TIP3     4661     TIP3     H2       HT       0.417000       1.00800           0
     32700 TIP3     4662     TIP3     OH2      OT      -0.834000       15.9994           0
     32701 TIP3     4662     TIP3     H1       HT       0.417000       1.00800           0
     32702 TIP3     4662     TIP3     H2       HT       0.417000       1.00800           0
     32703 TIP3     4663     TIP3     OH2      OT      -0.834000       15.9994           0
     32704 TIP3     4663     TIP3     H1       HT       0.417000       1.00800           0
     32705 TIP3     4663     TIP3     H2       HT       0.417000       1.00800           0
     32706 TIP3     4664     TIP3     OH2      OT      -0.834000       15.9994           0
     32707 TIP3     4664     TIP3     H1       HT       0.417000       1.00800           0
     32708 TIP3     4664     TIP3     H2       HT       0.417000       1.00800           0
     32709 TIP3     4665     TIP3     OH2      OT      -0.834000       15.9994           0
     32710 TIP3     4665     TIP3     H1       HT       0.417000       1.00800           0
     32711 TIP3     4665     TIP3     H2       HT       0.417000       1.00800           0
     32712 TIP3     4666     TIP3     OH2      OT      -0.834000       15.9994           0
     32713 TIP3     4666     TIP3     H1       HT       0.417000       1.00800           0
     32714 TIP3     4666     TIP3     H2       HT       0.417000       1.00800           0
     32715 TIP3     4667     TIP3     OH2      OT      -0.834000       15.9994           0
     32716 TIP3     4667     TIP3     H1       HT       0.417000       1.00800           0
     32717 TIP3     4667     TIP3     H2       HT       0.417000       1.00800           0
     32718 TIP3     4668     TIP3     OH2      OT      -0.834000       15.9994           0
     32719 TIP3     4668     TIP3     H1       HT       0.417000       1.00800           0
     32720 TIP3     4668     TIP3     H2       HT       0.417000       1.00800           0
     32721 TIP3     4669     TIP3     OH2      OT      -0.834000       15.9994           0
     32722 TIP3     4669     TIP3     H1       HT       0.417000       1.00800           0
     32723 TIP3     4669     TIP3     H2       HT       0.417000       1.00800           0
     32724 TIP3     4670     TIP3     OH2      OT      -0.834000       15.9994           0
     32725 TIP3     4670     TIP3     H1       HT       0.417000       1.00800           0
     32726 TIP3     4670     TIP3     H2       HT       0.417000       1.00800           0
     32727 TIP3     4671     TIP3     OH2      OT      -0.834000       15.9994           0
     32728 TIP3     4671     TIP3     H1       HT       0.417000       1.00800           0
     32729 TIP3     4671     TIP3     H2       HT       0.417000       1.00800           0
     32730 TIP3     4672     TIP3     OH2      OT      -0.834000       15.9994           0
     32731 TIP3     4672     TIP3     H1       HT       0.417000       1.00800           0
     32732 TIP3     4672     TIP3     H2       HT       0.417000       1.00800           0
     32733 TIP3     4673     TIP3     OH2      OT      -0.834000       15.9994           0
     32734 TIP3     4673     TIP3     H1       HT       0.417000       1.00800           0
     32735 TIP3     4673     TIP3     H2       HT       0.417000       1.00800           0
     32736 TIP3     4674     TIP3     OH2      OT      -0.834000       15.9994           0
     32737 TIP3     4674     TIP3     H1       HT       0.417000       1.00800           0
     32738 TIP3     4674     TIP3     H2       HT       0.417000       1.00800           0
     32739 TIP3     4675     TIP3     OH2      OT      -0.834000       15.9994           0
     32740 TIP3     4675     TIP3     H1       HT       0.417000       1.00800           0
     32741 TIP3     4675     TIP3     H2       HT       0.417000       1.00800           0
     32742 TIP3     4676     TIP3     OH2      OT      -0.834000       15.9994           0
     32743 TIP3     4676     TIP3     H1       HT       0.417000       1.00800           0
     32744 TIP3     4676     TIP3     H2       HT       0.417000       1.00800           0
     32745 TIP3     4677     TIP3     OH2      OT      -0.834000       15.9994           0
     32746 TIP3     4677     TIP3     H1       HT       0.417000       1.00800           0
     32747 TIP3     4677     TIP3     H2       HT       0.417000       1.00800           0
     32748 TIP3     4678     TIP3     OH2      OT      -0.834000       15.9994           0
     32749 TIP3     4678     TIP3     H1       HT       0.417000       1.00800           0
     32750 TIP3     4678     TIP3     H2       HT       0.417000       1.00800           0
     32751 TIP3     4679     TIP3     OH2      OT      -0.834000       15.9994           0
     32752 TIP3     4679     TIP3     H1       HT       0.417000       1.00800           0
     32753 TIP3     4679     TIP3     H2       HT       0.417000       1.00800           0
     32754 TIP3     4680     TIP3     OH2      OT      -0.834000       15.9994           0
     32755 TIP3     4680     TIP3     H1       HT       0.417000       1.00800           0
     32756 TIP3     4680     TIP3     H2       HT       0.417000       1.00800           0
     32757 TIP3     4681     TIP3     OH2      OT      -0.834000       15.9994           0
     32758 TIP3     4681     TIP3     H1       HT       0.417000       1.00800           0
     32759 TIP3     4681     TIP3     H2       HT       0.417000       1.00800           0
     32760 TIP3     4682     TIP3     OH2      OT      -0.834000       15.9994           0
     32761 TIP3     4682     TIP3     H1       HT       0.417000       1.00800           0
     32762 TIP3     4682     TIP3     H2       HT       0.417000       1.00800           0
     32763 TIP3     4683     TIP3     OH2      OT      -0.834000       15.9994           0
     32764 TIP3     4683     TIP3     H1       HT       0.417000       1.00800           0
     32765 TIP3     4683     TIP3     H2       HT       0.417000       1.00800           0
     32766 TIP3     4684     TIP3     OH2      OT      -0.834000       15.9994           0
     32767 TIP3     4684     TIP3     H1       HT       0.417000       1.00800           0
     32768 TIP3     4684     TIP3     H2       HT       0.417000       1.00800           0
     32769 TIP3     4685     TIP3     OH2      OT      -0.834000       15.9994           0
     32770 TIP3     4685     TIP3     H1       HT       0.417000       1.00800           0
     32771 TIP3     4685     TIP3     H2       HT       0.417000       1.00800           0
     32772 TIP3     4686     TIP3     OH2      OT      -0.834000       15.9994           0
     32773 TIP3     4686     TIP3     H1       HT       0.417000       1.00800           0
     32774 TIP3     4686     TIP3     H2       HT       0.417000       1.00800           0
     32775 TIP3     4687     TIP3     OH2      OT      -0.834000       15.9994           0
     32776 TIP3     4687     TIP3     H1       HT       0.417000       1.00800           0
     32777 TIP3     4687     TIP3     H2       HT       0.417000       1.00800           0
     32778 TIP3     4688     TIP3     OH2      OT      -0.834000       15.9994           0
     32779 TIP3     4688     TIP3     H1       HT       0.417000       1.00800           0
     32780 TIP3     4688     TIP3     H2       HT       0.417000       1.00800           0
     32781 TIP3     4689     TIP3     OH2      OT      -0.834000       15.9994           0
     32782 TIP3     4689     TIP3     H1       HT       0.417000       1.00800           0
     32783 TIP3     4689     TIP3     H2       HT       0.417000       1.00800           0
     32784 TIP3     4690     TIP3     OH2      OT      -0.834000       15.9994           0
     32785 TIP3     4690     TIP3     H1       HT       0.417000       1.00800           0
     32786 TIP3     4690     TIP3     H2       HT       0.417000       1.00800           0
     32787 TIP3     4691     TIP3     OH2      OT      -0.834000       15.9994           0
     32788 TIP3     4691     TIP3     H1       HT       0.417000       1.00800           0
     32789 TIP3     4691     TIP3     H2       HT       0.417000       1.00800           0
     32790 TIP3     4692     TIP3     OH2      OT      -0.834000       15.9994           0
     32791 TIP3     4692     TIP3     H1       HT       0.417000       1.00800           0
     32792 TIP3     4692     TIP3     H2       HT       0.417000       1.00800           0
     32793 TIP3     4693     TIP3     OH2      OT      -0.834000       15.9994           0
     32794 TIP3     4693     TIP3     H1       HT       0.417000       1.00800           0
     32795 TIP3     4693     TIP3     H2       HT       0.417000       1.00800           0
     32796 TIP3     4694     TIP3     OH2      OT      -0.834000       15.9994           0
     32797 TIP3     4694     TIP3     H1       HT       0.417000       1.00800           0
     32798 TIP3     4694     TIP3     H2       HT       0.417000       1.00800           0
     32799 TIP3     4695     TIP3     OH2      OT      -0.834000       15.9994           0
     32800 TIP3     4695     TIP3     H1       HT       0.417000       1.00800           0
     32801 TIP3     4695     TIP3     H2       HT       0.417000       1.00800           0
     32802 TIP3     4696     TIP3     OH2      OT      -0.834000       15.9994           0
     32803 TIP3     4696     TIP3     H1       HT       0.417000       1.00800           0
     32804 TIP3     4696     TIP3     H2       HT       0.417000       1.00800           0
     32805 TIP3     4697     TIP3     OH2      OT      -0.834000       15.9994           0
     32806 TIP3     4697     TIP3     H1       HT       0.417000       1.00800           0
     32807 TIP3     4697     TIP3     H2       HT       0.417000       1.00800           0
     32808 TIP3     4698     TIP3     OH2      OT      -0.834000       15.9994           0
     32809 TIP3     4698     TIP3     H1       HT       0.417000       1.00800           0
     32810 TIP3     4698     TIP3     H2       HT       0.417000       1.00800           0
     32811 TIP3     4699     TIP3     OH2      OT      -0.834000       15.9994           0
     32812 TIP3     4699     TIP3     H1       HT       0.417000       1.00800           0
     32813 TIP3     4699     TIP3     H2       HT       0.417000       1.00800           0
     32814 TIP3     4700     TIP3     OH2      OT      -0.834000       15.9994           0
     32815 TIP3     4700     TIP3     H1       HT       0.417000       1.00800           0
     32816 TIP3     4700     TIP3     H2       HT       0.417000       1.00800           0
     32817 TIP3     4701     TIP3     OH2      OT      -0.834000       15.9994           0
     32818 TIP3     4701     TIP3     H1       HT       0.417000       1.00800           0
     32819 TIP3     4701     TIP3     H2       HT       0.417000       1.00800           0
     32820 TIP3     4702     TIP3     OH2      OT      -0.834000       15.9994           0
     32821 TIP3     4702     TIP3     H1       HT       0.417000       1.00800           0
     32822 TIP3     4702     TIP3     H2       HT       0.417000       1.00800           0
     32823 TIP3     4703     TIP3     OH2      OT      -0.834000       15.9994           0
     32824 TIP3     4703     TIP3     H1       HT       0.417000       1.00800           0
     32825 TIP3     4703     TIP3     H2       HT       0.417000       1.00800           0
     32826 TIP3     4704     TIP3     OH2      OT      -0.834000       15.9994           0
     32827 TIP3     4704     TIP3     H1       HT       0.417000       1.00800           0
     32828 TIP3     4704     TIP3     H2       HT       0.417000       1.00800           0
     32829 TIP3     4705     TIP3     OH2      OT      -0.834000       15.9994           0
     32830 TIP3     4705     TIP3     H1       HT       0.417000       1.00800           0
     32831 TIP3     4705     TIP3     H2       HT       0.417000       1.00800           0
     32832 TIP3     4706     TIP3     OH2      OT      -0.834000       15.9994           0
     32833 TIP3     4706     TIP3     H1       HT       0.417000       1.00800           0
     32834 TIP3     4706     TIP3     H2       HT       0.417000       1.00800           0
     32835 TIP3     4707     TIP3     OH2      OT      -0.834000       15.9994           0
     32836 TIP3     4707     TIP3     H1       HT       0.417000       1.00800           0
     32837 TIP3     4707     TIP3     H2       HT       0.417000       1.00800           0
     32838 TIP3     4708     TIP3     OH2      OT      -0.834000       15.9994           0
     32839 TIP3     4708     TIP3     H1       HT       0.417000       1.00800           0
     32840 TIP3     4708     TIP3     H2       HT       0.417000       1.00800           0
     32841 TIP3     4709     TIP3     OH2      OT      -0.834000       15.9994           0
     32842 TIP3     4709     TIP3     H1       HT       0.417000       1.00800           0
     32843 TIP3     4709     TIP3     H2       HT       0.417000       1.00800           0
     32844 TIP3     4710     TIP3     OH2      OT      -0.834000       15.9994           0
     32845 TIP3     4710     TIP3     H1       HT       0.417000       1.00800           0
     32846 TIP3     4710     TIP3     H2       HT       0.417000       1.00800           0
     32847 TIP3     4711     TIP3     OH2      OT      -0.834000       15.9994           0
     32848 TIP3     4711     TIP3     H1       HT       0.417000       1.00800           0
     32849 TIP3     4711     TIP3     H2       HT       0.417000       1.00800           0
     32850 TIP3     4712     TIP3     OH2      OT      -0.834000       15.9994           0
     32851 TIP3     4712     TIP3     H1       HT       0.417000       1.00800           0
     32852 TIP3     4712     TIP3     H2       HT       0.417000       1.00800           0
     32853 TIP3     4713     TIP3     OH2      OT      -0.834000       15.9994           0
     32854 TIP3     4713     TIP3     H1       HT       0.417000       1.00800           0
     32855 TIP3     4713     TIP3     H2       HT       0.417000       1.00800           0
     32856 TIP3     4714     TIP3     OH2      OT      -0.834000       15.9994           0
     32857 TIP3     4714     TIP3     H1       HT       0.417000       1.00800           0
     32858 TIP3     4714     TIP3     H2       HT       0.417000       1.00800           0
     32859 TIP3     4715     TIP3     OH2      OT      -0.834000       15.9994           0
     32860 TIP3     4715     TIP3     H1       HT       0.417000       1.00800           0
     32861 TIP3     4715     TIP3     H2       HT       0.417000       1.00800           0
     32862 TIP3     4716     TIP3     OH2      OT      -0.834000       15.9994           0
     32863 TIP3     4716     TIP3     H1       HT       0.417000       1.00800           0
     32864 TIP3     4716     TIP3     H2       HT       0.417000       1.00800           0
     32865 TIP3     4717     TIP3     OH2      OT      -0.834000       15.9994           0
     32866 TIP3     4717     TIP3     H1       HT       0.417000       1.00800           0
     32867 TIP3     4717     TIP3     H2       HT       0.417000       1.00800           0
     32868 TIP3     4718     TIP3     OH2      OT      -0.834000       15.9994           0
     32869 TIP3     4718     TIP3     H1       HT       0.417000       1.00800           0
     32870 TIP3     4718     TIP3     H2       HT       0.417000       1.00800           0
     32871 TIP3     4719     TIP3     OH2      OT      -0.834000       15.9994           0
     32872 TIP3     4719     TIP3     H1       HT       0.417000       1.00800           0
     32873 TIP3     4719     TIP3     H2       HT       0.417000       1.00800           0
     32874 TIP3     4720     TIP3     OH2      OT      -0.834000       15.9994           0
     32875 TIP3     4720     TIP3     H1       HT       0.417000       1.00800           0
     32876 TIP3     4720     TIP3     H2       HT       0.417000       1.00800           0
     32877 TIP3     4721     TIP3     OH2      OT      -0.834000       15.9994           0
     32878 TIP3     4721     TIP3     H1       HT       0.417000       1.00800           0
     32879 TIP3     4721     TIP3     H2       HT       0.417000       1.00800           0
     32880 TIP3     4722     TIP3     OH2      OT      -0.834000       15.9994           0
     32881 TIP3     4722     TIP3     H1       HT       0.417000       1.00800           0
     32882 TIP3     4722     TIP3     H2       HT       0.417000       1.00800           0
     32883 TIP3     4723     TIP3     OH2      OT      -0.834000       15.9994           0
     32884 TIP3     4723     TIP3     H1       HT       0.417000       1.00800           0
     32885 TIP3     4723     TIP3     H2       HT       0.417000       1.00800           0
     32886 TIP3     4724     TIP3     OH2      OT      -0.834000       15.9994           0
     32887 TIP3     4724     TIP3     H1       HT       0.417000       1.00800           0
     32888 TIP3     4724     TIP3     H2       HT       0.417000       1.00800           0
     32889 TIP3     4725     TIP3     OH2      OT      -0.834000       15.9994           0
     32890 TIP3     4725     TIP3     H1       HT       0.417000       1.00800           0
     32891 TIP3     4725     TIP3     H2       HT       0.417000       1.00800           0
     32892 TIP3     4726     TIP3     OH2      OT      -0.834000       15.9994           0
     32893 TIP3     4726     TIP3     H1       HT       0.417000       1.00800           0
     32894 TIP3     4726     TIP3     H2       HT       0.417000       1.00800           0
     32895 TIP3     4727     TIP3     OH2      OT      -0.834000       15.9994           0
     32896 TIP3     4727     TIP3     H1       HT       0.417000       1.00800           0
     32897 TIP3     4727     TIP3     H2       HT       0.417000       1.00800           0
     32898 TIP3     4728     TIP3     OH2      OT      -0.834000       15.9994           0
     32899 TIP3     4728     TIP3     H1       HT       0.417000       1.00800           0
     32900 TIP3     4728     TIP3     H2       HT       0.417000       1.00800           0
     32901 TIP3     4729     TIP3     OH2      OT      -0.834000       15.9994           0
     32902 TIP3     4729     TIP3     H1       HT       0.417000       1.00800           0
     32903 TIP3     4729     TIP3     H2       HT       0.417000       1.00800           0
     32904 TIP3     4730     TIP3     OH2      OT      -0.834000       15.9994           0
     32905 TIP3     4730     TIP3     H1       HT       0.417000       1.00800           0
     32906 TIP3     4730     TIP3     H2       HT       0.417000       1.00800           0
     32907 TIP3     4731     TIP3     OH2      OT      -0.834000       15.9994           0
     32908 TIP3     4731     TIP3     H1       HT       0.417000       1.00800           0
     32909 TIP3     4731     TIP3     H2       HT       0.417000       1.00800           0
     32910 TIP3     4732     TIP3     OH2      OT      -0.834000       15.9994           0
     32911 TIP3     4732     TIP3     H1       HT       0.417000       1.00800           0
     32912 TIP3     4732     TIP3     H2       HT       0.417000       1.00800           0
     32913 TIP3     4733     TIP3     OH2      OT      -0.834000       15.9994           0
     32914 TIP3     4733     TIP3     H1       HT       0.417000       1.00800           0
     32915 TIP3     4733     TIP3     H2       HT       0.417000       1.00800           0
     32916 TIP3     4734     TIP3     OH2      OT      -0.834000       15.9994           0
     32917 TIP3     4734     TIP3     H1       HT       0.417000       1.00800           0
     32918 TIP3     4734     TIP3     H2       HT       0.417000       1.00800           0
     32919 TIP3     4735     TIP3     OH2      OT      -0.834000       15.9994           0
     32920 TIP3     4735     TIP3     H1       HT       0.417000       1.00800           0
     32921 TIP3     4735     TIP3     H2       HT       0.417000       1.00800           0
     32922 TIP3     4736     TIP3     OH2      OT      -0.834000       15.9994           0
     32923 TIP3     4736     TIP3     H1       HT       0.417000       1.00800           0
     32924 TIP3     4736     TIP3     H2       HT       0.417000       1.00800           0
     32925 TIP3     4737     TIP3     OH2      OT      -0.834000       15.9994           0
     32926 TIP3     4737     TIP3     H1       HT       0.417000       1.00800           0
     32927 TIP3     4737     TIP3     H2       HT       0.417000       1.00800           0
     32928 TIP3     4738     TIP3     OH2      OT      -0.834000       15.9994           0
     32929 TIP3     4738     TIP3     H1       HT       0.417000       1.00800           0
     32930 TIP3     4738     TIP3     H2       HT       0.417000       1.00800           0
     32931 TIP3     4739     TIP3     OH2      OT      -0.834000       15.9994           0
     32932 TIP3     4739     TIP3     H1       HT       0.417000       1.00800           0
     32933 TIP3     4739     TIP3     H2       HT       0.417000       1.00800           0
     32934 TIP3     4740     TIP3     OH2      OT      -0.834000       15.9994           0
     32935 TIP3     4740     TIP3     H1       HT       0.417000       1.00800           0
     32936 TIP3     4740     TIP3     H2       HT       0.417000       1.00800           0
     32937 TIP3     4741     TIP3     OH2      OT      -0.834000       15.9994           0
     32938 TIP3     4741     TIP3     H1       HT       0.417000       1.00800           0
     32939 TIP3     4741     TIP3     H2       HT       0.417000       1.00800           0
     32940 TIP3     4742     TIP3     OH2      OT      -0.834000       15.9994           0
     32941 TIP3     4742     TIP3     H1       HT       0.417000       1.00800           0
     32942 TIP3     4742     TIP3     H2       HT       0.417000       1.00800           0
     32943 TIP3     4743     TIP3     OH2      OT      -0.834000       15.9994           0
     32944 TIP3     4743     TIP3     H1       HT       0.417000       1.00800           0
     32945 TIP3     4743     TIP3     H2       HT       0.417000       1.00800           0
     32946 TIP3     4744     TIP3     OH2      OT      -0.834000       15.9994           0
     32947 TIP3     4744     TIP3     H1       HT       0.417000       1.00800           0
     32948 TIP3     4744     TIP3     H2       HT       0.417000       1.00800           0
     32949 TIP3     4745     TIP3     OH2      OT      -0.834000       15.9994           0
     32950 TIP3     4745     TIP3     H1       HT       0.417000       1.00800           0
     32951 TIP3     4745     TIP3     H2       HT       0.417000       1.00800           0
     32952 TIP3     4746     TIP3     OH2      OT      -0.834000       15.9994           0
     32953 TIP3     4746     TIP3     H1       HT       0.417000       1.00800           0
     32954 TIP3     4746     TIP3     H2       HT       0.417000       1.00800           0
     32955 TIP3     4747     TIP3     OH2      OT      -0.834000       15.9994           0
     32956 TIP3     4747     TIP3     H1       HT       0.417000       1.00800           0
     32957 TIP3     4747     TIP3     H2       HT       0.417000       1.00800           0
     32958 TIP3     4748     TIP3     OH2      OT      -0.834000       15.9994           0
     32959 TIP3     4748     TIP3     H1       HT       0.417000       1.00800           0
     32960 TIP3     4748     TIP3     H2       HT       0.417000       1.00800           0
     32961 TIP3     4749     TIP3     OH2      OT      -0.834000       15.9994           0
     32962 TIP3     4749     TIP3     H1       HT       0.417000       1.00800           0
     32963 TIP3     4749     TIP3     H2       HT       0.417000       1.00800           0
     32964 TIP3     4750     TIP3     OH2      OT      -0.834000       15.9994           0
     32965 TIP3     4750     TIP3     H1       HT       0.417000       1.00800           0
     32966 TIP3     4750     TIP3     H2       HT       0.417000       1.00800           0
     32967 TIP3     4751     TIP3     OH2      OT      -0.834000       15.9994           0
     32968 TIP3     4751     TIP3     H1       HT       0.417000       1.00800           0
     32969 TIP3     4751     TIP3     H2       HT       0.417000       1.00800           0
     32970 TIP3     4752     TIP3     OH2      OT      -0.834000       15.9994           0
     32971 TIP3     4752     TIP3     H1       HT       0.417000       1.00800           0
     32972 TIP3     4752     TIP3     H2       HT       0.417000       1.00800           0
     32973 TIP3     4753     TIP3     OH2      OT      -0.834000       15.9994           0
     32974 TIP3     4753     TIP3     H1       HT       0.417000       1.00800           0
     32975 TIP3     4753     TIP3     H2       HT       0.417000       1.00800           0
     32976 TIP3     4754     TIP3     OH2      OT      -0.834000       15.9994           0
     32977 TIP3     4754     TIP3     H1       HT       0.417000       1.00800           0
     32978 TIP3     4754     TIP3     H2       HT       0.417000       1.00800           0
     32979 TIP3     4755     TIP3     OH2      OT      -0.834000       15.9994           0
     32980 TIP3     4755     TIP3     H1       HT       0.417000       1.00800           0
     32981 TIP3     4755     TIP3     H2       HT       0.417000       1.00800           0
     32982 TIP3     4756     TIP3     OH2      OT      -0.834000       15.9994           0
     32983 TIP3     4756     TIP3     H1       HT       0.417000       1.00800           0
     32984 TIP3     4756     TIP3     H2       HT       0.417000       1.00800           0
     32985 TIP3     4757     TIP3     OH2      OT      -0.834000       15.9994           0
     32986 TIP3     4757     TIP3     H1       HT       0.417000       1.00800           0
     32987 TIP3     4757     TIP3     H2       HT       0.417000       1.00800           0
     32988 TIP3     4758     TIP3     OH2      OT      -0.834000       15.9994           0
     32989 TIP3     4758     TIP3     H1       HT       0.417000       1.00800           0
     32990 TIP3     4758     TIP3     H2       HT       0.417000       1.00800           0
     32991 TIP3     4759     TIP3     OH2      OT      -0.834000       15.9994           0
     32992 TIP3     4759     TIP3     H1       HT       0.417000       1.00800           0
     32993 TIP3     4759     TIP3     H2       HT       0.417000       1.00800           0
     32994 TIP3     4760     TIP3     OH2      OT      -0.834000       15.9994           0
     32995 TIP3     4760     TIP3     H1       HT       0.417000       1.00800           0
     32996 TIP3     4760     TIP3     H2       HT       0.417000       1.00800           0
     32997 TIP3     4761     TIP3     OH2      OT      -0.834000       15.9994           0
     32998 TIP3     4761     TIP3     H1       HT       0.417000       1.00800           0
     32999 TIP3     4761     TIP3     H2       HT       0.417000       1.00800           0
     33000 TIP3     4762     TIP3     OH2      OT      -0.834000       15.9994           0
     33001 TIP3     4762     TIP3     H1       HT       0.417000       1.00800           0
     33002 TIP3     4762     TIP3     H2       HT       0.417000       1.00800           0
     33003 TIP3     4763     TIP3     OH2      OT      -0.834000       15.9994           0
     33004 TIP3     4763     TIP3     H1       HT       0.417000       1.00800           0
     33005 TIP3     4763     TIP3     H2       HT       0.417000       1.00800           0
     33006 TIP3     4764     TIP3     OH2      OT      -0.834000       15.9994           0
     33007 TIP3     4764     TIP3     H1       HT       0.417000       1.00800           0
     33008 TIP3     4764     TIP3     H2       HT       0.417000       1.00800           0
     33009 TIP3     4765     TIP3     OH2      OT      -0.834000       15.9994           0
     33010 TIP3     4765     TIP3     H1       HT       0.417000       1.00800           0
     33011 TIP3     4765     TIP3     H2       HT       0.417000       1.00800           0
     33012 TIP3     4766     TIP3     OH2      OT      -0.834000       15.9994           0
     33013 TIP3     4766     TIP3     H1       HT       0.417000       1.00800           0
     33014 TIP3     4766     TIP3     H2       HT       0.417000       1.00800           0
     33015 TIP3     4767     TIP3     OH2      OT      -0.834000       15.9994           0
     33016 TIP3     4767     TIP3     H1       HT       0.417000       1.00800           0
     33017 TIP3     4767     TIP3     H2       HT       0.417000       1.00800           0
     33018 TIP3     4768     TIP3     OH2      OT      -0.834000       15.9994           0
     33019 TIP3     4768     TIP3     H1       HT       0.417000       1.00800           0
     33020 TIP3     4768     TIP3     H2       HT       0.417000       1.00800           0
     33021 TIP3     4769     TIP3     OH2      OT      -0.834000       15.9994           0
     33022 TIP3     4769     TIP3     H1       HT       0.417000       1.00800           0
     33023 TIP3     4769     TIP3     H2       HT       0.417000       1.00800           0
     33024 TIP3     4770     TIP3     OH2      OT      -0.834000       15.9994           0
     33025 TIP3     4770     TIP3     H1       HT       0.417000       1.00800           0
     33026 TIP3     4770     TIP3     H2       HT       0.417000       1.00800           0
     33027 TIP3     4771     TIP3     OH2      OT      -0.834000       15.9994           0
     33028 TIP3     4771     TIP3     H1       HT       0.417000       1.00800           0
     33029 TIP3     4771     TIP3     H2       HT       0.417000       1.00800           0
     33030 TIP3     4772     TIP3     OH2      OT      -0.834000       15.9994           0
     33031 TIP3     4772     TIP3     H1       HT       0.417000       1.00800           0
     33032 TIP3     4772     TIP3     H2       HT       0.417000       1.00800           0
     33033 TIP3     4773     TIP3     OH2      OT      -0.834000       15.9994           0
     33034 TIP3     4773     TIP3     H1       HT       0.417000       1.00800           0
     33035 TIP3     4773     TIP3     H2       HT       0.417000       1.00800           0
     33036 TIP3     4774     TIP3     OH2      OT      -0.834000       15.9994           0
     33037 TIP3     4774     TIP3     H1       HT       0.417000       1.00800           0
     33038 TIP3     4774     TIP3     H2       HT       0.417000       1.00800           0
     33039 TIP3     4775     TIP3     OH2      OT      -0.834000       15.9994           0
     33040 TIP3     4775     TIP3     H1       HT       0.417000       1.00800           0
     33041 TIP3     4775     TIP3     H2       HT       0.417000       1.00800           0
     33042 TIP3     4776     TIP3     OH2      OT      -0.834000       15.9994           0
     33043 TIP3     4776     TIP3     H1       HT       0.417000       1.00800           0
     33044 TIP3     4776     TIP3     H2       HT       0.417000       1.00800           0
     33045 TIP3     4777     TIP3     OH2      OT      -0.834000       15.9994           0
     33046 TIP3     4777     TIP3     H1       HT       0.417000       1.00800           0
     33047 TIP3     4777     TIP3     H2       HT       0.417000       1.00800           0
     33048 TIP3     4778     TIP3     OH2      OT      -0.834000       15.9994           0
     33049 TIP3     4778     TIP3     H1       HT       0.417000       1.00800           0
     33050 TIP3     4778     TIP3     H2       HT       0.417000       1.00800           0
     33051 TIP3     4779     TIP3     OH2      OT      -0.834000       15.9994           0
     33052 TIP3     4779     TIP3     H1       HT       0.417000       1.00800           0
     33053 TIP3     4779     TIP3     H2       HT       0.417000       1.00800           0
     33054 TIP3     4780     TIP3     OH2      OT      -0.834000       15.9994           0
     33055 TIP3     4780     TIP3     H1       HT       0.417000       1.00800           0
     33056 TIP3     4780     TIP3     H2       HT       0.417000       1.00800           0
     33057 TIP3     4781     TIP3     OH2      OT      -0.834000       15.9994           0
     33058 TIP3     4781     TIP3     H1       HT       0.417000       1.00800           0
     33059 TIP3     4781     TIP3     H2       HT       0.417000       1.00800           0
     33060 TIP3     4782     TIP3     OH2      OT      -0.834000       15.9994           0
     33061 TIP3     4782     TIP3     H1       HT       0.417000       1.00800           0
     33062 TIP3     4782     TIP3     H2       HT       0.417000       1.00800           0
     33063 TIP3     4783     TIP3     OH2      OT      -0.834000       15.9994           0
     33064 TIP3     4783     TIP3     H1       HT       0.417000       1.00800           0
     33065 TIP3     4783     TIP3     H2       HT       0.417000       1.00800           0
     33066 TIP3     4784     TIP3     OH2      OT      -0.834000       15.9994           0
     33067 TIP3     4784     TIP3     H1       HT       0.417000       1.00800           0
     33068 TIP3     4784     TIP3     H2       HT       0.417000       1.00800           0
     33069 TIP3     4785     TIP3     OH2      OT      -0.834000       15.9994           0
     33070 TIP3     4785     TIP3     H1       HT       0.417000       1.00800           0
     33071 TIP3     4785     TIP3     H2       HT       0.417000       1.00800           0
     33072 TIP3     4786     TIP3     OH2      OT      -0.834000       15.9994           0
     33073 TIP3     4786     TIP3     H1       HT       0.417000       1.00800           0
     33074 TIP3     4786     TIP3     H2       HT       0.417000       1.00800           0
     33075 TIP3     4787     TIP3     OH2      OT      -0.834000       15.9994           0
     33076 TIP3     4787     TIP3     H1       HT       0.417000       1.00800           0
     33077 TIP3     4787     TIP3     H2       HT       0.417000       1.00800           0
     33078 TIP3     4788     TIP3     OH2      OT      -0.834000       15.9994           0
     33079 TIP3     4788     TIP3     H1       HT       0.417000       1.00800           0
     33080 TIP3     4788     TIP3     H2       HT       0.417000       1.00800           0
     33081 TIP3     4789     TIP3     OH2      OT      -0.834000       15.9994           0
     33082 TIP3     4789     TIP3     H1       HT       0.417000       1.00800           0
     33083 TIP3     4789     TIP3     H2       HT       0.417000       1.00800           0
     33084 TIP3     4790     TIP3     OH2      OT      -0.834000       15.9994           0
     33085 TIP3     4790     TIP3     H1       HT       0.417000       1.00800           0
     33086 TIP3     4790     TIP3     H2       HT       0.417000       1.00800           0
     33087 TIP3     4791     TIP3     OH2      OT      -0.834000       15.9994           0
     33088 TIP3     4791     TIP3     H1       HT       0.417000       1.00800           0
     33089 TIP3     4791     TIP3     H2       HT       0.417000       1.00800           0
     33090 TIP3     4792     TIP3     OH2      OT      -0.834000       15.9994           0
     33091 TIP3     4792     TIP3     H1       HT       0.417000       1.00800           0
     33092 TIP3     4792     TIP3     H2       HT       0.417000       1.00800           0
     33093 TIP3     4793     TIP3     OH2      OT      -0.834000       15.9994           0
     33094 TIP3     4793     TIP3     H1       HT       0.417000       1.00800           0
     33095 TIP3     4793     TIP3     H2       HT       0.417000       1.00800           0
     33096 TIP3     4794     TIP3     OH2      OT      -0.834000       15.9994           0
     33097 TIP3     4794     TIP3     H1       HT       0.417000       1.00800           0
     33098 TIP3     4794     TIP3     H2       HT       0.417000       1.00800           0
     33099 TIP3     4795     TIP3     OH2      OT      -0.834000       15.9994           0
     33100 TIP3     4795     TIP3     H1       HT       0.417000       1.00800           0
     33101 TIP3     4795     TIP3     H2       HT       0.417000       1.00800           0
     33102 TIP3     4796     TIP3     OH2      OT      -0.834000       15.9994           0
     33103 TIP3     4796     TIP3     H1       HT       0.417000       1.00800           0
     33104 TIP3     4796     TIP3     H2       HT       0.417000       1.00800           0
     33105 TIP3     4797     TIP3     OH2      OT      -0.834000       15.9994           0
     33106 TIP3     4797     TIP3     H1       HT       0.417000       1.00800           0
     33107 TIP3     4797     TIP3     H2       HT       0.417000       1.00800           0
     33108 TIP3     4798     TIP3     OH2      OT      -0.834000       15.9994           0
     33109 TIP3     4798     TIP3     H1       HT       0.417000       1.00800           0
     33110 TIP3     4798     TIP3     H2       HT       0.417000       1.00800           0
     33111 TIP3     4799     TIP3     OH2      OT      -0.834000       15.9994           0
     33112 TIP3     4799     TIP3     H1       HT       0.417000       1.00800           0
     33113 TIP3     4799     TIP3     H2       HT       0.417000       1.00800           0
     33114 TIP3     4800     TIP3     OH2      OT      -0.834000       15.9994           0
     33115 TIP3     4800     TIP3     H1       HT       0.417000       1.00800           0
     33116 TIP3     4800     TIP3     H2       HT       0.417000       1.00800           0
     33117 TIP3     4801     TIP3     OH2      OT      -0.834000       15.9994           0
     33118 TIP3     4801     TIP3     H1       HT       0.417000       1.00800           0
     33119 TIP3     4801     TIP3     H2       HT       0.417000       1.00800           0
     33120 TIP3     4802     TIP3     OH2      OT      -0.834000       15.9994           0
     33121 TIP3     4802     TIP3     H1       HT       0.417000       1.00800           0
     33122 TIP3     4802     TIP3     H2       HT       0.417000       1.00800           0
     33123 TIP3     4803     TIP3     OH2      OT      -0.834000       15.9994           0
     33124 TIP3     4803     TIP3     H1       HT       0.417000       1.00800           0
     33125 TIP3     4803     TIP3     H2       HT       0.417000       1.00800           0
     33126 TIP3     4804     TIP3     OH2      OT      -0.834000       15.9994           0
     33127 TIP3     4804     TIP3     H1       HT       0.417000       1.00800           0
     33128 TIP3     4804     TIP3     H2       HT       0.417000       1.00800           0
     33129 TIP3     4805     TIP3     OH2      OT      -0.834000       15.9994           0
     33130 TIP3     4805     TIP3     H1       HT       0.417000       1.00800           0
     33131 TIP3     4805     TIP3     H2       HT       0.417000       1.00800           0
     33132 TIP3     4806     TIP3     OH2      OT      -0.834000       15.9994           0
     33133 TIP3     4806     TIP3     H1       HT       0.417000       1.00800           0
     33134 TIP3     4806     TIP3     H2       HT       0.417000       1.00800           0
     33135 TIP3     4807     TIP3     OH2      OT      -0.834000       15.9994           0
     33136 TIP3     4807     TIP3     H1       HT       0.417000       1.00800           0
     33137 TIP3     4807     TIP3     H2       HT       0.417000       1.00800           0
     33138 TIP3     4808     TIP3     OH2      OT      -0.834000       15.9994           0
     33139 TIP3     4808     TIP3     H1       HT       0.417000       1.00800           0
     33140 TIP3     4808     TIP3     H2       HT       0.417000       1.00800           0
     33141 TIP3     4809     TIP3     OH2      OT      -0.834000       15.9994           0
     33142 TIP3     4809     TIP3     H1       HT       0.417000       1.00800           0
     33143 TIP3     4809     TIP3     H2       HT       0.417000       1.00800           0
     33144 TIP3     4810     TIP3     OH2      OT      -0.834000       15.9994           0
     33145 TIP3     4810     TIP3     H1       HT       0.417000       1.00800           0
     33146 TIP3     4810     TIP3     H2       HT       0.417000       1.00800           0
     33147 TIP3     4811     TIP3     OH2      OT      -0.834000       15.9994           0
     33148 TIP3     4811     TIP3     H1       HT       0.417000       1.00800           0
     33149 TIP3     4811     TIP3     H2       HT       0.417000       1.00800           0
     33150 TIP3     4812     TIP3     OH2      OT      -0.834000       15.9994           0
     33151 TIP3     4812     TIP3     H1       HT       0.417000       1.00800           0
     33152 TIP3     4812     TIP3     H2       HT       0.417000       1.00800           0
     33153 TIP3     4813     TIP3     OH2      OT      -0.834000       15.9994           0
     33154 TIP3     4813     TIP3     H1       HT       0.417000       1.00800           0
     33155 TIP3     4813     TIP3     H2       HT       0.417000       1.00800           0
     33156 TIP3     4814     TIP3     OH2      OT      -0.834000       15.9994           0
     33157 TIP3     4814     TIP3     H1       HT       0.417000       1.00800           0
     33158 TIP3     4814     TIP3     H2       HT       0.417000       1.00800           0
     33159 TIP3     4815     TIP3     OH2      OT      -0.834000       15.9994           0
     33160 TIP3     4815     TIP3     H1       HT       0.417000       1.00800           0
     33161 TIP3     4815     TIP3     H2       HT       0.417000       1.00800           0
     33162 TIP3     4816     TIP3     OH2      OT      -0.834000       15.9994           0
     33163 TIP3     4816     TIP3     H1       HT       0.417000       1.00800           0
     33164 TIP3     4816     TIP3     H2       HT       0.417000       1.00800           0
     33165 TIP3     4817     TIP3     OH2      OT      -0.834000       15.9994           0
     33166 TIP3     4817     TIP3     H1       HT       0.417000       1.00800           0
     33167 TIP3     4817     TIP3     H2       HT       0.417000       1.00800           0
     33168 TIP3     4818     TIP3     OH2      OT      -0.834000       15.9994           0
     33169 TIP3     4818     TIP3     H1       HT       0.417000       1.00800           0
     33170 TIP3     4818     TIP3     H2       HT       0.417000       1.00800           0
     33171 TIP3     4819     TIP3     OH2      OT      -0.834000       15.9994           0
     33172 TIP3     4819     TIP3     H1       HT       0.417000       1.00800           0
     33173 TIP3     4819     TIP3     H2       HT       0.417000       1.00800           0
     33174 TIP3     4820     TIP3     OH2      OT      -0.834000       15.9994           0
     33175 TIP3     4820     TIP3     H1       HT       0.417000       1.00800           0
     33176 TIP3     4820     TIP3     H2       HT       0.417000       1.00800           0
     33177 TIP3     4821     TIP3     OH2      OT      -0.834000       15.9994           0
     33178 TIP3     4821     TIP3     H1       HT       0.417000       1.00800           0
     33179 TIP3     4821     TIP3     H2       HT       0.417000       1.00800           0
     33180 TIP3     4822     TIP3     OH2      OT      -0.834000       15.9994           0
     33181 TIP3     4822     TIP3     H1       HT       0.417000       1.00800           0
     33182 TIP3     4822     TIP3     H2       HT       0.417000       1.00800           0
     33183 TIP3     4823     TIP3     OH2      OT      -0.834000       15.9994           0
     33184 TIP3     4823     TIP3     H1       HT       0.417000       1.00800           0
     33185 TIP3     4823     TIP3     H2       HT       0.417000       1.00800           0
     33186 TIP3     4824     TIP3     OH2      OT      -0.834000       15.9994           0
     33187 TIP3     4824     TIP3     H1       HT       0.417000       1.00800           0
     33188 TIP3     4824     TIP3     H2       HT       0.417000       1.00800           0
     33189 TIP3     4825     TIP3     OH2      OT      -0.834000       15.9994           0
     33190 TIP3     4825     TIP3     H1       HT       0.417000       1.00800           0
     33191 TIP3     4825     TIP3     H2       HT       0.417000       1.00800           0
     33192 TIP3     4826     TIP3     OH2      OT      -0.834000       15.9994           0
     33193 TIP3     4826     TIP3     H1       HT       0.417000       1.00800           0
     33194 TIP3     4826     TIP3     H2       HT       0.417000       1.00800           0
     33195 TIP3     4827     TIP3     OH2      OT      -0.834000       15.9994           0
     33196 TIP3     4827     TIP3     H1       HT       0.417000       1.00800           0
     33197 TIP3     4827     TIP3     H2       HT       0.417000       1.00800           0
     33198 TIP3     4828     TIP3     OH2      OT      -0.834000       15.9994           0
     33199 TIP3     4828     TIP3     H1       HT       0.417000       1.00800           0
     33200 TIP3     4828     TIP3     H2       HT       0.417000       1.00800           0
     33201 TIP3     4829     TIP3     OH2      OT      -0.834000       15.9994           0
     33202 TIP3     4829     TIP3     H1       HT       0.417000       1.00800           0
     33203 TIP3     4829     TIP3     H2       HT       0.417000       1.00800           0
     33204 TIP3     4830     TIP3     OH2      OT      -0.834000       15.9994           0
     33205 TIP3     4830     TIP3     H1       HT       0.417000       1.00800           0
     33206 TIP3     4830     TIP3     H2       HT       0.417000       1.00800           0
     33207 TIP3     4831     TIP3     OH2      OT      -0.834000       15.9994           0
     33208 TIP3     4831     TIP3     H1       HT       0.417000       1.00800           0
     33209 TIP3     4831     TIP3     H2       HT       0.417000       1.00800           0
     33210 TIP3     4832     TIP3     OH2      OT      -0.834000       15.9994           0
     33211 TIP3     4832     TIP3     H1       HT       0.417000       1.00800           0
     33212 TIP3     4832     TIP3     H2       HT       0.417000       1.00800           0
     33213 TIP3     4833     TIP3     OH2      OT      -0.834000       15.9994           0
     33214 TIP3     4833     TIP3     H1       HT       0.417000       1.00800           0
     33215 TIP3     4833     TIP3     H2       HT       0.417000       1.00800           0
     33216 TIP3     4834     TIP3     OH2      OT      -0.834000       15.9994           0
     33217 TIP3     4834     TIP3     H1       HT       0.417000       1.00800           0
     33218 TIP3     4834     TIP3     H2       HT       0.417000       1.00800           0
     33219 TIP3     4835     TIP3     OH2      OT      -0.834000       15.9994           0
     33220 TIP3     4835     TIP3     H1       HT       0.417000       1.00800           0
     33221 TIP3     4835     TIP3     H2       HT       0.417000       1.00800           0
     33222 TIP3     4836     TIP3     OH2      OT      -0.834000       15.9994           0
     33223 TIP3     4836     TIP3     H1       HT       0.417000       1.00800           0
     33224 TIP3     4836     TIP3     H2       HT       0.417000       1.00800           0
     33225 TIP3     4837     TIP3     OH2      OT      -0.834000       15.9994           0
     33226 TIP3     4837     TIP3     H1       HT       0.417000       1.00800           0
     33227 TIP3     4837     TIP3     H2       HT       0.417000       1.00800           0
     33228 TIP3     4838     TIP3     OH2      OT      -0.834000       15.9994           0
     33229 TIP3     4838     TIP3     H1       HT       0.417000       1.00800           0
     33230 TIP3     4838     TIP3     H2       HT       0.417000       1.00800           0
     33231 TIP3     4839     TIP3     OH2      OT      -0.834000       15.9994           0
     33232 TIP3     4839     TIP3     H1       HT       0.417000       1.00800           0
     33233 TIP3     4839     TIP3     H2       HT       0.417000       1.00800           0
     33234 TIP3     4840     TIP3     OH2      OT      -0.834000       15.9994           0
     33235 TIP3     4840     TIP3     H1       HT       0.417000       1.00800           0
     33236 TIP3     4840     TIP3     H2       HT       0.417000       1.00800           0
     33237 TIP3     4841     TIP3     OH2      OT      -0.834000       15.9994           0
     33238 TIP3     4841     TIP3     H1       HT       0.417000       1.00800           0
     33239 TIP3     4841     TIP3     H2       HT       0.417000       1.00800           0
     33240 TIP3     4842     TIP3     OH2      OT      -0.834000       15.9994           0
     33241 TIP3     4842     TIP3     H1       HT       0.417000       1.00800           0
     33242 TIP3     4842     TIP3     H2       HT       0.417000       1.00800           0
     33243 TIP3     4843     TIP3     OH2      OT      -0.834000       15.9994           0
     33244 TIP3     4843     TIP3     H1       HT       0.417000       1.00800           0
     33245 TIP3     4843     TIP3     H2       HT       0.417000       1.00800           0
     33246 TIP3     4844     TIP3     OH2      OT      -0.834000       15.9994           0
     33247 TIP3     4844     TIP3     H1       HT       0.417000       1.00800           0
     33248 TIP3     4844     TIP3     H2       HT       0.417000       1.00800           0
     33249 TIP3     4845     TIP3     OH2      OT      -0.834000       15.9994           0
     33250 TIP3     4845     TIP3     H1       HT       0.417000       1.00800           0
     33251 TIP3     4845     TIP3     H2       HT       0.417000       1.00800           0
     33252 TIP3     4846     TIP3     OH2      OT      -0.834000       15.9994           0
     33253 TIP3     4846     TIP3     H1       HT       0.417000       1.00800           0
     33254 TIP3     4846     TIP3     H2       HT       0.417000       1.00800           0
     33255 TIP3     4847     TIP3     OH2      OT      -0.834000       15.9994           0
     33256 TIP3     4847     TIP3     H1       HT       0.417000       1.00800           0
     33257 TIP3     4847     TIP3     H2       HT       0.417000       1.00800           0
     33258 TIP3     4848     TIP3     OH2      OT      -0.834000       15.9994           0
     33259 TIP3     4848     TIP3     H1       HT       0.417000       1.00800           0
     33260 TIP3     4848     TIP3     H2       HT       0.417000       1.00800           0
     33261 TIP3     4849     TIP3     OH2      OT      -0.834000       15.9994           0
     33262 TIP3     4849     TIP3     H1       HT       0.417000       1.00800           0
     33263 TIP3     4849     TIP3     H2       HT       0.417000       1.00800           0
     33264 TIP3     4850     TIP3     OH2      OT      -0.834000       15.9994           0
     33265 TIP3     4850     TIP3     H1       HT       0.417000       1.00800           0
     33266 TIP3     4850     TIP3     H2       HT       0.417000       1.00800           0
     33267 TIP3     4851     TIP3     OH2      OT      -0.834000       15.9994           0
     33268 TIP3     4851     TIP3     H1       HT       0.417000       1.00800           0
     33269 TIP3     4851     TIP3     H2       HT       0.417000       1.00800           0
     33270 TIP3     4852     TIP3     OH2      OT      -0.834000       15.9994           0
     33271 TIP3     4852     TIP3     H1       HT       0.417000       1.00800           0
     33272 TIP3     4852     TIP3     H2       HT       0.417000       1.00800           0
     33273 TIP3     4853     TIP3     OH2      OT      -0.834000       15.9994           0
     33274 TIP3     4853     TIP3     H1       HT       0.417000       1.00800           0
     33275 TIP3     4853     TIP3     H2       HT       0.417000       1.00800           0
     33276 TIP3     4854     TIP3     OH2      OT      -0.834000       15.9994           0
     33277 TIP3     4854     TIP3     H1       HT       0.417000       1.00800           0
     33278 TIP3     4854     TIP3     H2       HT       0.417000       1.00800           0
     33279 TIP3     4855     TIP3     OH2      OT      -0.834000       15.9994           0
     33280 TIP3     4855     TIP3     H1       HT       0.417000       1.00800           0
     33281 TIP3     4855     TIP3     H2       HT       0.417000       1.00800           0
     33282 TIP3     4856     TIP3     OH2      OT      -0.834000       15.9994           0
     33283 TIP3     4856     TIP3     H1       HT       0.417000       1.00800           0
     33284 TIP3     4856     TIP3     H2       HT       0.417000       1.00800           0
     33285 TIP3     4857     TIP3     OH2      OT      -0.834000       15.9994           0
     33286 TIP3     4857     TIP3     H1       HT       0.417000       1.00800           0
     33287 TIP3     4857     TIP3     H2       HT       0.417000       1.00800           0
     33288 TIP3     4858     TIP3     OH2      OT      -0.834000       15.9994           0
     33289 TIP3     4858     TIP3     H1       HT       0.417000       1.00800           0
     33290 TIP3     4858     TIP3     H2       HT       0.417000       1.00800           0
     33291 TIP3     4859     TIP3     OH2      OT      -0.834000       15.9994           0
     33292 TIP3     4859     TIP3     H1       HT       0.417000       1.00800           0
     33293 TIP3     4859     TIP3     H2       HT       0.417000       1.00800           0
     33294 TIP3     4860     TIP3     OH2      OT      -0.834000       15.9994           0
     33295 TIP3     4860     TIP3     H1       HT       0.417000       1.00800           0
     33296 TIP3     4860     TIP3     H2       HT       0.417000       1.00800           0
     33297 TIP3     4861     TIP3     OH2      OT      -0.834000       15.9994           0
     33298 TIP3     4861     TIP3     H1       HT       0.417000       1.00800           0
     33299 TIP3     4861     TIP3     H2       HT       0.417000       1.00800           0
     33300 TIP3     4862     TIP3     OH2      OT      -0.834000       15.9994           0
     33301 TIP3     4862     TIP3     H1       HT       0.417000       1.00800           0
     33302 TIP3     4862     TIP3     H2       HT       0.417000       1.00800           0
     33303 TIP3     4863     TIP3     OH2      OT      -0.834000       15.9994           0
     33304 TIP3     4863     TIP3     H1       HT       0.417000       1.00800           0
     33305 TIP3     4863     TIP3     H2       HT       0.417000       1.00800           0
     33306 TIP3     4864     TIP3     OH2      OT      -0.834000       15.9994           0
     33307 TIP3     4864     TIP3     H1       HT       0.417000       1.00800           0
     33308 TIP3     4864     TIP3     H2       HT       0.417000       1.00800           0
     33309 TIP3     4865     TIP3     OH2      OT      -0.834000       15.9994           0
     33310 TIP3     4865     TIP3     H1       HT       0.417000       1.00800           0
     33311 TIP3     4865     TIP3     H2       HT       0.417000       1.00800           0
     33312 TIP3     4866     TIP3     OH2      OT      -0.834000       15.9994           0
     33313 TIP3     4866     TIP3     H1       HT       0.417000       1.00800           0
     33314 TIP3     4866     TIP3     H2       HT       0.417000       1.00800           0
     33315 TIP3     4867     TIP3     OH2      OT      -0.834000       15.9994           0
     33316 TIP3     4867     TIP3     H1       HT       0.417000       1.00800           0
     33317 TIP3     4867     TIP3     H2       HT       0.417000       1.00800           0
     33318 TIP3     4868     TIP3     OH2      OT      -0.834000       15.9994           0
     33319 TIP3     4868     TIP3     H1       HT       0.417000       1.00800           0
     33320 TIP3     4868     TIP3     H2       HT       0.417000       1.00800           0
     33321 TIP3     4869     TIP3     OH2      OT      -0.834000       15.9994           0
     33322 TIP3     4869     TIP3     H1       HT       0.417000       1.00800           0
     33323 TIP3     4869     TIP3     H2       HT       0.417000       1.00800           0
     33324 TIP3     4870     TIP3     OH2      OT      -0.834000       15.9994           0
     33325 TIP3     4870     TIP3     H1       HT       0.417000       1.00800           0
     33326 TIP3     4870     TIP3     H2       HT       0.417000       1.00800           0
     33327 TIP3     4871     TIP3     OH2      OT      -0.834000       15.9994           0
     33328 TIP3     4871     TIP3     H1       HT       0.417000       1.00800           0
     33329 TIP3     4871     TIP3     H2       HT       0.417000       1.00800           0
     33330 TIP3     4872     TIP3     OH2      OT      -0.834000       15.9994           0
     33331 TIP3     4872     TIP3     H1       HT       0.417000       1.00800           0
     33332 TIP3     4872     TIP3     H2       HT       0.417000       1.00800           0
     33333 TIP3     4873     TIP3     OH2      OT      -0.834000       15.9994           0
     33334 TIP3     4873     TIP3     H1       HT       0.417000       1.00800           0
     33335 TIP3     4873     TIP3     H2       HT       0.417000       1.00800           0
     33336 TIP3     4874     TIP3     OH2      OT      -0.834000       15.9994           0
     33337 TIP3     4874     TIP3     H1       HT       0.417000       1.00800           0
     33338 TIP3     4874     TIP3     H2       HT       0.417000       1.00800           0
     33339 TIP3     4875     TIP3     OH2      OT      -0.834000       15.9994           0
     33340 TIP3     4875     TIP3     H1       HT       0.417000       1.00800           0
     33341 TIP3     4875     TIP3     H2       HT       0.417000       1.00800           0
     33342 TIP3     4876     TIP3     OH2      OT      -0.834000       15.9994           0
     33343 TIP3     4876     TIP3     H1       HT       0.417000       1.00800           0
     33344 TIP3     4876     TIP3     H2       HT       0.417000       1.00800           0
     33345 TIP3     4877     TIP3     OH2      OT      -0.834000       15.9994           0
     33346 TIP3     4877     TIP3     H1       HT       0.417000       1.00800           0
     33347 TIP3     4877     TIP3     H2       HT       0.417000       1.00800           0
     33348 TIP3     4878     TIP3     OH2      OT      -0.834000       15.9994           0
     33349 TIP3     4878     TIP3     H1       HT       0.417000       1.00800           0
     33350 TIP3     4878     TIP3     H2       HT       0.417000       1.00800           0
     33351 TIP3     4879     TIP3     OH2      OT      -0.834000       15.9994           0
     33352 TIP3     4879     TIP3     H1       HT       0.417000       1.00800           0
     33353 TIP3     4879     TIP3     H2       HT       0.417000       1.00800           0
     33354 TIP3     4880     TIP3     OH2      OT      -0.834000       15.9994           0
     33355 TIP3     4880     TIP3     H1       HT       0.417000       1.00800           0
     33356 TIP3     4880     TIP3     H2       HT       0.417000       1.00800           0
     33357 TIP3     4881     TIP3     OH2      OT      -0.834000       15.9994           0
     33358 TIP3     4881     TIP3     H1       HT       0.417000       1.00800           0
     33359 TIP3     4881     TIP3     H2       HT       0.417000       1.00800           0
     33360 TIP3     4882     TIP3     OH2      OT      -0.834000       15.9994           0
     33361 TIP3     4882     TIP3     H1       HT       0.417000       1.00800           0
     33362 TIP3     4882     TIP3     H2       HT       0.417000       1.00800           0
     33363 TIP3     4883     TIP3     OH2      OT      -0.834000       15.9994           0
     33364 TIP3     4883     TIP3     H1       HT       0.417000       1.00800           0
     33365 TIP3     4883     TIP3     H2       HT       0.417000       1.00800           0
     33366 TIP3     4884     TIP3     OH2      OT      -0.834000       15.9994           0
     33367 TIP3     4884     TIP3     H1       HT       0.417000       1.00800           0
     33368 TIP3     4884     TIP3     H2       HT       0.417000       1.00800           0
     33369 TIP3     4885     TIP3     OH2      OT      -0.834000       15.9994           0
     33370 TIP3     4885     TIP3     H1       HT       0.417000       1.00800           0
     33371 TIP3     4885     TIP3     H2       HT       0.417000       1.00800           0
     33372 TIP3     4886     TIP3     OH2      OT      -0.834000       15.9994           0
     33373 TIP3     4886     TIP3     H1       HT       0.417000       1.00800           0
     33374 TIP3     4886     TIP3     H2       HT       0.417000       1.00800           0
     33375 TIP3     4887     TIP3     OH2      OT      -0.834000       15.9994           0
     33376 TIP3     4887     TIP3     H1       HT       0.417000       1.00800           0
     33377 TIP3     4887     TIP3     H2       HT       0.417000       1.00800           0
     33378 TIP3     4888     TIP3     OH2      OT      -0.834000       15.9994           0
     33379 TIP3     4888     TIP3     H1       HT       0.417000       1.00800           0
     33380 TIP3     4888     TIP3     H2       HT       0.417000       1.00800           0
     33381 TIP3     4889     TIP3     OH2      OT      -0.834000       15.9994           0
     33382 TIP3     4889     TIP3     H1       HT       0.417000       1.00800           0
     33383 TIP3     4889     TIP3     H2       HT       0.417000       1.00800           0
     33384 TIP3     4890     TIP3     OH2      OT      -0.834000       15.9994           0
     33385 TIP3     4890     TIP3     H1       HT       0.417000       1.00800           0
     33386 TIP3     4890     TIP3     H2       HT       0.417000       1.00800           0
     33387 TIP3     4891     TIP3     OH2      OT      -0.834000       15.9994           0
     33388 TIP3     4891     TIP3     H1       HT       0.417000       1.00800           0
     33389 TIP3     4891     TIP3     H2       HT       0.417000       1.00800           0
     33390 TIP3     4892     TIP3     OH2      OT      -0.834000       15.9994           0
     33391 TIP3     4892     TIP3     H1       HT       0.417000       1.00800           0
     33392 TIP3     4892     TIP3     H2       HT       0.417000       1.00800           0
     33393 TIP3     4893     TIP3     OH2      OT      -0.834000       15.9994           0
     33394 TIP3     4893     TIP3     H1       HT       0.417000       1.00800           0
     33395 TIP3     4893     TIP3     H2       HT       0.417000       1.00800           0
     33396 TIP3     4894     TIP3     OH2      OT      -0.834000       15.9994           0
     33397 TIP3     4894     TIP3     H1       HT       0.417000       1.00800           0
     33398 TIP3     4894     TIP3     H2       HT       0.417000       1.00800           0
     33399 TIP3     4895     TIP3     OH2      OT      -0.834000       15.9994           0
     33400 TIP3     4895     TIP3     H1       HT       0.417000       1.00800           0
     33401 TIP3     4895     TIP3     H2       HT       0.417000       1.00800           0
     33402 TIP3     4896     TIP3     OH2      OT      -0.834000       15.9994           0
     33403 TIP3     4896     TIP3     H1       HT       0.417000       1.00800           0
     33404 TIP3     4896     TIP3     H2       HT       0.417000       1.00800           0
     33405 TIP3     4897     TIP3     OH2      OT      -0.834000       15.9994           0
     33406 TIP3     4897     TIP3     H1       HT       0.417000       1.00800           0
     33407 TIP3     4897     TIP3     H2       HT       0.417000       1.00800           0
     33408 TIP3     4898     TIP3     OH2      OT      -0.834000       15.9994           0
     33409 TIP3     4898     TIP3     H1       HT       0.417000       1.00800           0
     33410 TIP3     4898     TIP3     H2       HT       0.417000       1.00800           0
     33411 TIP3     4899     TIP3     OH2      OT      -0.834000       15.9994           0
     33412 TIP3     4899     TIP3     H1       HT       0.417000       1.00800           0
     33413 TIP3     4899     TIP3     H2       HT       0.417000       1.00800           0
     33414 TIP3     4900     TIP3     OH2      OT      -0.834000       15.9994           0
     33415 TIP3     4900     TIP3     H1       HT       0.417000       1.00800           0
     33416 TIP3     4900     TIP3     H2       HT       0.417000       1.00800           0
     33417 TIP3     4901     TIP3     OH2      OT      -0.834000       15.9994           0
     33418 TIP3     4901     TIP3     H1       HT       0.417000       1.00800           0
     33419 TIP3     4901     TIP3     H2       HT       0.417000       1.00800           0
     33420 TIP3     4902     TIP3     OH2      OT      -0.834000       15.9994           0
     33421 TIP3     4902     TIP3     H1       HT       0.417000       1.00800           0
     33422 TIP3     4902     TIP3     H2       HT       0.417000       1.00800           0
     33423 TIP3     4903     TIP3     OH2      OT      -0.834000       15.9994           0
     33424 TIP3     4903     TIP3     H1       HT       0.417000       1.00800           0
     33425 TIP3     4903     TIP3     H2       HT       0.417000       1.00800           0
     33426 TIP3     4904     TIP3     OH2      OT      -0.834000       15.9994           0
     33427 TIP3     4904     TIP3     H1       HT       0.417000       1.00800           0
     33428 TIP3     4904     TIP3     H2       HT       0.417000       1.00800           0
     33429 TIP3     4905     TIP3     OH2      OT      -0.834000       15.9994           0
     33430 TIP3     4905     TIP3     H1       HT       0.417000       1.00800           0
     33431 TIP3     4905     TIP3     H2       HT       0.417000       1.00800           0
     33432 TIP3     4906     TIP3     OH2      OT      -0.834000       15.9994           0
     33433 TIP3     4906     TIP3     H1       HT       0.417000       1.00800           0
     33434 TIP3     4906     TIP3     H2       HT       0.417000       1.00800           0
     33435 TIP3     4907     TIP3     OH2      OT      -0.834000       15.9994           0
     33436 TIP3     4907     TIP3     H1       HT       0.417000       1.00800           0
     33437 TIP3     4907     TIP3     H2       HT       0.417000       1.00800           0
     33438 TIP3     4908     TIP3     OH2      OT      -0.834000       15.9994           0
     33439 TIP3     4908     TIP3     H1       HT       0.417000       1.00800           0
     33440 TIP3     4908     TIP3     H2       HT       0.417000       1.00800           0
     33441 TIP3     4909     TIP3     OH2      OT      -0.834000       15.9994           0
     33442 TIP3     4909     TIP3     H1       HT       0.417000       1.00800           0
     33443 TIP3     4909     TIP3     H2       HT       0.417000       1.00800           0
     33444 TIP3     4910     TIP3     OH2      OT      -0.834000       15.9994           0
     33445 TIP3     4910     TIP3     H1       HT       0.417000       1.00800           0
     33446 TIP3     4910     TIP3     H2       HT       0.417000       1.00800           0
     33447 TIP3     4911     TIP3     OH2      OT      -0.834000       15.9994           0
     33448 TIP3     4911     TIP3     H1       HT       0.417000       1.00800           0
     33449 TIP3     4911     TIP3     H2       HT       0.417000       1.00800           0
     33450 TIP3     4912     TIP3     OH2      OT      -0.834000       15.9994           0
     33451 TIP3     4912     TIP3     H1       HT       0.417000       1.00800           0
     33452 TIP3     4912     TIP3     H2       HT       0.417000       1.00800           0
     33453 TIP3     4913     TIP3     OH2      OT      -0.834000       15.9994           0
     33454 TIP3     4913     TIP3     H1       HT       0.417000       1.00800           0
     33455 TIP3     4913     TIP3     H2       HT       0.417000       1.00800           0
     33456 TIP3     4914     TIP3     OH2      OT      -0.834000       15.9994           0
     33457 TIP3     4914     TIP3     H1       HT       0.417000       1.00800           0
     33458 TIP3     4914     TIP3     H2       HT       0.417000       1.00800           0
     33459 TIP3     4915     TIP3     OH2      OT      -0.834000       15.9994           0
     33460 TIP3     4915     TIP3     H1       HT       0.417000       1.00800           0
     33461 TIP3     4915     TIP3     H2       HT       0.417000       1.00800           0
     33462 TIP3     4916     TIP3     OH2      OT      -0.834000       15.9994           0
     33463 TIP3     4916     TIP3     H1       HT       0.417000       1.00800           0
     33464 TIP3     4916     TIP3     H2       HT       0.417000       1.00800           0
     33465 TIP3     4917     TIP3     OH2      OT      -0.834000       15.9994           0
     33466 TIP3     4917     TIP3     H1       HT       0.417000       1.00800           0
     33467 TIP3     4917     TIP3     H2       HT       0.417000       1.00800           0
     33468 TIP3     4918     TIP3     OH2      OT      -0.834000       15.9994           0
     33469 TIP3     4918     TIP3     H1       HT       0.417000       1.00800           0
     33470 TIP3     4918     TIP3     H2       HT       0.417000       1.00800           0
     33471 TIP3     4919     TIP3     OH2      OT      -0.834000       15.9994           0
     33472 TIP3     4919     TIP3     H1       HT       0.417000       1.00800           0
     33473 TIP3     4919     TIP3     H2       HT       0.417000       1.00800           0
     33474 TIP3     4920     TIP3     OH2      OT      -0.834000       15.9994           0
     33475 TIP3     4920     TIP3     H1       HT       0.417000       1.00800           0
     33476 TIP3     4920     TIP3     H2       HT       0.417000       1.00800           0
     33477 TIP3     4921     TIP3     OH2      OT      -0.834000       15.9994           0
     33478 TIP3     4921     TIP3     H1       HT       0.417000       1.00800           0
     33479 TIP3     4921     TIP3     H2       HT       0.417000       1.00800           0
     33480 TIP3     4922     TIP3     OH2      OT      -0.834000       15.9994           0
     33481 TIP3     4922     TIP3     H1       HT       0.417000       1.00800           0
     33482 TIP3     4922     TIP3     H2       HT       0.417000       1.00800           0
     33483 TIP3     4923     TIP3     OH2      OT      -0.834000       15.9994           0
     33484 TIP3     4923     TIP3     H1       HT       0.417000       1.00800           0
     33485 TIP3     4923     TIP3     H2       HT       0.417000       1.00800           0
     33486 TIP3     4924     TIP3     OH2      OT      -0.834000       15.9994           0
     33487 TIP3     4924     TIP3     H1       HT       0.417000       1.00800           0
     33488 TIP3     4924     TIP3     H2       HT       0.417000       1.00800           0
     33489 TIP3     4925     TIP3     OH2      OT      -0.834000       15.9994           0
     33490 TIP3     4925     TIP3     H1       HT       0.417000       1.00800           0
     33491 TIP3     4925     TIP3     H2       HT       0.417000       1.00800           0
     33492 TIP3     4926     TIP3     OH2      OT      -0.834000       15.9994           0
     33493 TIP3     4926     TIP3     H1       HT       0.417000       1.00800           0
     33494 TIP3     4926     TIP3     H2       HT       0.417000       1.00800           0
     33495 TIP3     4927     TIP3     OH2      OT      -0.834000       15.9994           0
     33496 TIP3     4927     TIP3     H1       HT       0.417000       1.00800           0
     33497 TIP3     4927     TIP3     H2       HT       0.417000       1.00800           0
     33498 TIP3     4928     TIP3     OH2      OT      -0.834000       15.9994           0
     33499 TIP3     4928     TIP3     H1       HT       0.417000       1.00800           0
     33500 TIP3     4928     TIP3     H2       HT       0.417000       1.00800           0
     33501 TIP3     4929     TIP3     OH2      OT      -0.834000       15.9994           0
     33502 TIP3     4929     TIP3     H1       HT       0.417000       1.00800           0
     33503 TIP3     4929     TIP3     H2       HT       0.417000       1.00800           0
     33504 TIP3     4930     TIP3     OH2      OT      -0.834000       15.9994           0
     33505 TIP3     4930     TIP3     H1       HT       0.417000       1.00800           0
     33506 TIP3     4930     TIP3     H2       HT       0.417000       1.00800           0
     33507 TIP3     4931     TIP3     OH2      OT      -0.834000       15.9994           0
     33508 TIP3     4931     TIP3     H1       HT       0.417000       1.00800           0
     33509 TIP3     4931     TIP3     H2       HT       0.417000       1.00800           0
     33510 TIP3     4932     TIP3     OH2      OT      -0.834000       15.9994           0
     33511 TIP3     4932     TIP3     H1       HT       0.417000       1.00800           0
     33512 TIP3     4932     TIP3     H2       HT       0.417000       1.00800           0
     33513 TIP3     4933     TIP3     OH2      OT      -0.834000       15.9994           0
     33514 TIP3     4933     TIP3     H1       HT       0.417000       1.00800           0
     33515 TIP3     4933     TIP3     H2       HT       0.417000       1.00800           0
     33516 TIP3     4934     TIP3     OH2      OT      -0.834000       15.9994           0
     33517 TIP3     4934     TIP3     H1       HT       0.417000       1.00800           0
     33518 TIP3     4934     TIP3     H2       HT       0.417000       1.00800           0
     33519 TIP3     4935     TIP3     OH2      OT      -0.834000       15.9994           0
     33520 TIP3     4935     TIP3     H1       HT       0.417000       1.00800           0
     33521 TIP3     4935     TIP3     H2       HT       0.417000       1.00800           0
     33522 TIP3     4936     TIP3     OH2      OT      -0.834000       15.9994           0
     33523 TIP3     4936     TIP3     H1       HT       0.417000       1.00800           0
     33524 TIP3     4936     TIP3     H2       HT       0.417000       1.00800           0
     33525 TIP3     4937     TIP3     OH2      OT      -0.834000       15.9994           0
     33526 TIP3     4937     TIP3     H1       HT       0.417000       1.00800           0
     33527 TIP3     4937     TIP3     H2       HT       0.417000       1.00800           0
     33528 TIP3     4938     TIP3     OH2      OT      -0.834000       15.9994           0
     33529 TIP3     4938     TIP3     H1       HT       0.417000       1.00800           0
     33530 TIP3     4938     TIP3     H2       HT       0.417000       1.00800           0
     33531 TIP3     4939     TIP3     OH2      OT      -0.834000       15.9994           0
     33532 TIP3     4939     TIP3     H1       HT       0.417000       1.00800           0
     33533 TIP3     4939     TIP3     H2       HT       0.417000       1.00800           0
     33534 TIP3     4940     TIP3     OH2      OT      -0.834000       15.9994           0
     33535 TIP3     4940     TIP3     H1       HT       0.417000       1.00800           0
     33536 TIP3     4940     TIP3     H2       HT       0.417000       1.00800           0
     33537 TIP3     4941     TIP3     OH2      OT      -0.834000       15.9994           0
     33538 TIP3     4941     TIP3     H1       HT       0.417000       1.00800           0
     33539 TIP3     4941     TIP3     H2       HT       0.417000       1.00800           0
     33540 TIP3     4942     TIP3     OH2      OT      -0.834000       15.9994           0
     33541 TIP3     4942     TIP3     H1       HT       0.417000       1.00800           0
     33542 TIP3     4942     TIP3     H2       HT       0.417000       1.00800           0
     33543 TIP3     4943     TIP3     OH2      OT      -0.834000       15.9994           0
     33544 TIP3     4943     TIP3     H1       HT       0.417000       1.00800           0
     33545 TIP3     4943     TIP3     H2       HT       0.417000       1.00800           0
     33546 TIP3     4944     TIP3     OH2      OT      -0.834000       15.9994           0
     33547 TIP3     4944     TIP3     H1       HT       0.417000       1.00800           0
     33548 TIP3     4944     TIP3     H2       HT       0.417000       1.00800           0
     33549 TIP3     4945     TIP3     OH2      OT      -0.834000       15.9994           0
     33550 TIP3     4945     TIP3     H1       HT       0.417000       1.00800           0
     33551 TIP3     4945     TIP3     H2       HT       0.417000       1.00800           0
     33552 TIP3     4946     TIP3     OH2      OT      -0.834000       15.9994           0
     33553 TIP3     4946     TIP3     H1       HT       0.417000       1.00800           0
     33554 TIP3     4946     TIP3     H2       HT       0.417000       1.00800           0
     33555 TIP3     4947     TIP3     OH2      OT      -0.834000       15.9994           0
     33556 TIP3     4947     TIP3     H1       HT       0.417000       1.00800           0
     33557 TIP3     4947     TIP3     H2       HT       0.417000       1.00800           0
     33558 TIP3     4948     TIP3     OH2      OT      -0.834000       15.9994           0
     33559 TIP3     4948     TIP3     H1       HT       0.417000       1.00800           0
     33560 TIP3     4948     TIP3     H2       HT       0.417000       1.00800           0
     33561 TIP3     4949     TIP3     OH2      OT      -0.834000       15.9994           0
     33562 TIP3     4949     TIP3     H1       HT       0.417000       1.00800           0
     33563 TIP3     4949     TIP3     H2       HT       0.417000       1.00800           0
     33564 TIP3     4950     TIP3     OH2      OT      -0.834000       15.9994           0
     33565 TIP3     4950     TIP3     H1       HT       0.417000       1.00800           0
     33566 TIP3     4950     TIP3     H2       HT       0.417000       1.00800           0
     33567 TIP3     4951     TIP3     OH2      OT      -0.834000       15.9994           0
     33568 TIP3     4951     TIP3     H1       HT       0.417000       1.00800           0
     33569 TIP3     4951     TIP3     H2       HT       0.417000       1.00800           0
     33570 TIP3     4952     TIP3     OH2      OT      -0.834000       15.9994           0
     33571 TIP3     4952     TIP3     H1       HT       0.417000       1.00800           0
     33572 TIP3     4952     TIP3     H2       HT       0.417000       1.00800           0
     33573 TIP3     4953     TIP3     OH2      OT      -0.834000       15.9994           0
     33574 TIP3     4953     TIP3     H1       HT       0.417000       1.00800           0
     33575 TIP3     4953     TIP3     H2       HT       0.417000       1.00800           0
     33576 TIP3     4954     TIP3     OH2      OT      -0.834000       15.9994           0
     33577 TIP3     4954     TIP3     H1       HT       0.417000       1.00800           0
     33578 TIP3     4954     TIP3     H2       HT       0.417000       1.00800           0
     33579 TIP3     4955     TIP3     OH2      OT      -0.834000       15.9994           0
     33580 TIP3     4955     TIP3     H1       HT       0.417000       1.00800           0
     33581 TIP3     4955     TIP3     H2       HT       0.417000       1.00800           0
     33582 TIP3     4956     TIP3     OH2      OT      -0.834000       15.9994           0
     33583 TIP3     4956     TIP3     H1       HT       0.417000       1.00800           0
     33584 TIP3     4956     TIP3     H2       HT       0.417000       1.00800           0
     33585 TIP3     4957     TIP3     OH2      OT      -0.834000       15.9994           0
     33586 TIP3     4957     TIP3     H1       HT       0.417000       1.00800           0
     33587 TIP3     4957     TIP3     H2       HT       0.417000       1.00800           0
     33588 TIP3     4958     TIP3     OH2      OT      -0.834000       15.9994           0
     33589 TIP3     4958     TIP3     H1       HT       0.417000       1.00800           0
     33590 TIP3     4958     TIP3     H2       HT       0.417000       1.00800           0
     33591 TIP3     4959     TIP3     OH2      OT      -0.834000       15.9994           0
     33592 TIP3     4959     TIP3     H1       HT       0.417000       1.00800           0
     33593 TIP3     4959     TIP3     H2       HT       0.417000       1.00800           0
     33594 TIP3     4960     TIP3     OH2      OT      -0.834000       15.9994           0
     33595 TIP3     4960     TIP3     H1       HT       0.417000       1.00800           0
     33596 TIP3     4960     TIP3     H2       HT       0.417000       1.00800           0
     33597 TIP3     4961     TIP3     OH2      OT      -0.834000       15.9994           0
     33598 TIP3     4961     TIP3     H1       HT       0.417000       1.00800           0
     33599 TIP3     4961     TIP3     H2       HT       0.417000       1.00800           0
     33600 TIP3     4962     TIP3     OH2      OT      -0.834000       15.9994           0
     33601 TIP3     4962     TIP3     H1       HT       0.417000       1.00800           0
     33602 TIP3     4962     TIP3     H2       HT       0.417000       1.00800           0
     33603 TIP3     4963     TIP3     OH2      OT      -0.834000       15.9994           0
     33604 TIP3     4963     TIP3     H1       HT       0.417000       1.00800           0
     33605 TIP3     4963     TIP3     H2       HT       0.417000       1.00800           0
     33606 TIP3     4964     TIP3     OH2      OT      -0.834000       15.9994           0
     33607 TIP3     4964     TIP3     H1       HT       0.417000       1.00800           0
     33608 TIP3     4964     TIP3     H2       HT       0.417000       1.00800           0
     33609 TIP3     4965     TIP3     OH2      OT      -0.834000       15.9994           0
     33610 TIP3     4965     TIP3     H1       HT       0.417000       1.00800           0
     33611 TIP3     4965     TIP3     H2       HT       0.417000       1.00800           0
     33612 TIP3     4966     TIP3     OH2      OT      -0.834000       15.9994           0
     33613 TIP3     4966     TIP3     H1       HT       0.417000       1.00800           0
     33614 TIP3     4966     TIP3     H2       HT       0.417000       1.00800           0
     33615 TIP3     4967     TIP3     OH2      OT      -0.834000       15.9994           0
     33616 TIP3     4967     TIP3     H1       HT       0.417000       1.00800           0
     33617 TIP3     4967     TIP3     H2       HT       0.417000       1.00800           0
     33618 TIP3     4968     TIP3     OH2      OT      -0.834000       15.9994           0
     33619 TIP3     4968     TIP3     H1       HT       0.417000       1.00800           0
     33620 TIP3     4968     TIP3     H2       HT       0.417000       1.00800           0
     33621 TIP3     4969     TIP3     OH2      OT      -0.834000       15.9994           0
     33622 TIP3     4969     TIP3     H1       HT       0.417000       1.00800           0
     33623 TIP3     4969     TIP3     H2       HT       0.417000       1.00800           0
     33624 TIP3     4970     TIP3     OH2      OT      -0.834000       15.9994           0
     33625 TIP3     4970     TIP3     H1       HT       0.417000       1.00800           0
     33626 TIP3     4970     TIP3     H2       HT       0.417000       1.00800           0
     33627 TIP3     4971     TIP3     OH2      OT      -0.834000       15.9994           0
     33628 TIP3     4971     TIP3     H1       HT       0.417000       1.00800           0
     33629 TIP3     4971     TIP3     H2       HT       0.417000       1.00800           0
     33630 TIP3     4972     TIP3     OH2      OT      -0.834000       15.9994           0
     33631 TIP3     4972     TIP3     H1       HT       0.417000       1.00800           0
     33632 TIP3     4972     TIP3     H2       HT       0.417000       1.00800           0
     33633 TIP3     4973     TIP3     OH2      OT      -0.834000       15.9994           0
     33634 TIP3     4973     TIP3     H1       HT       0.417000       1.00800           0
     33635 TIP3     4973     TIP3     H2       HT       0.417000       1.00800           0
     33636 TIP3     4974     TIP3     OH2      OT      -0.834000       15.9994           0
     33637 TIP3     4974     TIP3     H1       HT       0.417000       1.00800           0
     33638 TIP3     4974     TIP3     H2       HT       0.417000       1.00800           0
     33639 TIP3     4975     TIP3     OH2      OT      -0.834000       15.9994           0
     33640 TIP3     4975     TIP3     H1       HT       0.417000       1.00800           0
     33641 TIP3     4975     TIP3     H2       HT       0.417000       1.00800           0
     33642 TIP3     4976     TIP3     OH2      OT      -0.834000       15.9994           0
     33643 TIP3     4976     TIP3     H1       HT       0.417000       1.00800           0
     33644 TIP3     4976     TIP3     H2       HT       0.417000       1.00800           0
     33645 TIP3     4977     TIP3     OH2      OT      -0.834000       15.9994           0
     33646 TIP3     4977     TIP3     H1       HT       0.417000       1.00800           0
     33647 TIP3     4977     TIP3     H2       HT       0.417000       1.00800           0
     33648 TIP3     4978     TIP3     OH2      OT      -0.834000       15.9994           0
     33649 TIP3     4978     TIP3     H1       HT       0.417000       1.00800           0
     33650 TIP3     4978     TIP3     H2       HT       0.417000       1.00800           0
     33651 TIP3     4979     TIP3     OH2      OT      -0.834000       15.9994           0
     33652 TIP3     4979     TIP3     H1       HT       0.417000       1.00800           0
     33653 TIP3     4979     TIP3     H2       HT       0.417000       1.00800           0
     33654 TIP3     4980     TIP3     OH2      OT      -0.834000       15.9994           0
     33655 TIP3     4980     TIP3     H1       HT       0.417000       1.00800           0
     33656 TIP3     4980     TIP3     H2       HT       0.417000       1.00800           0
     33657 TIP3     4981     TIP3     OH2      OT      -0.834000       15.9994           0
     33658 TIP3     4981     TIP3     H1       HT       0.417000       1.00800           0
     33659 TIP3     4981     TIP3     H2       HT       0.417000       1.00800           0
     33660 TIP3     4982     TIP3     OH2      OT      -0.834000       15.9994           0
     33661 TIP3     4982     TIP3     H1       HT       0.417000       1.00800           0
     33662 TIP3     4982     TIP3     H2       HT       0.417000       1.00800           0
     33663 TIP3     4983     TIP3     OH2      OT      -0.834000       15.9994           0
     33664 TIP3     4983     TIP3     H1       HT       0.417000       1.00800           0
     33665 TIP3     4983     TIP3     H2       HT       0.417000       1.00800           0
     33666 TIP3     4984     TIP3     OH2      OT      -0.834000       15.9994           0
     33667 TIP3     4984     TIP3     H1       HT       0.417000       1.00800           0
     33668 TIP3     4984     TIP3     H2       HT       0.417000       1.00800           0
     33669 TIP3     4985     TIP3     OH2      OT      -0.834000       15.9994           0
     33670 TIP3     4985     TIP3     H1       HT       0.417000       1.00800           0
     33671 TIP3     4985     TIP3     H2       HT       0.417000       1.00800           0
     33672 TIP3     4986     TIP3     OH2      OT      -0.834000       15.9994           0
     33673 TIP3     4986     TIP3     H1       HT       0.417000       1.00800           0
     33674 TIP3     4986     TIP3     H2       HT       0.417000       1.00800           0
     33675 TIP3     4987     TIP3     OH2      OT      -0.834000       15.9994           0
     33676 TIP3     4987     TIP3     H1       HT       0.417000       1.00800           0
     33677 TIP3     4987     TIP3     H2       HT       0.417000       1.00800           0
     33678 TIP3     4988     TIP3     OH2      OT      -0.834000       15.9994           0
     33679 TIP3     4988     TIP3     H1       HT       0.417000       1.00800           0
     33680 TIP3     4988     TIP3     H2       HT       0.417000       1.00800           0
     33681 TIP3     4989     TIP3     OH2      OT      -0.834000       15.9994           0
     33682 TIP3     4989     TIP3     H1       HT       0.417000       1.00800           0
     33683 TIP3     4989     TIP3     H2       HT       0.417000       1.00800           0
     33684 TIP3     4990     TIP3     OH2      OT      -0.834000       15.9994           0
     33685 TIP3     4990     TIP3     H1       HT       0.417000       1.00800           0
     33686 TIP3     4990     TIP3     H2       HT       0.417000       1.00800           0
     33687 TIP3     4991     TIP3     OH2      OT      -0.834000       15.9994           0
     33688 TIP3     4991     TIP3     H1       HT       0.417000       1.00800           0
     33689 TIP3     4991     TIP3     H2       HT       0.417000       1.00800           0
     33690 TIP3     4992     TIP3     OH2      OT      -0.834000       15.9994           0
     33691 TIP3     4992     TIP3     H1       HT       0.417000       1.00800           0
     33692 TIP3     4992     TIP3     H2       HT       0.417000       1.00800           0
     33693 TIP3     4993     TIP3     OH2      OT      -0.834000       15.9994           0
     33694 TIP3     4993     TIP3     H1       HT       0.417000       1.00800           0
     33695 TIP3     4993     TIP3     H2       HT       0.417000       1.00800           0
     33696 TIP3     4994     TIP3     OH2      OT      -0.834000       15.9994           0
     33697 TIP3     4994     TIP3     H1       HT       0.417000       1.00800           0
     33698 TIP3     4994     TIP3     H2       HT       0.417000       1.00800           0
     33699 TIP3     4995     TIP3     OH2      OT      -0.834000       15.9994           0
     33700 TIP3     4995     TIP3     H1       HT       0.417000       1.00800           0
     33701 TIP3     4995     TIP3     H2       HT       0.417000       1.00800           0
     33702 TIP3     4996     TIP3     OH2      OT      -0.834000       15.9994           0
     33703 TIP3     4996     TIP3     H1       HT       0.417000       1.00800           0
     33704 TIP3     4996     TIP3     H2       HT       0.417000       1.00800           0
     33705 TIP3     4997     TIP3     OH2      OT      -0.834000       15.9994           0
     33706 TIP3     4997     TIP3     H1       HT       0.417000       1.00800           0
     33707 TIP3     4997     TIP3     H2       HT       0.417000       1.00800           0
     33708 TIP3     4998     TIP3     OH2      OT      -0.834000       15.9994           0
     33709 TIP3     4998     TIP3     H1       HT       0.417000       1.00800           0
     33710 TIP3     4998     TIP3     H2       HT       0.417000       1.00800           0
     33711 TIP3     4999     TIP3     OH2      OT      -0.834000       15.9994           0
     33712 TIP3     4999     TIP3     H1       HT       0.417000       1.00800           0
     33713 TIP3     4999     TIP3     H2       HT       0.417000       1.00800           0
     33714 TIP3     5000     TIP3     OH2      OT      -0.834000       15.9994           0
     33715 TIP3     5000     TIP3     H1       HT       0.417000       1.00800           0
     33716 TIP3     5000     TIP3     H2       HT       0.417000       1.00800           0
     33717 TIP3     5001     TIP3     OH2      OT      -0.834000       15.9994           0
     33718 TIP3     5001     TIP3     H1       HT       0.417000       1.00800           0
     33719 TIP3     5001     TIP3     H2       HT       0.417000       1.00800           0
     33720 TIP3     5002     TIP3     OH2      OT      -0.834000       15.9994           0
     33721 TIP3     5002     TIP3     H1       HT       0.417000       1.00800           0
     33722 TIP3     5002     TIP3     H2       HT       0.417000       1.00800           0
     33723 TIP3     5003     TIP3     OH2      OT      -0.834000       15.9994           0
     33724 TIP3     5003     TIP3     H1       HT       0.417000       1.00800           0
     33725 TIP3     5003     TIP3     H2       HT       0.417000       1.00800           0
     33726 TIP3     5004     TIP3     OH2      OT      -0.834000       15.9994           0
     33727 TIP3     5004     TIP3     H1       HT       0.417000       1.00800           0
     33728 TIP3     5004     TIP3     H2       HT       0.417000       1.00800           0
     33729 TIP3     5005     TIP3     OH2      OT      -0.834000       15.9994           0
     33730 TIP3     5005     TIP3     H1       HT       0.417000       1.00800           0
     33731 TIP3     5005     TIP3     H2       HT       0.417000       1.00800           0
     33732 TIP3     5006     TIP3     OH2      OT      -0.834000       15.9994           0
     33733 TIP3     5006     TIP3     H1       HT       0.417000       1.00800           0
     33734 TIP3     5006     TIP3     H2       HT       0.417000       1.00800           0
     33735 TIP3     5007     TIP3     OH2      OT      -0.834000       15.9994           0
     33736 TIP3     5007     TIP3     H1       HT       0.417000       1.00800           0
     33737 TIP3     5007     TIP3     H2       HT       0.417000       1.00800           0
     33738 TIP3     5008     TIP3     OH2      OT      -0.834000       15.9994           0
     33739 TIP3     5008     TIP3     H1       HT       0.417000       1.00800           0
     33740 TIP3     5008     TIP3     H2       HT       0.417000       1.00800           0
     33741 TIP3     5009     TIP3     OH2      OT      -0.834000       15.9994           0
     33742 TIP3     5009     TIP3     H1       HT       0.417000       1.00800           0
     33743 TIP3     5009     TIP3     H2       HT       0.417000       1.00800           0
     33744 TIP3     5010     TIP3     OH2      OT      -0.834000       15.9994           0
     33745 TIP3     5010     TIP3     H1       HT       0.417000       1.00800           0
     33746 TIP3     5010     TIP3     H2       HT       0.417000       1.00800           0
     33747 TIP3     5011     TIP3     OH2      OT      -0.834000       15.9994           0
     33748 TIP3     5011     TIP3     H1       HT       0.417000       1.00800           0
     33749 TIP3     5011     TIP3     H2       HT       0.417000       1.00800           0
     33750 TIP3     5012     TIP3     OH2      OT      -0.834000       15.9994           0
     33751 TIP3     5012     TIP3     H1       HT       0.417000       1.00800           0
     33752 TIP3     5012     TIP3     H2       HT       0.417000       1.00800           0
     33753 TIP3     5013     TIP3     OH2      OT      -0.834000       15.9994           0
     33754 TIP3     5013     TIP3     H1       HT       0.417000       1.00800           0
     33755 TIP3     5013     TIP3     H2       HT       0.417000       1.00800           0
     33756 TIP3     5014     TIP3     OH2      OT      -0.834000       15.9994           0
     33757 TIP3     5014     TIP3     H1       HT       0.417000       1.00800           0
     33758 TIP3     5014     TIP3     H2       HT       0.417000       1.00800           0
     33759 TIP3     5015     TIP3     OH2      OT      -0.834000       15.9994           0
     33760 TIP3     5015     TIP3     H1       HT       0.417000       1.00800           0
     33761 TIP3     5015     TIP3     H2       HT       0.417000       1.00800           0
     33762 TIP3     5016     TIP3     OH2      OT      -0.834000       15.9994           0
     33763 TIP3     5016     TIP3     H1       HT       0.417000       1.00800           0
     33764 TIP3     5016     TIP3     H2       HT       0.417000       1.00800           0
     33765 TIP3     5017     TIP3     OH2      OT      -0.834000       15.9994           0
     33766 TIP3     5017     TIP3     H1       HT       0.417000       1.00800           0
     33767 TIP3     5017     TIP3     H2       HT       0.417000       1.00800           0
     33768 TIP3     5018     TIP3     OH2      OT      -0.834000       15.9994           0
     33769 TIP3     5018     TIP3     H1       HT       0.417000       1.00800           0
     33770 TIP3     5018     TIP3     H2       HT       0.417000       1.00800           0
     33771 TIP3     5019     TIP3     OH2      OT      -0.834000       15.9994           0
     33772 TIP3     5019     TIP3     H1       HT       0.417000       1.00800           0
     33773 TIP3     5019     TIP3     H2       HT       0.417000       1.00800           0
     33774 TIP3     5020     TIP3     OH2      OT      -0.834000       15.9994           0
     33775 TIP3     5020     TIP3     H1       HT       0.417000       1.00800           0
     33776 TIP3     5020     TIP3     H2       HT       0.417000       1.00800           0
     33777 TIP3     5021     TIP3     OH2      OT      -0.834000       15.9994           0
     33778 TIP3     5021     TIP3     H1       HT       0.417000       1.00800           0
     33779 TIP3     5021     TIP3     H2       HT       0.417000       1.00800           0
     33780 TIP3     5022     TIP3     OH2      OT      -0.834000       15.9994           0
     33781 TIP3     5022     TIP3     H1       HT       0.417000       1.00800           0
     33782 TIP3     5022     TIP3     H2       HT       0.417000       1.00800           0
     33783 TIP3     5023     TIP3     OH2      OT      -0.834000       15.9994           0
     33784 TIP3     5023     TIP3     H1       HT       0.417000       1.00800           0
     33785 TIP3     5023     TIP3     H2       HT       0.417000       1.00800           0
     33786 TIP3     5024     TIP3     OH2      OT      -0.834000       15.9994           0
     33787 TIP3     5024     TIP3     H1       HT       0.417000       1.00800           0
     33788 TIP3     5024     TIP3     H2       HT       0.417000       1.00800           0
     33789 TIP3     5025     TIP3     OH2      OT      -0.834000       15.9994           0
     33790 TIP3     5025     TIP3     H1       HT       0.417000       1.00800           0
     33791 TIP3     5025     TIP3     H2       HT       0.417000       1.00800           0
     33792 TIP3     5026     TIP3     OH2      OT      -0.834000       15.9994           0
     33793 TIP3     5026     TIP3     H1       HT       0.417000       1.00800           0
     33794 TIP3     5026     TIP3     H2       HT       0.417000       1.00800           0
     33795 TIP3     5027     TIP3     OH2      OT      -0.834000       15.9994           0
     33796 TIP3     5027     TIP3     H1       HT       0.417000       1.00800           0
     33797 TIP3     5027     TIP3     H2       HT       0.417000       1.00800           0
     33798 TIP3     5028     TIP3     OH2      OT      -0.834000       15.9994           0
     33799 TIP3     5028     TIP3     H1       HT       0.417000       1.00800           0
     33800 TIP3     5028     TIP3     H2       HT       0.417000       1.00800           0
     33801 TIP3     5029     TIP3     OH2      OT      -0.834000       15.9994           0
     33802 TIP3     5029     TIP3     H1       HT       0.417000       1.00800           0
     33803 TIP3     5029     TIP3     H2       HT       0.417000       1.00800           0
     33804 TIP3     5030     TIP3     OH2      OT      -0.834000       15.9994           0
     33805 TIP3     5030     TIP3     H1       HT       0.417000       1.00800           0
     33806 TIP3     5030     TIP3     H2       HT       0.417000       1.00800           0
     33807 TIP3     5031     TIP3     OH2      OT      -0.834000       15.9994           0
     33808 TIP3     5031     TIP3     H1       HT       0.417000       1.00800           0
     33809 TIP3     5031     TIP3     H2       HT       0.417000       1.00800           0
     33810 TIP3     5032     TIP3     OH2      OT      -0.834000       15.9994           0
     33811 TIP3     5032     TIP3     H1       HT       0.417000       1.00800           0
     33812 TIP3     5032     TIP3     H2       HT       0.417000       1.00800           0
     33813 TIP3     5033     TIP3     OH2      OT      -0.834000       15.9994           0
     33814 TIP3     5033     TIP3     H1       HT       0.417000       1.00800           0
     33815 TIP3     5033     TIP3     H2       HT       0.417000       1.00800           0
     33816 TIP3     5034     TIP3     OH2      OT      -0.834000       15.9994           0
     33817 TIP3     5034     TIP3     H1       HT       0.417000       1.00800           0
     33818 TIP3     5034     TIP3     H2       HT       0.417000       1.00800           0
     33819 TIP3     5035     TIP3     OH2      OT      -0.834000       15.9994           0
     33820 TIP3     5035     TIP3     H1       HT       0.417000       1.00800           0
     33821 TIP3     5035     TIP3     H2       HT       0.417000       1.00800           0
     33822 TIP3     5036     TIP3     OH2      OT      -0.834000       15.9994           0
     33823 TIP3     5036     TIP3     H1       HT       0.417000       1.00800           0
     33824 TIP3     5036     TIP3     H2       HT       0.417000       1.00800           0
     33825 TIP3     5037     TIP3     OH2      OT      -0.834000       15.9994           0
     33826 TIP3     5037     TIP3     H1       HT       0.417000       1.00800           0
     33827 TIP3     5037     TIP3     H2       HT       0.417000       1.00800           0
     33828 TIP3     5038     TIP3     OH2      OT      -0.834000       15.9994           0
     33829 TIP3     5038     TIP3     H1       HT       0.417000       1.00800           0
     33830 TIP3     5038     TIP3     H2       HT       0.417000       1.00800           0
     33831 TIP3     5039     TIP3     OH2      OT      -0.834000       15.9994           0
     33832 TIP3     5039     TIP3     H1       HT       0.417000       1.00800           0
     33833 TIP3     5039     TIP3     H2       HT       0.417000       1.00800           0
     33834 TIP3     5040     TIP3     OH2      OT      -0.834000       15.9994           0
     33835 TIP3     5040     TIP3     H1       HT       0.417000       1.00800           0
     33836 TIP3     5040     TIP3     H2       HT       0.417000       1.00800           0
     33837 TIP3     5041     TIP3     OH2      OT      -0.834000       15.9994           0
     33838 TIP3     5041     TIP3     H1       HT       0.417000       1.00800           0
     33839 TIP3     5041     TIP3     H2       HT       0.417000       1.00800           0
     33840 TIP3     5042     TIP3     OH2      OT      -0.834000       15.9994           0
     33841 TIP3     5042     TIP3     H1       HT       0.417000       1.00800           0
     33842 TIP3     5042     TIP3     H2       HT       0.417000       1.00800           0
     33843 TIP3     5043     TIP3     OH2      OT      -0.834000       15.9994           0
     33844 TIP3     5043     TIP3     H1       HT       0.417000       1.00800           0
     33845 TIP3     5043     TIP3     H2       HT       0.417000       1.00800           0
     33846 TIP3     5044     TIP3     OH2      OT      -0.834000       15.9994           0
     33847 TIP3     5044     TIP3     H1       HT       0.417000       1.00800           0
     33848 TIP3     5044     TIP3     H2       HT       0.417000       1.00800           0
     33849 TIP3     5045     TIP3     OH2      OT      -0.834000       15.9994           0
     33850 TIP3     5045     TIP3     H1       HT       0.417000       1.00800           0
     33851 TIP3     5045     TIP3     H2       HT       0.417000       1.00800           0
     33852 TIP3     5046     TIP3     OH2      OT      -0.834000       15.9994           0
     33853 TIP3     5046     TIP3     H1       HT       0.417000       1.00800           0
     33854 TIP3     5046     TIP3     H2       HT       0.417000       1.00800           0
     33855 TIP3     5047     TIP3     OH2      OT      -0.834000       15.9994           0
     33856 TIP3     5047     TIP3     H1       HT       0.417000       1.00800           0
     33857 TIP3     5047     TIP3     H2       HT       0.417000       1.00800           0
     33858 TIP3     5048     TIP3     OH2      OT      -0.834000       15.9994           0
     33859 TIP3     5048     TIP3     H1       HT       0.417000       1.00800           0
     33860 TIP3     5048     TIP3     H2       HT       0.417000       1.00800           0
     33861 TIP3     5049     TIP3     OH2      OT      -0.834000       15.9994           0
     33862 TIP3     5049     TIP3     H1       HT       0.417000       1.00800           0
     33863 TIP3     5049     TIP3     H2       HT       0.417000       1.00800           0
     33864 TIP3     5050     TIP3     OH2      OT      -0.834000       15.9994           0
     33865 TIP3     5050     TIP3     H1       HT       0.417000       1.00800           0
     33866 TIP3     5050     TIP3     H2       HT       0.417000       1.00800           0
     33867 TIP3     5051     TIP3     OH2      OT      -0.834000       15.9994           0
     33868 TIP3     5051     TIP3     H1       HT       0.417000       1.00800           0
     33869 TIP3     5051     TIP3     H2       HT       0.417000       1.00800           0
     33870 TIP3     5052     TIP3     OH2      OT      -0.834000       15.9994           0
     33871 TIP3     5052     TIP3     H1       HT       0.417000       1.00800           0
     33872 TIP3     5052     TIP3     H2       HT       0.417000       1.00800           0
     33873 TIP3     5053     TIP3     OH2      OT      -0.834000       15.9994           0
     33874 TIP3     5053     TIP3     H1       HT       0.417000       1.00800           0
     33875 TIP3     5053     TIP3     H2       HT       0.417000       1.00800           0
     33876 TIP3     5054     TIP3     OH2      OT      -0.834000       15.9994           0
     33877 TIP3     5054     TIP3     H1       HT       0.417000       1.00800           0
     33878 TIP3     5054     TIP3     H2       HT       0.417000       1.00800           0
     33879 TIP3     5055     TIP3     OH2      OT      -0.834000       15.9994           0
     33880 TIP3     5055     TIP3     H1       HT       0.417000       1.00800           0
     33881 TIP3     5055     TIP3     H2       HT       0.417000       1.00800           0
     33882 TIP3     5056     TIP3     OH2      OT      -0.834000       15.9994           0
     33883 TIP3     5056     TIP3     H1       HT       0.417000       1.00800           0
     33884 TIP3     5056     TIP3     H2       HT       0.417000       1.00800           0
     33885 TIP3     5057     TIP3     OH2      OT      -0.834000       15.9994           0
     33886 TIP3     5057     TIP3     H1       HT       0.417000       1.00800           0
     33887 TIP3     5057     TIP3     H2       HT       0.417000       1.00800           0
     33888 TIP3     5058     TIP3     OH2      OT      -0.834000       15.9994           0
     33889 TIP3     5058     TIP3     H1       HT       0.417000       1.00800           0
     33890 TIP3     5058     TIP3     H2       HT       0.417000       1.00800           0
     33891 TIP3     5059     TIP3     OH2      OT      -0.834000       15.9994           0
     33892 TIP3     5059     TIP3     H1       HT       0.417000       1.00800           0
     33893 TIP3     5059     TIP3     H2       HT       0.417000       1.00800           0
     33894 TIP3     5060     TIP3     OH2      OT      -0.834000       15.9994           0
     33895 TIP3     5060     TIP3     H1       HT       0.417000       1.00800           0
     33896 TIP3     5060     TIP3     H2       HT       0.417000       1.00800           0
     33897 TIP3     5061     TIP3     OH2      OT      -0.834000       15.9994           0
     33898 TIP3     5061     TIP3     H1       HT       0.417000       1.00800           0
     33899 TIP3     5061     TIP3     H2       HT       0.417000       1.00800           0
     33900 TIP3     5062     TIP3     OH2      OT      -0.834000       15.9994           0
     33901 TIP3     5062     TIP3     H1       HT       0.417000       1.00800           0
     33902 TIP3     5062     TIP3     H2       HT       0.417000       1.00800           0
     33903 TIP3     5063     TIP3     OH2      OT      -0.834000       15.9994           0
     33904 TIP3     5063     TIP3     H1       HT       0.417000       1.00800           0
     33905 TIP3     5063     TIP3     H2       HT       0.417000       1.00800           0
     33906 TIP3     5064     TIP3     OH2      OT      -0.834000       15.9994           0
     33907 TIP3     5064     TIP3     H1       HT       0.417000       1.00800           0
     33908 TIP3     5064     TIP3     H2       HT       0.417000       1.00800           0
     33909 TIP3     5065     TIP3     OH2      OT      -0.834000       15.9994           0
     33910 TIP3     5065     TIP3     H1       HT       0.417000       1.00800           0
     33911 TIP3     5065     TIP3     H2       HT       0.417000       1.00800           0
     33912 TIP3     5066     TIP3     OH2      OT      -0.834000       15.9994           0
     33913 TIP3     5066     TIP3     H1       HT       0.417000       1.00800           0
     33914 TIP3     5066     TIP3     H2       HT       0.417000       1.00800           0
     33915 TIP3     5067     TIP3     OH2      OT      -0.834000       15.9994           0
     33916 TIP3     5067     TIP3     H1       HT       0.417000       1.00800           0
     33917 TIP3     5067     TIP3     H2       HT       0.417000       1.00800           0
     33918 TIP3     5068     TIP3     OH2      OT      -0.834000       15.9994           0
     33919 TIP3     5068     TIP3     H1       HT       0.417000       1.00800           0
     33920 TIP3     5068     TIP3     H2       HT       0.417000       1.00800           0
     33921 TIP3     5069     TIP3     OH2      OT      -0.834000       15.9994           0
     33922 TIP3     5069     TIP3     H1       HT       0.417000       1.00800           0
     33923 TIP3     5069     TIP3     H2       HT       0.417000       1.00800           0
     33924 TIP3     5070     TIP3     OH2      OT      -0.834000       15.9994           0
     33925 TIP3     5070     TIP3     H1       HT       0.417000       1.00800           0
     33926 TIP3     5070     TIP3     H2       HT       0.417000       1.00800           0
     33927 TIP3     5071     TIP3     OH2      OT      -0.834000       15.9994           0
     33928 TIP3     5071     TIP3     H1       HT       0.417000       1.00800           0
     33929 TIP3     5071     TIP3     H2       HT       0.417000       1.00800           0
     33930 TIP3     5072     TIP3     OH2      OT      -0.834000       15.9994           0
     33931 TIP3     5072     TIP3     H1       HT       0.417000       1.00800           0
     33932 TIP3     5072     TIP3     H2       HT       0.417000       1.00800           0
     33933 TIP3     5073     TIP3     OH2      OT      -0.834000       15.9994           0
     33934 TIP3     5073     TIP3     H1       HT       0.417000       1.00800           0
     33935 TIP3     5073     TIP3     H2       HT       0.417000       1.00800           0
     33936 TIP3     5074     TIP3     OH2      OT      -0.834000       15.9994           0
     33937 TIP3     5074     TIP3     H1       HT       0.417000       1.00800           0
     33938 TIP3     5074     TIP3     H2       HT       0.417000       1.00800           0
     33939 TIP3     5075     TIP3     OH2      OT      -0.834000       15.9994           0
     33940 TIP3     5075     TIP3     H1       HT       0.417000       1.00800           0
     33941 TIP3     5075     TIP3     H2       HT       0.417000       1.00800           0
     33942 TIP3     5076     TIP3     OH2      OT      -0.834000       15.9994           0
     33943 TIP3     5076     TIP3     H1       HT       0.417000       1.00800           0
     33944 TIP3     5076     TIP3     H2       HT       0.417000       1.00800           0
     33945 TIP3     5077     TIP3     OH2      OT      -0.834000       15.9994           0
     33946 TIP3     5077     TIP3     H1       HT       0.417000       1.00800           0
     33947 TIP3     5077     TIP3     H2       HT       0.417000       1.00800           0
     33948 TIP3     5078     TIP3     OH2      OT      -0.834000       15.9994           0
     33949 TIP3     5078     TIP3     H1       HT       0.417000       1.00800           0
     33950 TIP3     5078     TIP3     H2       HT       0.417000       1.00800           0
     33951 TIP3     5079     TIP3     OH2      OT      -0.834000       15.9994           0
     33952 TIP3     5079     TIP3     H1       HT       0.417000       1.00800           0
     33953 TIP3     5079     TIP3     H2       HT       0.417000       1.00800           0
     33954 TIP3     5080     TIP3     OH2      OT      -0.834000       15.9994           0
     33955 TIP3     5080     TIP3     H1       HT       0.417000       1.00800           0
     33956 TIP3     5080     TIP3     H2       HT       0.417000       1.00800           0
     33957 TIP3     5081     TIP3     OH2      OT      -0.834000       15.9994           0
     33958 TIP3     5081     TIP3     H1       HT       0.417000       1.00800           0
     33959 TIP3     5081     TIP3     H2       HT       0.417000       1.00800           0
     33960 TIP3     5082     TIP3     OH2      OT      -0.834000       15.9994           0
     33961 TIP3     5082     TIP3     H1       HT       0.417000       1.00800           0
     33962 TIP3     5082     TIP3     H2       HT       0.417000       1.00800           0
     33963 TIP3     5083     TIP3     OH2      OT      -0.834000       15.9994           0
     33964 TIP3     5083     TIP3     H1       HT       0.417000       1.00800           0
     33965 TIP3     5083     TIP3     H2       HT       0.417000       1.00800           0
     33966 TIP3     5084     TIP3     OH2      OT      -0.834000       15.9994           0
     33967 TIP3     5084     TIP3     H1       HT       0.417000       1.00800           0
     33968 TIP3     5084     TIP3     H2       HT       0.417000       1.00800           0
     33969 TIP3     5085     TIP3     OH2      OT      -0.834000       15.9994           0
     33970 TIP3     5085     TIP3     H1       HT       0.417000       1.00800           0
     33971 TIP3     5085     TIP3     H2       HT       0.417000       1.00800           0
     33972 TIP3     5086     TIP3     OH2      OT      -0.834000       15.9994           0
     33973 TIP3     5086     TIP3     H1       HT       0.417000       1.00800           0
     33974 TIP3     5086     TIP3     H2       HT       0.417000       1.00800           0
     33975 TIP3     5087     TIP3     OH2      OT      -0.834000       15.9994           0
     33976 TIP3     5087     TIP3     H1       HT       0.417000       1.00800           0
     33977 TIP3     5087     TIP3     H2       HT       0.417000       1.00800           0
     33978 TIP3     5088     TIP3     OH2      OT      -0.834000       15.9994           0
     33979 TIP3     5088     TIP3     H1       HT       0.417000       1.00800           0
     33980 TIP3     5088     TIP3     H2       HT       0.417000       1.00800           0
     33981 TIP3     5089     TIP3     OH2      OT      -0.834000       15.9994           0
     33982 TIP3     5089     TIP3     H1       HT       0.417000       1.00800           0
     33983 TIP3     5089     TIP3     H2       HT       0.417000       1.00800           0
     33984 TIP3     5090     TIP3     OH2      OT      -0.834000       15.9994           0
     33985 TIP3     5090     TIP3     H1       HT       0.417000       1.00800           0
     33986 TIP3     5090     TIP3     H2       HT       0.417000       1.00800           0
     33987 TIP3     5091     TIP3     OH2      OT      -0.834000       15.9994           0
     33988 TIP3     5091     TIP3     H1       HT       0.417000       1.00800           0
     33989 TIP3     5091     TIP3     H2       HT       0.417000       1.00800           0
     33990 TIP3     5092     TIP3     OH2      OT      -0.834000       15.9994           0
     33991 TIP3     5092     TIP3     H1       HT       0.417000       1.00800           0
     33992 TIP3     5092     TIP3     H2       HT       0.417000       1.00800           0
     33993 TIP3     5093     TIP3     OH2      OT      -0.834000       15.9994           0
     33994 TIP3     5093     TIP3     H1       HT       0.417000       1.00800           0
     33995 TIP3     5093     TIP3     H2       HT       0.417000       1.00800           0
     33996 TIP3     5094     TIP3     OH2      OT      -0.834000       15.9994           0
     33997 TIP3     5094     TIP3     H1       HT       0.417000       1.00800           0
     33998 TIP3     5094     TIP3     H2       HT       0.417000       1.00800           0
     33999 TIP3     5095     TIP3     OH2      OT      -0.834000       15.9994           0
     34000 TIP3     5095     TIP3     H1       HT       0.417000       1.00800           0
     34001 TIP3     5095     TIP3     H2       HT       0.417000       1.00800           0
     34002 TIP3     5096     TIP3     OH2      OT      -0.834000       15.9994           0
     34003 TIP3     5096     TIP3     H1       HT       0.417000       1.00800           0
     34004 TIP3     5096     TIP3     H2       HT       0.417000       1.00800           0
     34005 TIP3     5097     TIP3     OH2      OT      -0.834000       15.9994           0
     34006 TIP3     5097     TIP3     H1       HT       0.417000       1.00800           0
     34007 TIP3     5097     TIP3     H2       HT       0.417000       1.00800           0
     34008 TIP3     5098     TIP3     OH2      OT      -0.834000       15.9994           0
     34009 TIP3     5098     TIP3     H1       HT       0.417000       1.00800           0
     34010 TIP3     5098     TIP3     H2       HT       0.417000       1.00800           0
     34011 TIP3     5099     TIP3     OH2      OT      -0.834000       15.9994           0
     34012 TIP3     5099     TIP3     H1       HT       0.417000       1.00800           0
     34013 TIP3     5099     TIP3     H2       HT       0.417000       1.00800           0
     34014 TIP3     5100     TIP3     OH2      OT      -0.834000       15.9994           0
     34015 TIP3     5100     TIP3     H1       HT       0.417000       1.00800           0
     34016 TIP3     5100     TIP3     H2       HT       0.417000       1.00800           0
     34017 TIP3     5101     TIP3     OH2      OT      -0.834000       15.9994           0
     34018 TIP3     5101     TIP3     H1       HT       0.417000       1.00800           0
     34019 TIP3     5101     TIP3     H2       HT       0.417000       1.00800           0
     34020 TIP3     5102     TIP3     OH2      OT      -0.834000       15.9994           0
     34021 TIP3     5102     TIP3     H1       HT       0.417000       1.00800           0
     34022 TIP3     5102     TIP3     H2       HT       0.417000       1.00800           0
     34023 TIP3     5103     TIP3     OH2      OT      -0.834000       15.9994           0
     34024 TIP3     5103     TIP3     H1       HT       0.417000       1.00800           0
     34025 TIP3     5103     TIP3     H2       HT       0.417000       1.00800           0
     34026 TIP3     5104     TIP3     OH2      OT      -0.834000       15.9994           0
     34027 TIP3     5104     TIP3     H1       HT       0.417000       1.00800           0
     34028 TIP3     5104     TIP3     H2       HT       0.417000       1.00800           0
     34029 TIP3     5105     TIP3     OH2      OT      -0.834000       15.9994           0
     34030 TIP3     5105     TIP3     H1       HT       0.417000       1.00800           0
     34031 TIP3     5105     TIP3     H2       HT       0.417000       1.00800           0
     34032 TIP3     5106     TIP3     OH2      OT      -0.834000       15.9994           0
     34033 TIP3     5106     TIP3     H1       HT       0.417000       1.00800           0
     34034 TIP3     5106     TIP3     H2       HT       0.417000       1.00800           0
     34035 TIP3     5107     TIP3     OH2      OT      -0.834000       15.9994           0
     34036 TIP3     5107     TIP3     H1       HT       0.417000       1.00800           0
     34037 TIP3     5107     TIP3     H2       HT       0.417000       1.00800           0
     34038 TIP3     5108     TIP3     OH2      OT      -0.834000       15.9994           0
     34039 TIP3     5108     TIP3     H1       HT       0.417000       1.00800           0
     34040 TIP3     5108     TIP3     H2       HT       0.417000       1.00800           0
     34041 TIP3     5109     TIP3     OH2      OT      -0.834000       15.9994           0
     34042 TIP3     5109     TIP3     H1       HT       0.417000       1.00800           0
     34043 TIP3     5109     TIP3     H2       HT       0.417000       1.00800           0
     34044 TIP3     5110     TIP3     OH2      OT      -0.834000       15.9994           0
     34045 TIP3     5110     TIP3     H1       HT       0.417000       1.00800           0
     34046 TIP3     5110     TIP3     H2       HT       0.417000       1.00800           0
     34047 TIP3     5111     TIP3     OH2      OT      -0.834000       15.9994           0
     34048 TIP3     5111     TIP3     H1       HT       0.417000       1.00800           0
     34049 TIP3     5111     TIP3     H2       HT       0.417000       1.00800           0
     34050 TIP3     5112     TIP3     OH2      OT      -0.834000       15.9994           0
     34051 TIP3     5112     TIP3     H1       HT       0.417000       1.00800           0
     34052 TIP3     5112     TIP3     H2       HT       0.417000       1.00800           0
     34053 TIP3     5113     TIP3     OH2      OT      -0.834000       15.9994           0
     34054 TIP3     5113     TIP3     H1       HT       0.417000       1.00800           0
     34055 TIP3     5113     TIP3     H2       HT       0.417000       1.00800           0
     34056 TIP3     5114     TIP3     OH2      OT      -0.834000       15.9994           0
     34057 TIP3     5114     TIP3     H1       HT       0.417000       1.00800           0
     34058 TIP3     5114     TIP3     H2       HT       0.417000       1.00800           0
     34059 TIP3     5115     TIP3     OH2      OT      -0.834000       15.9994           0
     34060 TIP3     5115     TIP3     H1       HT       0.417000       1.00800           0
     34061 TIP3     5115     TIP3     H2       HT       0.417000       1.00800           0
     34062 TIP3     5116     TIP3     OH2      OT      -0.834000       15.9994           0
     34063 TIP3     5116     TIP3     H1       HT       0.417000       1.00800           0
     34064 TIP3     5116     TIP3     H2       HT       0.417000       1.00800           0
     34065 TIP3     5117     TIP3     OH2      OT      -0.834000       15.9994           0
     34066 TIP3     5117     TIP3     H1       HT       0.417000       1.00800           0
     34067 TIP3     5117     TIP3     H2       HT       0.417000       1.00800           0
     34068 TIP3     5118     TIP3     OH2      OT      -0.834000       15.9994           0
     34069 TIP3     5118     TIP3     H1       HT       0.417000       1.00800           0
     34070 TIP3     5118     TIP3     H2       HT       0.417000       1.00800           0
     34071 TIP3     5119     TIP3     OH2      OT      -0.834000       15.9994           0
     34072 TIP3     5119     TIP3     H1       HT       0.417000       1.00800           0
     34073 TIP3     5119     TIP3     H2       HT       0.417000       1.00800           0
     34074 TIP3     5120     TIP3     OH2      OT      -0.834000       15.9994           0
     34075 TIP3     5120     TIP3     H1       HT       0.417000       1.00800           0
     34076 TIP3     5120     TIP3     H2       HT       0.417000       1.00800           0
     34077 TIP3     5121     TIP3     OH2      OT      -0.834000       15.9994           0
     34078 TIP3     5121     TIP3     H1       HT       0.417000       1.00800           0
     34079 TIP3     5121     TIP3     H2       HT       0.417000       1.00800           0
     34080 TIP3     5122     TIP3     OH2      OT      -0.834000       15.9994           0
     34081 TIP3     5122     TIP3     H1       HT       0.417000       1.00800           0
     34082 TIP3     5122     TIP3     H2       HT       0.417000       1.00800           0
     34083 TIP3     5123     TIP3     OH2      OT      -0.834000       15.9994           0
     34084 TIP3     5123     TIP3     H1       HT       0.417000       1.00800           0
     34085 TIP3     5123     TIP3     H2       HT       0.417000       1.00800           0
     34086 TIP3     5124     TIP3     OH2      OT      -0.834000       15.9994           0
     34087 TIP3     5124     TIP3     H1       HT       0.417000       1.00800           0
     34088 TIP3     5124     TIP3     H2       HT       0.417000       1.00800           0
     34089 TIP3     5125     TIP3     OH2      OT      -0.834000       15.9994           0
     34090 TIP3     5125     TIP3     H1       HT       0.417000       1.00800           0
     34091 TIP3     5125     TIP3     H2       HT       0.417000       1.00800           0
     34092 TIP3     5126     TIP3     OH2      OT      -0.834000       15.9994           0
     34093 TIP3     5126     TIP3     H1       HT       0.417000       1.00800           0
     34094 TIP3     5126     TIP3     H2       HT       0.417000       1.00800           0
     34095 TIP3     5127     TIP3     OH2      OT      -0.834000       15.9994           0
     34096 TIP3     5127     TIP3     H1       HT       0.417000       1.00800           0
     34097 TIP3     5127     TIP3     H2       HT       0.417000       1.00800           0
     34098 TIP3     5128     TIP3     OH2      OT      -0.834000       15.9994           0
     34099 TIP3     5128     TIP3     H1       HT       0.417000       1.00800           0
     34100 TIP3     5128     TIP3     H2       HT       0.417000       1.00800           0
     34101 TIP3     5129     TIP3     OH2      OT      -0.834000       15.9994           0
     34102 TIP3     5129     TIP3     H1       HT       0.417000       1.00800           0
     34103 TIP3     5129     TIP3     H2       HT       0.417000       1.00800           0
     34104 TIP3     5130     TIP3     OH2      OT      -0.834000       15.9994           0
     34105 TIP3     5130     TIP3     H1       HT       0.417000       1.00800           0
     34106 TIP3     5130     TIP3     H2       HT       0.417000       1.00800           0
     34107 TIP3     5131     TIP3     OH2      OT      -0.834000       15.9994           0
     34108 TIP3     5131     TIP3     H1       HT       0.417000       1.00800           0
     34109 TIP3     5131     TIP3     H2       HT       0.417000       1.00800           0
     34110 TIP3     5132     TIP3     OH2      OT      -0.834000       15.9994           0
     34111 TIP3     5132     TIP3     H1       HT       0.417000       1.00800           0
     34112 TIP3     5132     TIP3     H2       HT       0.417000       1.00800           0
     34113 TIP3     5133     TIP3     OH2      OT      -0.834000       15.9994           0
     34114 TIP3     5133     TIP3     H1       HT       0.417000       1.00800           0
     34115 TIP3     5133     TIP3     H2       HT       0.417000       1.00800           0
     34116 TIP3     5134     TIP3     OH2      OT      -0.834000       15.9994           0
     34117 TIP3     5134     TIP3     H1       HT       0.417000       1.00800           0
     34118 TIP3     5134     TIP3     H2       HT       0.417000       1.00800           0
     34119 TIP3     5135     TIP3     OH2      OT      -0.834000       15.9994           0
     34120 TIP3     5135     TIP3     H1       HT       0.417000       1.00800           0
     34121 TIP3     5135     TIP3     H2       HT       0.417000       1.00800           0
     34122 TIP3     5136     TIP3     OH2      OT      -0.834000       15.9994           0
     34123 TIP3     5136     TIP3     H1       HT       0.417000       1.00800           0
     34124 TIP3     5136     TIP3     H2       HT       0.417000       1.00800           0
     34125 TIP3     5137     TIP3     OH2      OT      -0.834000       15.9994           0
     34126 TIP3     5137     TIP3     H1       HT       0.417000       1.00800           0
     34127 TIP3     5137     TIP3     H2       HT       0.417000       1.00800           0
     34128 TIP3     5138     TIP3     OH2      OT      -0.834000       15.9994           0
     34129 TIP3     5138     TIP3     H1       HT       0.417000       1.00800           0
     34130 TIP3     5138     TIP3     H2       HT       0.417000       1.00800           0
     34131 TIP3     5139     TIP3     OH2      OT      -0.834000       15.9994           0
     34132 TIP3     5139     TIP3     H1       HT       0.417000       1.00800           0
     34133 TIP3     5139     TIP3     H2       HT       0.417000       1.00800           0
     34134 TIP3     5140     TIP3     OH2      OT      -0.834000       15.9994           0
     34135 TIP3     5140     TIP3     H1       HT       0.417000       1.00800           0
     34136 TIP3     5140     TIP3     H2       HT       0.417000       1.00800           0
     34137 TIP3     5141     TIP3     OH2      OT      -0.834000       15.9994           0
     34138 TIP3     5141     TIP3     H1       HT       0.417000       1.00800           0
     34139 TIP3     5141     TIP3     H2       HT       0.417000       1.00800           0
     34140 TIP3     5142     TIP3     OH2      OT      -0.834000       15.9994           0
     34141 TIP3     5142     TIP3     H1       HT       0.417000       1.00800           0
     34142 TIP3     5142     TIP3     H2       HT       0.417000       1.00800           0
     34143 TIP3     5143     TIP3     OH2      OT      -0.834000       15.9994           0
     34144 TIP3     5143     TIP3     H1       HT       0.417000       1.00800           0
     34145 TIP3     5143     TIP3     H2       HT       0.417000       1.00800           0
     34146 TIP3     5144     TIP3     OH2      OT      -0.834000       15.9994           0
     34147 TIP3     5144     TIP3     H1       HT       0.417000       1.00800           0
     34148 TIP3     5144     TIP3     H2       HT       0.417000       1.00800           0
     34149 TIP3     5145     TIP3     OH2      OT      -0.834000       15.9994           0
     34150 TIP3     5145     TIP3     H1       HT       0.417000       1.00800           0
     34151 TIP3     5145     TIP3     H2       HT       0.417000       1.00800           0
     34152 TIP3     5146     TIP3     OH2      OT      -0.834000       15.9994           0
     34153 TIP3     5146     TIP3     H1       HT       0.417000       1.00800           0
     34154 TIP3     5146     TIP3     H2       HT       0.417000       1.00800           0
     34155 TIP3     5147     TIP3     OH2      OT      -0.834000       15.9994           0
     34156 TIP3     5147     TIP3     H1       HT       0.417000       1.00800           0
     34157 TIP3     5147     TIP3     H2       HT       0.417000       1.00800           0
     34158 TIP3     5148     TIP3     OH2      OT      -0.834000       15.9994           0
     34159 TIP3     5148     TIP3     H1       HT       0.417000       1.00800           0
     34160 TIP3     5148     TIP3     H2       HT       0.417000       1.00800           0
     34161 TIP3     5149     TIP3     OH2      OT      -0.834000       15.9994           0
     34162 TIP3     5149     TIP3     H1       HT       0.417000       1.00800           0
     34163 TIP3     5149     TIP3     H2       HT       0.417000       1.00800           0
     34164 TIP3     5150     TIP3     OH2      OT      -0.834000       15.9994           0
     34165 TIP3     5150     TIP3     H1       HT       0.417000       1.00800           0
     34166 TIP3     5150     TIP3     H2       HT       0.417000       1.00800           0
     34167 TIP3     5151     TIP3     OH2      OT      -0.834000       15.9994           0
     34168 TIP3     5151     TIP3     H1       HT       0.417000       1.00800           0
     34169 TIP3     5151     TIP3     H2       HT       0.417000       1.00800           0
     34170 TIP3     5152     TIP3     OH2      OT      -0.834000       15.9994           0
     34171 TIP3     5152     TIP3     H1       HT       0.417000       1.00800           0
     34172 TIP3     5152     TIP3     H2       HT       0.417000       1.00800           0
     34173 TIP3     5153     TIP3     OH2      OT      -0.834000       15.9994           0
     34174 TIP3     5153     TIP3     H1       HT       0.417000       1.00800           0
     34175 TIP3     5153     TIP3     H2       HT       0.417000       1.00800           0
     34176 TIP3     5154     TIP3     OH2      OT      -0.834000       15.9994           0
     34177 TIP3     5154     TIP3     H1       HT       0.417000       1.00800           0
     34178 TIP3     5154     TIP3     H2       HT       0.417000       1.00800           0
     34179 TIP3     5155     TIP3     OH2      OT      -0.834000       15.9994           0
     34180 TIP3     5155     TIP3     H1       HT       0.417000       1.00800           0
     34181 TIP3     5155     TIP3     H2       HT       0.417000       1.00800           0
     34182 TIP3     5156     TIP3     OH2      OT      -0.834000       15.9994           0
     34183 TIP3     5156     TIP3     H1       HT       0.417000       1.00800           0
     34184 TIP3     5156     TIP3     H2       HT       0.417000       1.00800           0
     34185 TIP3     5157     TIP3     OH2      OT      -0.834000       15.9994           0
     34186 TIP3     5157     TIP3     H1       HT       0.417000       1.00800           0
     34187 TIP3     5157     TIP3     H2       HT       0.417000       1.00800           0
     34188 TIP3     5158     TIP3     OH2      OT      -0.834000       15.9994           0
     34189 TIP3     5158     TIP3     H1       HT       0.417000       1.00800           0
     34190 TIP3     5158     TIP3     H2       HT       0.417000       1.00800           0
     34191 TIP3     5159     TIP3     OH2      OT      -0.834000       15.9994           0
     34192 TIP3     5159     TIP3     H1       HT       0.417000       1.00800           0
     34193 TIP3     5159     TIP3     H2       HT       0.417000       1.00800           0
     34194 TIP3     5160     TIP3     OH2      OT      -0.834000       15.9994           0
     34195 TIP3     5160     TIP3     H1       HT       0.417000       1.00800           0
     34196 TIP3     5160     TIP3     H2       HT       0.417000       1.00800           0
     34197 TIP3     5161     TIP3     OH2      OT      -0.834000       15.9994           0
     34198 TIP3     5161     TIP3     H1       HT       0.417000       1.00800           0
     34199 TIP3     5161     TIP3     H2       HT       0.417000       1.00800           0
     34200 TIP3     5162     TIP3     OH2      OT      -0.834000       15.9994           0
     34201 TIP3     5162     TIP3     H1       HT       0.417000       1.00800           0
     34202 TIP3     5162     TIP3     H2       HT       0.417000       1.00800           0
     34203 TIP3     5163     TIP3     OH2      OT      -0.834000       15.9994           0
     34204 TIP3     5163     TIP3     H1       HT       0.417000       1.00800           0
     34205 TIP3     5163     TIP3     H2       HT       0.417000       1.00800           0
     34206 TIP3     5164     TIP3     OH2      OT      -0.834000       15.9994           0
     34207 TIP3     5164     TIP3     H1       HT       0.417000       1.00800           0
     34208 TIP3     5164     TIP3     H2       HT       0.417000       1.00800           0
     34209 TIP3     5165     TIP3     OH2      OT      -0.834000       15.9994           0
     34210 TIP3     5165     TIP3     H1       HT       0.417000       1.00800           0
     34211 TIP3     5165     TIP3     H2       HT       0.417000       1.00800           0
     34212 TIP3     5166     TIP3     OH2      OT      -0.834000       15.9994           0
     34213 TIP3     5166     TIP3     H1       HT       0.417000       1.00800           0
     34214 TIP3     5166     TIP3     H2       HT       0.417000       1.00800           0
     34215 TIP3     5167     TIP3     OH2      OT      -0.834000       15.9994           0
     34216 TIP3     5167     TIP3     H1       HT       0.417000       1.00800           0
     34217 TIP3     5167     TIP3     H2       HT       0.417000       1.00800           0
     34218 TIP3     5168     TIP3     OH2      OT      -0.834000       15.9994           0
     34219 TIP3     5168     TIP3     H1       HT       0.417000       1.00800           0
     34220 TIP3     5168     TIP3     H2       HT       0.417000       1.00800           0
     34221 TIP3     5169     TIP3     OH2      OT      -0.834000       15.9994           0
     34222 TIP3     5169     TIP3     H1       HT       0.417000       1.00800           0
     34223 TIP3     5169     TIP3     H2       HT       0.417000       1.00800           0
     34224 TIP3     5170     TIP3     OH2      OT      -0.834000       15.9994           0
     34225 TIP3     5170     TIP3     H1       HT       0.417000       1.00800           0
     34226 TIP3     5170     TIP3     H2       HT       0.417000       1.00800           0
     34227 TIP3     5171     TIP3     OH2      OT      -0.834000       15.9994           0
     34228 TIP3     5171     TIP3     H1       HT       0.417000       1.00800           0
     34229 TIP3     5171     TIP3     H2       HT       0.417000       1.00800           0
     34230 TIP3     5172     TIP3     OH2      OT      -0.834000       15.9994           0
     34231 TIP3     5172     TIP3     H1       HT       0.417000       1.00800           0
     34232 TIP3     5172     TIP3     H2       HT       0.417000       1.00800           0
     34233 TIP3     5173     TIP3     OH2      OT      -0.834000       15.9994           0
     34234 TIP3     5173     TIP3     H1       HT       0.417000       1.00800           0
     34235 TIP3     5173     TIP3     H2       HT       0.417000       1.00800           0
     34236 TIP3     5174     TIP3     OH2      OT      -0.834000       15.9994           0
     34237 TIP3     5174     TIP3     H1       HT       0.417000       1.00800           0
     34238 TIP3     5174     TIP3     H2       HT       0.417000       1.00800           0
     34239 TIP3     5175     TIP3     OH2      OT      -0.834000       15.9994           0
     34240 TIP3     5175     TIP3     H1       HT       0.417000       1.00800           0
     34241 TIP3     5175     TIP3     H2       HT       0.417000       1.00800           0
     34242 TIP3     5176     TIP3     OH2      OT      -0.834000       15.9994           0
     34243 TIP3     5176     TIP3     H1       HT       0.417000       1.00800           0
     34244 TIP3     5176     TIP3     H2       HT       0.417000       1.00800           0
     34245 TIP3     5177     TIP3     OH2      OT      -0.834000       15.9994           0
     34246 TIP3     5177     TIP3     H1       HT       0.417000       1.00800           0
     34247 TIP3     5177     TIP3     H2       HT       0.417000       1.00800           0
     34248 TIP3     5178     TIP3     OH2      OT      -0.834000       15.9994           0
     34249 TIP3     5178     TIP3     H1       HT       0.417000       1.00800           0
     34250 TIP3     5178     TIP3     H2       HT       0.417000       1.00800           0
     34251 TIP3     5179     TIP3     OH2      OT      -0.834000       15.9994           0
     34252 TIP3     5179     TIP3     H1       HT       0.417000       1.00800           0
     34253 TIP3     5179     TIP3     H2       HT       0.417000       1.00800           0
     34254 TIP3     5180     TIP3     OH2      OT      -0.834000       15.9994           0
     34255 TIP3     5180     TIP3     H1       HT       0.417000       1.00800           0
     34256 TIP3     5180     TIP3     H2       HT       0.417000       1.00800           0
     34257 TIP3     5181     TIP3     OH2      OT      -0.834000       15.9994           0
     34258 TIP3     5181     TIP3     H1       HT       0.417000       1.00800           0
     34259 TIP3     5181     TIP3     H2       HT       0.417000       1.00800           0
     34260 TIP3     5182     TIP3     OH2      OT      -0.834000       15.9994           0
     34261 TIP3     5182     TIP3     H1       HT       0.417000       1.00800           0
     34262 TIP3     5182     TIP3     H2       HT       0.417000       1.00800           0
     34263 TIP3     5183     TIP3     OH2      OT      -0.834000       15.9994           0
     34264 TIP3     5183     TIP3     H1       HT       0.417000       1.00800           0
     34265 TIP3     5183     TIP3     H2       HT       0.417000       1.00800           0
     34266 TIP3     5184     TIP3     OH2      OT      -0.834000       15.9994           0
     34267 TIP3     5184     TIP3     H1       HT       0.417000       1.00800           0
     34268 TIP3     5184     TIP3     H2       HT       0.417000       1.00800           0
     34269 TIP3     5185     TIP3     OH2      OT      -0.834000       15.9994           0
     34270 TIP3     5185     TIP3     H1       HT       0.417000       1.00800           0
     34271 TIP3     5185     TIP3     H2       HT       0.417000       1.00800           0
     34272 TIP3     5186     TIP3     OH2      OT      -0.834000       15.9994           0
     34273 TIP3     5186     TIP3     H1       HT       0.417000       1.00800           0
     34274 TIP3     5186     TIP3     H2       HT       0.417000       1.00800           0
     34275 TIP3     5187     TIP3     OH2      OT      -0.834000       15.9994           0
     34276 TIP3     5187     TIP3     H1       HT       0.417000       1.00800           0
     34277 TIP3     5187     TIP3     H2       HT       0.417000       1.00800           0
     34278 TIP3     5188     TIP3     OH2      OT      -0.834000       15.9994           0
     34279 TIP3     5188     TIP3     H1       HT       0.417000       1.00800           0
     34280 TIP3     5188     TIP3     H2       HT       0.417000       1.00800           0
     34281 TIP3     5189     TIP3     OH2      OT      -0.834000       15.9994           0
     34282 TIP3     5189     TIP3     H1       HT       0.417000       1.00800           0
     34283 TIP3     5189     TIP3     H2       HT       0.417000       1.00800           0
     34284 TIP3     5190     TIP3     OH2      OT      -0.834000       15.9994           0
     34285 TIP3     5190     TIP3     H1       HT       0.417000       1.00800           0
     34286 TIP3     5190     TIP3     H2       HT       0.417000       1.00800           0
     34287 TIP3     5191     TIP3     OH2      OT      -0.834000       15.9994           0
     34288 TIP3     5191     TIP3     H1       HT       0.417000       1.00800           0
     34289 TIP3     5191     TIP3     H2       HT       0.417000       1.00800           0
     34290 TIP3     5192     TIP3     OH2      OT      -0.834000       15.9994           0
     34291 TIP3     5192     TIP3     H1       HT       0.417000       1.00800           0
     34292 TIP3     5192     TIP3     H2       HT       0.417000       1.00800           0
     34293 TIP3     5193     TIP3     OH2      OT      -0.834000       15.9994           0
     34294 TIP3     5193     TIP3     H1       HT       0.417000       1.00800           0
     34295 TIP3     5193     TIP3     H2       HT       0.417000       1.00800           0
     34296 TIP3     5194     TIP3     OH2      OT      -0.834000       15.9994           0
     34297 TIP3     5194     TIP3     H1       HT       0.417000       1.00800           0
     34298 TIP3     5194     TIP3     H2       HT       0.417000       1.00800           0
     34299 TIP3     5195     TIP3     OH2      OT      -0.834000       15.9994           0
     34300 TIP3     5195     TIP3     H1       HT       0.417000       1.00800           0
     34301 TIP3     5195     TIP3     H2       HT       0.417000       1.00800           0
     34302 TIP3     5196     TIP3     OH2      OT      -0.834000       15.9994           0
     34303 TIP3     5196     TIP3     H1       HT       0.417000       1.00800           0
     34304 TIP3     5196     TIP3     H2       HT       0.417000       1.00800           0
     34305 TIP3     5197     TIP3     OH2      OT      -0.834000       15.9994           0
     34306 TIP3     5197     TIP3     H1       HT       0.417000       1.00800           0
     34307 TIP3     5197     TIP3     H2       HT       0.417000       1.00800           0
     34308 TIP3     5198     TIP3     OH2      OT      -0.834000       15.9994           0
     34309 TIP3     5198     TIP3     H1       HT       0.417000       1.00800           0
     34310 TIP3     5198     TIP3     H2       HT       0.417000       1.00800           0
     34311 TIP3     5199     TIP3     OH2      OT      -0.834000       15.9994           0
     34312 TIP3     5199     TIP3     H1       HT       0.417000       1.00800           0
     34313 TIP3     5199     TIP3     H2       HT       0.417000       1.00800           0
     34314 TIP3     5200     TIP3     OH2      OT      -0.834000       15.9994           0
     34315 TIP3     5200     TIP3     H1       HT       0.417000       1.00800           0
     34316 TIP3     5200     TIP3     H2       HT       0.417000       1.00800           0
     34317 TIP3     5201     TIP3     OH2      OT      -0.834000       15.9994           0
     34318 TIP3     5201     TIP3     H1       HT       0.417000       1.00800           0
     34319 TIP3     5201     TIP3     H2       HT       0.417000       1.00800           0
     34320 TIP3     5202     TIP3     OH2      OT      -0.834000       15.9994           0
     34321 TIP3     5202     TIP3     H1       HT       0.417000       1.00800           0
     34322 TIP3     5202     TIP3     H2       HT       0.417000       1.00800           0
     34323 TIP3     5203     TIP3     OH2      OT      -0.834000       15.9994           0
     34324 TIP3     5203     TIP3     H1       HT       0.417000       1.00800           0
     34325 TIP3     5203     TIP3     H2       HT       0.417000       1.00800           0
     34326 TIP3     5204     TIP3     OH2      OT      -0.834000       15.9994           0
     34327 TIP3     5204     TIP3     H1       HT       0.417000       1.00800           0
     34328 TIP3     5204     TIP3     H2       HT       0.417000       1.00800           0
     34329 TIP3     5205     TIP3     OH2      OT      -0.834000       15.9994           0
     34330 TIP3     5205     TIP3     H1       HT       0.417000       1.00800           0
     34331 TIP3     5205     TIP3     H2       HT       0.417000       1.00800           0
     34332 TIP3     5206     TIP3     OH2      OT      -0.834000       15.9994           0
     34333 TIP3     5206     TIP3     H1       HT       0.417000       1.00800           0
     34334 TIP3     5206     TIP3     H2       HT       0.417000       1.00800           0
     34335 TIP3     5207     TIP3     OH2      OT      -0.834000       15.9994           0
     34336 TIP3     5207     TIP3     H1       HT       0.417000       1.00800           0
     34337 TIP3     5207     TIP3     H2       HT       0.417000       1.00800           0
     34338 TIP3     5208     TIP3     OH2      OT      -0.834000       15.9994           0
     34339 TIP3     5208     TIP3     H1       HT       0.417000       1.00800           0
     34340 TIP3     5208     TIP3     H2       HT       0.417000       1.00800           0
     34341 TIP3     5209     TIP3     OH2      OT      -0.834000       15.9994           0
     34342 TIP3     5209     TIP3     H1       HT       0.417000       1.00800           0
     34343 TIP3     5209     TIP3     H2       HT       0.417000       1.00800           0
     34344 TIP3     5210     TIP3     OH2      OT      -0.834000       15.9994           0
     34345 TIP3     5210     TIP3     H1       HT       0.417000       1.00800           0
     34346 TIP3     5210     TIP3     H2       HT       0.417000       1.00800           0
     34347 TIP3     5211     TIP3     OH2      OT      -0.834000       15.9994           0
     34348 TIP3     5211     TIP3     H1       HT       0.417000       1.00800           0
     34349 TIP3     5211     TIP3     H2       HT       0.417000       1.00800           0
     34350 TIP3     5212     TIP3     OH2      OT      -0.834000       15.9994           0
     34351 TIP3     5212     TIP3     H1       HT       0.417000       1.00800           0
     34352 TIP3     5212     TIP3     H2       HT       0.417000       1.00800           0
     34353 TIP3     5213     TIP3     OH2      OT      -0.834000       15.9994           0
     34354 TIP3     5213     TIP3     H1       HT       0.417000       1.00800           0
     34355 TIP3     5213     TIP3     H2       HT       0.417000       1.00800           0
     34356 TIP3     5214     TIP3     OH2      OT      -0.834000       15.9994           0
     34357 TIP3     5214     TIP3     H1       HT       0.417000       1.00800           0
     34358 TIP3     5214     TIP3     H2       HT       0.417000       1.00800           0
     34359 TIP3     5215     TIP3     OH2      OT      -0.834000       15.9994           0
     34360 TIP3     5215     TIP3     H1       HT       0.417000       1.00800           0
     34361 TIP3     5215     TIP3     H2       HT       0.417000       1.00800           0
     34362 TIP3     5216     TIP3     OH2      OT      -0.834000       15.9994           0
     34363 TIP3     5216     TIP3     H1       HT       0.417000       1.00800           0
     34364 TIP3     5216     TIP3     H2       HT       0.417000       1.00800           0
     34365 TIP3     5217     TIP3     OH2      OT      -0.834000       15.9994           0
     34366 TIP3     5217     TIP3     H1       HT       0.417000       1.00800           0
     34367 TIP3     5217     TIP3     H2       HT       0.417000       1.00800           0
     34368 TIP3     5218     TIP3     OH2      OT      -0.834000       15.9994           0
     34369 TIP3     5218     TIP3     H1       HT       0.417000       1.00800           0
     34370 TIP3     5218     TIP3     H2       HT       0.417000       1.00800           0
     34371 TIP3     5219     TIP3     OH2      OT      -0.834000       15.9994           0
     34372 TIP3     5219     TIP3     H1       HT       0.417000       1.00800           0
     34373 TIP3     5219     TIP3     H2       HT       0.417000       1.00800           0
     34374 TIP3     5220     TIP3     OH2      OT      -0.834000       15.9994           0
     34375 TIP3     5220     TIP3     H1       HT       0.417000       1.00800           0
     34376 TIP3     5220     TIP3     H2       HT       0.417000       1.00800           0
     34377 TIP3     5221     TIP3     OH2      OT      -0.834000       15.9994           0
     34378 TIP3     5221     TIP3     H1       HT       0.417000       1.00800           0
     34379 TIP3     5221     TIP3     H2       HT       0.417000       1.00800           0
     34380 TIP3     5222     TIP3     OH2      OT      -0.834000       15.9994           0
     34381 TIP3     5222     TIP3     H1       HT       0.417000       1.00800           0
     34382 TIP3     5222     TIP3     H2       HT       0.417000       1.00800           0
     34383 TIP3     5223     TIP3     OH2      OT      -0.834000       15.9994           0
     34384 TIP3     5223     TIP3     H1       HT       0.417000       1.00800           0
     34385 TIP3     5223     TIP3     H2       HT       0.417000       1.00800           0
     34386 TIP3     5224     TIP3     OH2      OT      -0.834000       15.9994           0
     34387 TIP3     5224     TIP3     H1       HT       0.417000       1.00800           0
     34388 TIP3     5224     TIP3     H2       HT       0.417000       1.00800           0
     34389 TIP3     5225     TIP3     OH2      OT      -0.834000       15.9994           0
     34390 TIP3     5225     TIP3     H1       HT       0.417000       1.00800           0
     34391 TIP3     5225     TIP3     H2       HT       0.417000       1.00800           0
     34392 TIP3     5226     TIP3     OH2      OT      -0.834000       15.9994           0
     34393 TIP3     5226     TIP3     H1       HT       0.417000       1.00800           0
     34394 TIP3     5226     TIP3     H2       HT       0.417000       1.00800           0
     34395 TIP3     5227     TIP3     OH2      OT      -0.834000       15.9994           0
     34396 TIP3     5227     TIP3     H1       HT       0.417000       1.00800           0
     34397 TIP3     5227     TIP3     H2       HT       0.417000       1.00800           0
     34398 TIP3     5228     TIP3     OH2      OT      -0.834000       15.9994           0
     34399 TIP3     5228     TIP3     H1       HT       0.417000       1.00800           0
     34400 TIP3     5228     TIP3     H2       HT       0.417000       1.00800           0
     34401 TIP3     5229     TIP3     OH2      OT      -0.834000       15.9994           0
     34402 TIP3     5229     TIP3     H1       HT       0.417000       1.00800           0
     34403 TIP3     5229     TIP3     H2       HT       0.417000       1.00800           0
     34404 TIP3     5230     TIP3     OH2      OT      -0.834000       15.9994           0
     34405 TIP3     5230     TIP3     H1       HT       0.417000       1.00800           0
     34406 TIP3     5230     TIP3     H2       HT       0.417000       1.00800           0
     34407 TIP3     5231     TIP3     OH2      OT      -0.834000       15.9994           0
     34408 TIP3     5231     TIP3     H1       HT       0.417000       1.00800           0
     34409 TIP3     5231     TIP3     H2       HT       0.417000       1.00800           0
     34410 TIP3     5232     TIP3     OH2      OT      -0.834000       15.9994           0
     34411 TIP3     5232     TIP3     H1       HT       0.417000       1.00800           0
     34412 TIP3     5232     TIP3     H2       HT       0.417000       1.00800           0
     34413 TIP3     5233     TIP3     OH2      OT      -0.834000       15.9994           0
     34414 TIP3     5233     TIP3     H1       HT       0.417000       1.00800           0
     34415 TIP3     5233     TIP3     H2       HT       0.417000       1.00800           0
     34416 TIP3     5234     TIP3     OH2      OT      -0.834000       15.9994           0
     34417 TIP3     5234     TIP3     H1       HT       0.417000       1.00800           0
     34418 TIP3     5234     TIP3     H2       HT       0.417000       1.00800           0
     34419 TIP3     5235     TIP3     OH2      OT      -0.834000       15.9994           0
     34420 TIP3     5235     TIP3     H1       HT       0.417000       1.00800           0
     34421 TIP3     5235     TIP3     H2       HT       0.417000       1.00800           0
     34422 TIP3     5236     TIP3     OH2      OT      -0.834000       15.9994           0
     34423 TIP3     5236     TIP3     H1       HT       0.417000       1.00800           0
     34424 TIP3     5236     TIP3     H2       HT       0.417000       1.00800           0
     34425 TIP3     5237     TIP3     OH2      OT      -0.834000       15.9994           0
     34426 TIP3     5237     TIP3     H1       HT       0.417000       1.00800           0
     34427 TIP3     5237     TIP3     H2       HT       0.417000       1.00800           0
     34428 TIP3     5238     TIP3     OH2      OT      -0.834000       15.9994           0
     34429 TIP3     5238     TIP3     H1       HT       0.417000       1.00800           0
     34430 TIP3     5238     TIP3     H2       HT       0.417000       1.00800           0
     34431 TIP3     5239     TIP3     OH2      OT      -0.834000       15.9994           0
     34432 TIP3     5239     TIP3     H1       HT       0.417000       1.00800           0
     34433 TIP3     5239     TIP3     H2       HT       0.417000       1.00800           0
     34434 TIP3     5240     TIP3     OH2      OT      -0.834000       15.9994           0
     34435 TIP3     5240     TIP3     H1       HT       0.417000       1.00800           0
     34436 TIP3     5240     TIP3     H2       HT       0.417000       1.00800           0
     34437 TIP3     5241     TIP3     OH2      OT      -0.834000       15.9994           0
     34438 TIP3     5241     TIP3     H1       HT       0.417000       1.00800           0
     34439 TIP3     5241     TIP3     H2       HT       0.417000       1.00800           0
     34440 TIP3     5242     TIP3     OH2      OT      -0.834000       15.9994           0
     34441 TIP3     5242     TIP3     H1       HT       0.417000       1.00800           0
     34442 TIP3     5242     TIP3     H2       HT       0.417000       1.00800           0
     34443 TIP3     5243     TIP3     OH2      OT      -0.834000       15.9994           0
     34444 TIP3     5243     TIP3     H1       HT       0.417000       1.00800           0
     34445 TIP3     5243     TIP3     H2       HT       0.417000       1.00800           0
     34446 TIP3     5244     TIP3     OH2      OT      -0.834000       15.9994           0
     34447 TIP3     5244     TIP3     H1       HT       0.417000       1.00800           0
     34448 TIP3     5244     TIP3     H2       HT       0.417000       1.00800           0
     34449 TIP3     5245     TIP3     OH2      OT      -0.834000       15.9994           0
     34450 TIP3     5245     TIP3     H1       HT       0.417000       1.00800           0
     34451 TIP3     5245     TIP3     H2       HT       0.417000       1.00800           0
     34452 TIP3     5246     TIP3     OH2      OT      -0.834000       15.9994           0
     34453 TIP3     5246     TIP3     H1       HT       0.417000       1.00800           0
     34454 TIP3     5246     TIP3     H2       HT       0.417000       1.00800           0
     34455 TIP3     5247     TIP3     OH2      OT      -0.834000       15.9994           0
     34456 TIP3     5247     TIP3     H1       HT       0.417000       1.00800           0
     34457 TIP3     5247     TIP3     H2       HT       0.417000       1.00800           0
     34458 TIP3     5248     TIP3     OH2      OT      -0.834000       15.9994           0
     34459 TIP3     5248     TIP3     H1       HT       0.417000       1.00800           0
     34460 TIP3     5248     TIP3     H2       HT       0.417000       1.00800           0
     34461 TIP3     5249     TIP3     OH2      OT      -0.834000       15.9994           0
     34462 TIP3     5249     TIP3     H1       HT       0.417000       1.00800           0
     34463 TIP3     5249     TIP3     H2       HT       0.417000       1.00800           0
     34464 TIP3     5250     TIP3     OH2      OT      -0.834000       15.9994           0
     34465 TIP3     5250     TIP3     H1       HT       0.417000       1.00800           0
     34466 TIP3     5250     TIP3     H2       HT       0.417000       1.00800           0
     34467 TIP3     5251     TIP3     OH2      OT      -0.834000       15.9994           0
     34468 TIP3     5251     TIP3     H1       HT       0.417000       1.00800           0
     34469 TIP3     5251     TIP3     H2       HT       0.417000       1.00800           0
     34470 TIP3     5252     TIP3     OH2      OT      -0.834000       15.9994           0
     34471 TIP3     5252     TIP3     H1       HT       0.417000       1.00800           0
     34472 TIP3     5252     TIP3     H2       HT       0.417000       1.00800           0
     34473 TIP3     5253     TIP3     OH2      OT      -0.834000       15.9994           0
     34474 TIP3     5253     TIP3     H1       HT       0.417000       1.00800           0
     34475 TIP3     5253     TIP3     H2       HT       0.417000       1.00800           0
     34476 TIP3     5254     TIP3     OH2      OT      -0.834000       15.9994           0
     34477 TIP3     5254     TIP3     H1       HT       0.417000       1.00800           0
     34478 TIP3     5254     TIP3     H2       HT       0.417000       1.00800           0
     34479 TIP3     5255     TIP3     OH2      OT      -0.834000       15.9994           0
     34480 TIP3     5255     TIP3     H1       HT       0.417000       1.00800           0
     34481 TIP3     5255     TIP3     H2       HT       0.417000       1.00800           0
     34482 TIP3     5256     TIP3     OH2      OT      -0.834000       15.9994           0
     34483 TIP3     5256     TIP3     H1       HT       0.417000       1.00800           0
     34484 TIP3     5256     TIP3     H2       HT       0.417000       1.00800           0
     34485 TIP3     5257     TIP3     OH2      OT      -0.834000       15.9994           0
     34486 TIP3     5257     TIP3     H1       HT       0.417000       1.00800           0
     34487 TIP3     5257     TIP3     H2       HT       0.417000       1.00800           0
     34488 TIP3     5258     TIP3     OH2      OT      -0.834000       15.9994           0
     34489 TIP3     5258     TIP3     H1       HT       0.417000       1.00800           0
     34490 TIP3     5258     TIP3     H2       HT       0.417000       1.00800           0
     34491 TIP3     5259     TIP3     OH2      OT      -0.834000       15.9994           0
     34492 TIP3     5259     TIP3     H1       HT       0.417000       1.00800           0
     34493 TIP3     5259     TIP3     H2       HT       0.417000       1.00800           0
     34494 TIP3     5260     TIP3     OH2      OT      -0.834000       15.9994           0
     34495 TIP3     5260     TIP3     H1       HT       0.417000       1.00800           0
     34496 TIP3     5260     TIP3     H2       HT       0.417000       1.00800           0
     34497 TIP3     5261     TIP3     OH2      OT      -0.834000       15.9994           0
     34498 TIP3     5261     TIP3     H1       HT       0.417000       1.00800           0
     34499 TIP3     5261     TIP3     H2       HT       0.417000       1.00800           0
     34500 TIP3     5262     TIP3     OH2      OT      -0.834000       15.9994           0
     34501 TIP3     5262     TIP3     H1       HT       0.417000       1.00800           0
     34502 TIP3     5262     TIP3     H2       HT       0.417000       1.00800           0
     34503 TIP3     5263     TIP3     OH2      OT      -0.834000       15.9994           0
     34504 TIP3     5263     TIP3     H1       HT       0.417000       1.00800           0
     34505 TIP3     5263     TIP3     H2       HT       0.417000       1.00800           0
     34506 TIP3     5264     TIP3     OH2      OT      -0.834000       15.9994           0
     34507 TIP3     5264     TIP3     H1       HT       0.417000       1.00800           0
     34508 TIP3     5264     TIP3     H2       HT       0.417000       1.00800           0
     34509 TIP3     5265     TIP3     OH2      OT      -0.834000       15.9994           0
     34510 TIP3     5265     TIP3     H1       HT       0.417000       1.00800           0
     34511 TIP3     5265     TIP3     H2       HT       0.417000       1.00800           0
     34512 TIP3     5266     TIP3     OH2      OT      -0.834000       15.9994           0
     34513 TIP3     5266     TIP3     H1       HT       0.417000       1.00800           0
     34514 TIP3     5266     TIP3     H2       HT       0.417000       1.00800           0
     34515 TIP3     5267     TIP3     OH2      OT      -0.834000       15.9994           0
     34516 TIP3     5267     TIP3     H1       HT       0.417000       1.00800           0
     34517 TIP3     5267     TIP3     H2       HT       0.417000       1.00800           0
     34518 TIP3     5268     TIP3     OH2      OT      -0.834000       15.9994           0
     34519 TIP3     5268     TIP3     H1       HT       0.417000       1.00800           0
     34520 TIP3     5268     TIP3     H2       HT       0.417000       1.00800           0
     34521 TIP3     5269     TIP3     OH2      OT      -0.834000       15.9994           0
     34522 TIP3     5269     TIP3     H1       HT       0.417000       1.00800           0
     34523 TIP3     5269     TIP3     H2       HT       0.417000       1.00800           0
     34524 TIP3     5270     TIP3     OH2      OT      -0.834000       15.9994           0
     34525 TIP3     5270     TIP3     H1       HT       0.417000       1.00800           0
     34526 TIP3     5270     TIP3     H2       HT       0.417000       1.00800           0
     34527 TIP3     5271     TIP3     OH2      OT      -0.834000       15.9994           0
     34528 TIP3     5271     TIP3     H1       HT       0.417000       1.00800           0
     34529 TIP3     5271     TIP3     H2       HT       0.417000       1.00800           0
     34530 TIP3     5272     TIP3     OH2      OT      -0.834000       15.9994           0
     34531 TIP3     5272     TIP3     H1       HT       0.417000       1.00800           0
     34532 TIP3     5272     TIP3     H2       HT       0.417000       1.00800           0
     34533 TIP3     5273     TIP3     OH2      OT      -0.834000       15.9994           0
     34534 TIP3     5273     TIP3     H1       HT       0.417000       1.00800           0
     34535 TIP3     5273     TIP3     H2       HT       0.417000       1.00800           0
     34536 TIP3     5274     TIP3     OH2      OT      -0.834000       15.9994           0
     34537 TIP3     5274     TIP3     H1       HT       0.417000       1.00800           0
     34538 TIP3     5274     TIP3     H2       HT       0.417000       1.00800           0
     34539 TIP3     5275     TIP3     OH2      OT      -0.834000       15.9994           0
     34540 TIP3     5275     TIP3     H1       HT       0.417000       1.00800           0
     34541 TIP3     5275     TIP3     H2       HT       0.417000       1.00800           0
     34542 TIP3     5276     TIP3     OH2      OT      -0.834000       15.9994           0
     34543 TIP3     5276     TIP3     H1       HT       0.417000       1.00800           0
     34544 TIP3     5276     TIP3     H2       HT       0.417000       1.00800           0
     34545 TIP3     5277     TIP3     OH2      OT      -0.834000       15.9994           0
     34546 TIP3     5277     TIP3     H1       HT       0.417000       1.00800           0
     34547 TIP3     5277     TIP3     H2       HT       0.417000       1.00800           0
     34548 TIP3     5278     TIP3     OH2      OT      -0.834000       15.9994           0
     34549 TIP3     5278     TIP3     H1       HT       0.417000       1.00800           0
     34550 TIP3     5278     TIP3     H2       HT       0.417000       1.00800           0
     34551 TIP3     5279     TIP3     OH2      OT      -0.834000       15.9994           0
     34552 TIP3     5279     TIP3     H1       HT       0.417000       1.00800           0
     34553 TIP3     5279     TIP3     H2       HT       0.417000       1.00800           0
     34554 TIP3     5280     TIP3     OH2      OT      -0.834000       15.9994           0
     34555 TIP3     5280     TIP3     H1       HT       0.417000       1.00800           0
     34556 TIP3     5280     TIP3     H2       HT       0.417000       1.00800           0
     34557 TIP3     5281     TIP3     OH2      OT      -0.834000       15.9994           0
     34558 TIP3     5281     TIP3     H1       HT       0.417000       1.00800           0
     34559 TIP3     5281     TIP3     H2       HT       0.417000       1.00800           0
     34560 TIP3     5282     TIP3     OH2      OT      -0.834000       15.9994           0
     34561 TIP3     5282     TIP3     H1       HT       0.417000       1.00800           0
     34562 TIP3     5282     TIP3     H2       HT       0.417000       1.00800           0
     34563 TIP3     5283     TIP3     OH2      OT      -0.834000       15.9994           0
     34564 TIP3     5283     TIP3     H1       HT       0.417000       1.00800           0
     34565 TIP3     5283     TIP3     H2       HT       0.417000       1.00800           0
     34566 TIP3     5284     TIP3     OH2      OT      -0.834000       15.9994           0
     34567 TIP3     5284     TIP3     H1       HT       0.417000       1.00800           0
     34568 TIP3     5284     TIP3     H2       HT       0.417000       1.00800           0
     34569 TIP3     5285     TIP3     OH2      OT      -0.834000       15.9994           0
     34570 TIP3     5285     TIP3     H1       HT       0.417000       1.00800           0
     34571 TIP3     5285     TIP3     H2       HT       0.417000       1.00800           0
     34572 TIP3     5286     TIP3     OH2      OT      -0.834000       15.9994           0
     34573 TIP3     5286     TIP3     H1       HT       0.417000       1.00800           0
     34574 TIP3     5286     TIP3     H2       HT       0.417000       1.00800           0
     34575 TIP3     5287     TIP3     OH2      OT      -0.834000       15.9994           0
     34576 TIP3     5287     TIP3     H1       HT       0.417000       1.00800           0
     34577 TIP3     5287     TIP3     H2       HT       0.417000       1.00800           0
     34578 TIP3     5288     TIP3     OH2      OT      -0.834000       15.9994           0
     34579 TIP3     5288     TIP3     H1       HT       0.417000       1.00800           0
     34580 TIP3     5288     TIP3     H2       HT       0.417000       1.00800           0
     34581 TIP3     5289     TIP3     OH2      OT      -0.834000       15.9994           0
     34582 TIP3     5289     TIP3     H1       HT       0.417000       1.00800           0
     34583 TIP3     5289     TIP3     H2       HT       0.417000       1.00800           0
     34584 TIP3     5290     TIP3     OH2      OT      -0.834000       15.9994           0
     34585 TIP3     5290     TIP3     H1       HT       0.417000       1.00800           0
     34586 TIP3     5290     TIP3     H2       HT       0.417000       1.00800           0
     34587 TIP3     5291     TIP3     OH2      OT      -0.834000       15.9994           0
     34588 TIP3     5291     TIP3     H1       HT       0.417000       1.00800           0
     34589 TIP3     5291     TIP3     H2       HT       0.417000       1.00800           0
     34590 TIP3     5292     TIP3     OH2      OT      -0.834000       15.9994           0
     34591 TIP3     5292     TIP3     H1       HT       0.417000       1.00800           0
     34592 TIP3     5292     TIP3     H2       HT       0.417000       1.00800           0
     34593 TIP3     5293     TIP3     OH2      OT      -0.834000       15.9994           0
     34594 TIP3     5293     TIP3     H1       HT       0.417000       1.00800           0
     34595 TIP3     5293     TIP3     H2       HT       0.417000       1.00800           0
     34596 TIP3     5294     TIP3     OH2      OT      -0.834000       15.9994           0
     34597 TIP3     5294     TIP3     H1       HT       0.417000       1.00800           0
     34598 TIP3     5294     TIP3     H2       HT       0.417000       1.00800           0
     34599 TIP3     5295     TIP3     OH2      OT      -0.834000       15.9994           0
     34600 TIP3     5295     TIP3     H1       HT       0.417000       1.00800           0
     34601 TIP3     5295     TIP3     H2       HT       0.417000       1.00800           0
     34602 TIP3     5296     TIP3     OH2      OT      -0.834000       15.9994           0
     34603 TIP3     5296     TIP3     H1       HT       0.417000       1.00800           0
     34604 TIP3     5296     TIP3     H2       HT       0.417000       1.00800           0
     34605 TIP3     5297     TIP3     OH2      OT      -0.834000       15.9994           0
     34606 TIP3     5297     TIP3     H1       HT       0.417000       1.00800           0
     34607 TIP3     5297     TIP3     H2       HT       0.417000       1.00800           0
     34608 TIP3     5298     TIP3     OH2      OT      -0.834000       15.9994           0
     34609 TIP3     5298     TIP3     H1       HT       0.417000       1.00800           0
     34610 TIP3     5298     TIP3     H2       HT       0.417000       1.00800           0
     34611 TIP3     5299     TIP3     OH2      OT      -0.834000       15.9994           0
     34612 TIP3     5299     TIP3     H1       HT       0.417000       1.00800           0
     34613 TIP3     5299     TIP3     H2       HT       0.417000       1.00800           0
     34614 TIP3     5300     TIP3     OH2      OT      -0.834000       15.9994           0
     34615 TIP3     5300     TIP3     H1       HT       0.417000       1.00800           0
     34616 TIP3     5300     TIP3     H2       HT       0.417000       1.00800           0
     34617 TIP3     5301     TIP3     OH2      OT      -0.834000       15.9994           0
     34618 TIP3     5301     TIP3     H1       HT       0.417000       1.00800           0
     34619 TIP3     5301     TIP3     H2       HT       0.417000       1.00800           0
     34620 TIP3     5302     TIP3     OH2      OT      -0.834000       15.9994           0
     34621 TIP3     5302     TIP3     H1       HT       0.417000       1.00800           0
     34622 TIP3     5302     TIP3     H2       HT       0.417000       1.00800           0
     34623 TIP3     5303     TIP3     OH2      OT      -0.834000       15.9994           0
     34624 TIP3     5303     TIP3     H1       HT       0.417000       1.00800           0
     34625 TIP3     5303     TIP3     H2       HT       0.417000       1.00800           0
     34626 TIP3     5304     TIP3     OH2      OT      -0.834000       15.9994           0
     34627 TIP3     5304     TIP3     H1       HT       0.417000       1.00800           0
     34628 TIP3     5304     TIP3     H2       HT       0.417000       1.00800           0
     34629 TIP3     5305     TIP3     OH2      OT      -0.834000       15.9994           0
     34630 TIP3     5305     TIP3     H1       HT       0.417000       1.00800           0
     34631 TIP3     5305     TIP3     H2       HT       0.417000       1.00800           0
     34632 TIP3     5306     TIP3     OH2      OT      -0.834000       15.9994           0
     34633 TIP3     5306     TIP3     H1       HT       0.417000       1.00800           0
     34634 TIP3     5306     TIP3     H2       HT       0.417000       1.00800           0
     34635 TIP3     5307     TIP3     OH2      OT      -0.834000       15.9994           0
     34636 TIP3     5307     TIP3     H1       HT       0.417000       1.00800           0
     34637 TIP3     5307     TIP3     H2       HT       0.417000       1.00800           0
     34638 TIP3     5308     TIP3     OH2      OT      -0.834000       15.9994           0
     34639 TIP3     5308     TIP3     H1       HT       0.417000       1.00800           0
     34640 TIP3     5308     TIP3     H2       HT       0.417000       1.00800           0
     34641 TIP3     5309     TIP3     OH2      OT      -0.834000       15.9994           0
     34642 TIP3     5309     TIP3     H1       HT       0.417000       1.00800           0
     34643 TIP3     5309     TIP3     H2       HT       0.417000       1.00800           0
     34644 TIP3     5310     TIP3     OH2      OT      -0.834000       15.9994           0
     34645 TIP3     5310     TIP3     H1       HT       0.417000       1.00800           0
     34646 TIP3     5310     TIP3     H2       HT       0.417000       1.00800           0
     34647 TIP3     5311     TIP3     OH2      OT      -0.834000       15.9994           0
     34648 TIP3     5311     TIP3     H1       HT       0.417000       1.00800           0
     34649 TIP3     5311     TIP3     H2       HT       0.417000       1.00800           0
     34650 TIP3     5312     TIP3     OH2      OT      -0.834000       15.9994           0
     34651 TIP3     5312     TIP3     H1       HT       0.417000       1.00800           0
     34652 TIP3     5312     TIP3     H2       HT       0.417000       1.00800           0
     34653 TIP3     5313     TIP3     OH2      OT      -0.834000       15.9994           0
     34654 TIP3     5313     TIP3     H1       HT       0.417000       1.00800           0
     34655 TIP3     5313     TIP3     H2       HT       0.417000       1.00800           0
     34656 TIP3     5314     TIP3     OH2      OT      -0.834000       15.9994           0
     34657 TIP3     5314     TIP3     H1       HT       0.417000       1.00800           0
     34658 TIP3     5314     TIP3     H2       HT       0.417000       1.00800           0
     34659 TIP3     5315     TIP3     OH2      OT      -0.834000       15.9994           0
     34660 TIP3     5315     TIP3     H1       HT       0.417000       1.00800           0
     34661 TIP3     5315     TIP3     H2       HT       0.417000       1.00800           0
     34662 TIP3     5316     TIP3     OH2      OT      -0.834000       15.9994           0
     34663 TIP3     5316     TIP3     H1       HT       0.417000       1.00800           0
     34664 TIP3     5316     TIP3     H2       HT       0.417000       1.00800           0
     34665 TIP3     5317     TIP3     OH2      OT      -0.834000       15.9994           0
     34666 TIP3     5317     TIP3     H1       HT       0.417000       1.00800           0
     34667 TIP3     5317     TIP3     H2       HT       0.417000       1.00800           0
     34668 TIP3     5318     TIP3     OH2      OT      -0.834000       15.9994           0
     34669 TIP3     5318     TIP3     H1       HT       0.417000       1.00800           0
     34670 TIP3     5318     TIP3     H2       HT       0.417000       1.00800           0
     34671 TIP3     5319     TIP3     OH2      OT      -0.834000       15.9994           0
     34672 TIP3     5319     TIP3     H1       HT       0.417000       1.00800           0
     34673 TIP3     5319     TIP3     H2       HT       0.417000       1.00800           0
     34674 TIP3     5320     TIP3     OH2      OT      -0.834000       15.9994           0
     34675 TIP3     5320     TIP3     H1       HT       0.417000       1.00800           0
     34676 TIP3     5320     TIP3     H2       HT       0.417000       1.00800           0
     34677 TIP3     5321     TIP3     OH2      OT      -0.834000       15.9994           0
     34678 TIP3     5321     TIP3     H1       HT       0.417000       1.00800           0
     34679 TIP3     5321     TIP3     H2       HT       0.417000       1.00800           0
     34680 TIP3     5322     TIP3     OH2      OT      -0.834000       15.9994           0
     34681 TIP3     5322     TIP3     H1       HT       0.417000       1.00800           0
     34682 TIP3     5322     TIP3     H2       HT       0.417000       1.00800           0
     34683 TIP3     5323     TIP3     OH2      OT      -0.834000       15.9994           0
     34684 TIP3     5323     TIP3     H1       HT       0.417000       1.00800           0
     34685 TIP3     5323     TIP3     H2       HT       0.417000       1.00800           0
     34686 TIP3     5324     TIP3     OH2      OT      -0.834000       15.9994           0
     34687 TIP3     5324     TIP3     H1       HT       0.417000       1.00800           0
     34688 TIP3     5324     TIP3     H2       HT       0.417000       1.00800           0
     34689 TIP3     5325     TIP3     OH2      OT      -0.834000       15.9994           0
     34690 TIP3     5325     TIP3     H1       HT       0.417000       1.00800           0
     34691 TIP3     5325     TIP3     H2       HT       0.417000       1.00800           0
     34692 TIP3     5326     TIP3     OH2      OT      -0.834000       15.9994           0
     34693 TIP3     5326     TIP3     H1       HT       0.417000       1.00800           0
     34694 TIP3     5326     TIP3     H2       HT       0.417000       1.00800           0
     34695 TIP3     5327     TIP3     OH2      OT      -0.834000       15.9994           0
     34696 TIP3     5327     TIP3     H1       HT       0.417000       1.00800           0
     34697 TIP3     5327     TIP3     H2       HT       0.417000       1.00800           0
     34698 TIP3     5328     TIP3     OH2      OT      -0.834000       15.9994           0
     34699 TIP3     5328     TIP3     H1       HT       0.417000       1.00800           0
     34700 TIP3     5328     TIP3     H2       HT       0.417000       1.00800           0
     34701 TIP3     5329     TIP3     OH2      OT      -0.834000       15.9994           0
     34702 TIP3     5329     TIP3     H1       HT       0.417000       1.00800           0
     34703 TIP3     5329     TIP3     H2       HT       0.417000       1.00800           0
     34704 TIP3     5330     TIP3     OH2      OT      -0.834000       15.9994           0
     34705 TIP3     5330     TIP3     H1       HT       0.417000       1.00800           0
     34706 TIP3     5330     TIP3     H2       HT       0.417000       1.00800           0
     34707 TIP3     5331     TIP3     OH2      OT      -0.834000       15.9994           0
     34708 TIP3     5331     TIP3     H1       HT       0.417000       1.00800           0
     34709 TIP3     5331     TIP3     H2       HT       0.417000       1.00800           0
     34710 TIP3     5332     TIP3     OH2      OT      -0.834000       15.9994           0
     34711 TIP3     5332     TIP3     H1       HT       0.417000       1.00800           0
     34712 TIP3     5332     TIP3     H2       HT       0.417000       1.00800           0
     34713 TIP3     5333     TIP3     OH2      OT      -0.834000       15.9994           0
     34714 TIP3     5333     TIP3     H1       HT       0.417000       1.00800           0
     34715 TIP3     5333     TIP3     H2       HT       0.417000       1.00800           0
     34716 TIP3     5334     TIP3     OH2      OT      -0.834000       15.9994           0
     34717 TIP3     5334     TIP3     H1       HT       0.417000       1.00800           0
     34718 TIP3     5334     TIP3     H2       HT       0.417000       1.00800           0
     34719 TIP3     5335     TIP3     OH2      OT      -0.834000       15.9994           0
     34720 TIP3     5335     TIP3     H1       HT       0.417000       1.00800           0
     34721 TIP3     5335     TIP3     H2       HT       0.417000       1.00800           0
     34722 TIP3     5336     TIP3     OH2      OT      -0.834000       15.9994           0
     34723 TIP3     5336     TIP3     H1       HT       0.417000       1.00800           0
     34724 TIP3     5336     TIP3     H2       HT       0.417000       1.00800           0
     34725 TIP3     5337     TIP3     OH2      OT      -0.834000       15.9994           0
     34726 TIP3     5337     TIP3     H1       HT       0.417000       1.00800           0
     34727 TIP3     5337     TIP3     H2       HT       0.417000       1.00800           0
     34728 TIP3     5338     TIP3     OH2      OT      -0.834000       15.9994           0
     34729 TIP3     5338     TIP3     H1       HT       0.417000       1.00800           0
     34730 TIP3     5338     TIP3     H2       HT       0.417000       1.00800           0
     34731 TIP3     5339     TIP3     OH2      OT      -0.834000       15.9994           0
     34732 TIP3     5339     TIP3     H1       HT       0.417000       1.00800           0
     34733 TIP3     5339     TIP3     H2       HT       0.417000       1.00800           0
     34734 TIP3     5340     TIP3     OH2      OT      -0.834000       15.9994           0
     34735 TIP3     5340     TIP3     H1       HT       0.417000       1.00800           0
     34736 TIP3     5340     TIP3     H2       HT       0.417000       1.00800           0
     34737 TIP3     5341     TIP3     OH2      OT      -0.834000       15.9994           0
     34738 TIP3     5341     TIP3     H1       HT       0.417000       1.00800           0
     34739 TIP3     5341     TIP3     H2       HT       0.417000       1.00800           0
     34740 TIP3     5342     TIP3     OH2      OT      -0.834000       15.9994           0
     34741 TIP3     5342     TIP3     H1       HT       0.417000       1.00800           0
     34742 TIP3     5342     TIP3     H2       HT       0.417000       1.00800           0
     34743 TIP3     5343     TIP3     OH2      OT      -0.834000       15.9994           0
     34744 TIP3     5343     TIP3     H1       HT       0.417000       1.00800           0
     34745 TIP3     5343     TIP3     H2       HT       0.417000       1.00800           0
     34746 TIP3     5344     TIP3     OH2      OT      -0.834000       15.9994           0
     34747 TIP3     5344     TIP3     H1       HT       0.417000       1.00800           0
     34748 TIP3     5344     TIP3     H2       HT       0.417000       1.00800           0
     34749 TIP3     5345     TIP3     OH2      OT      -0.834000       15.9994           0
     34750 TIP3     5345     TIP3     H1       HT       0.417000       1.00800           0
     34751 TIP3     5345     TIP3     H2       HT       0.417000       1.00800           0
     34752 TIP3     5346     TIP3     OH2      OT      -0.834000       15.9994           0
     34753 TIP3     5346     TIP3     H1       HT       0.417000       1.00800           0
     34754 TIP3     5346     TIP3     H2       HT       0.417000       1.00800           0
     34755 TIP3     5347     TIP3     OH2      OT      -0.834000       15.9994           0
     34756 TIP3     5347     TIP3     H1       HT       0.417000       1.00800           0
     34757 TIP3     5347     TIP3     H2       HT       0.417000       1.00800           0
     34758 TIP3     5348     TIP3     OH2      OT      -0.834000       15.9994           0
     34759 TIP3     5348     TIP3     H1       HT       0.417000       1.00800           0
     34760 TIP3     5348     TIP3     H2       HT       0.417000       1.00800           0
     34761 TIP3     5349     TIP3     OH2      OT      -0.834000       15.9994           0
     34762 TIP3     5349     TIP3     H1       HT       0.417000       1.00800           0
     34763 TIP3     5349     TIP3     H2       HT       0.417000       1.00800           0
     34764 TIP3     5350     TIP3     OH2      OT      -0.834000       15.9994           0
     34765 TIP3     5350     TIP3     H1       HT       0.417000       1.00800           0
     34766 TIP3     5350     TIP3     H2       HT       0.417000       1.00800           0
     34767 TIP3     5351     TIP3     OH2      OT      -0.834000       15.9994           0
     34768 TIP3     5351     TIP3     H1       HT       0.417000       1.00800           0
     34769 TIP3     5351     TIP3     H2       HT       0.417000       1.00800           0
     34770 TIP3     5352     TIP3     OH2      OT      -0.834000       15.9994           0
     34771 TIP3     5352     TIP3     H1       HT       0.417000       1.00800           0
     34772 TIP3     5352     TIP3     H2       HT       0.417000       1.00800           0
     34773 TIP3     5353     TIP3     OH2      OT      -0.834000       15.9994           0
     34774 TIP3     5353     TIP3     H1       HT       0.417000       1.00800           0
     34775 TIP3     5353     TIP3     H2       HT       0.417000       1.00800           0
     34776 TIP3     5354     TIP3     OH2      OT      -0.834000       15.9994           0
     34777 TIP3     5354     TIP3     H1       HT       0.417000       1.00800           0
     34778 TIP3     5354     TIP3     H2       HT       0.417000       1.00800           0
     34779 TIP3     5355     TIP3     OH2      OT      -0.834000       15.9994           0
     34780 TIP3     5355     TIP3     H1       HT       0.417000       1.00800           0
     34781 TIP3     5355     TIP3     H2       HT       0.417000       1.00800           0
     34782 TIP3     5356     TIP3     OH2      OT      -0.834000       15.9994           0
     34783 TIP3     5356     TIP3     H1       HT       0.417000       1.00800           0
     34784 TIP3     5356     TIP3     H2       HT       0.417000       1.00800           0
     34785 TIP3     5357     TIP3     OH2      OT      -0.834000       15.9994           0
     34786 TIP3     5357     TIP3     H1       HT       0.417000       1.00800           0
     34787 TIP3     5357     TIP3     H2       HT       0.417000       1.00800           0
     34788 TIP3     5358     TIP3     OH2      OT      -0.834000       15.9994           0
     34789 TIP3     5358     TIP3     H1       HT       0.417000       1.00800           0
     34790 TIP3     5358     TIP3     H2       HT       0.417000       1.00800           0
     34791 TIP3     5359     TIP3     OH2      OT      -0.834000       15.9994           0
     34792 TIP3     5359     TIP3     H1       HT       0.417000       1.00800           0
     34793 TIP3     5359     TIP3     H2       HT       0.417000       1.00800           0
     34794 TIP3     5360     TIP3     OH2      OT      -0.834000       15.9994           0
     34795 TIP3     5360     TIP3     H1       HT       0.417000       1.00800           0
     34796 TIP3     5360     TIP3     H2       HT       0.417000       1.00800           0
     34797 TIP3     5361     TIP3     OH2      OT      -0.834000       15.9994           0
     34798 TIP3     5361     TIP3     H1       HT       0.417000       1.00800           0
     34799 TIP3     5361     TIP3     H2       HT       0.417000       1.00800           0
     34800 TIP3     5362     TIP3     OH2      OT      -0.834000       15.9994           0
     34801 TIP3     5362     TIP3     H1       HT       0.417000       1.00800           0
     34802 TIP3     5362     TIP3     H2       HT       0.417000       1.00800           0
     34803 TIP3     5363     TIP3     OH2      OT      -0.834000       15.9994           0
     34804 TIP3     5363     TIP3     H1       HT       0.417000       1.00800           0
     34805 TIP3     5363     TIP3     H2       HT       0.417000       1.00800           0
     34806 TIP3     5364     TIP3     OH2      OT      -0.834000       15.9994           0
     34807 TIP3     5364     TIP3     H1       HT       0.417000       1.00800           0
     34808 TIP3     5364     TIP3     H2       HT       0.417000       1.00800           0
     34809 TIP3     5365     TIP3     OH2      OT      -0.834000       15.9994           0
     34810 TIP3     5365     TIP3     H1       HT       0.417000       1.00800           0
     34811 TIP3     5365     TIP3     H2       HT       0.417000       1.00800           0
     34812 TIP3     5366     TIP3     OH2      OT      -0.834000       15.9994           0
     34813 TIP3     5366     TIP3     H1       HT       0.417000       1.00800           0
     34814 TIP3     5366     TIP3     H2       HT       0.417000       1.00800           0
     34815 TIP3     5367     TIP3     OH2      OT      -0.834000       15.9994           0
     34816 TIP3     5367     TIP3     H1       HT       0.417000       1.00800           0
     34817 TIP3     5367     TIP3     H2       HT       0.417000       1.00800           0
     34818 TIP3     5368     TIP3     OH2      OT      -0.834000       15.9994           0
     34819 TIP3     5368     TIP3     H1       HT       0.417000       1.00800           0
     34820 TIP3     5368     TIP3     H2       HT       0.417000       1.00800           0
     34821 TIP3     5369     TIP3     OH2      OT      -0.834000       15.9994           0
     34822 TIP3     5369     TIP3     H1       HT       0.417000       1.00800           0
     34823 TIP3     5369     TIP3     H2       HT       0.417000       1.00800           0
     34824 TIP3     5370     TIP3     OH2      OT      -0.834000       15.9994           0
     34825 TIP3     5370     TIP3     H1       HT       0.417000       1.00800           0
     34826 TIP3     5370     TIP3     H2       HT       0.417000       1.00800           0
     34827 TIP3     5371     TIP3     OH2      OT      -0.834000       15.9994           0
     34828 TIP3     5371     TIP3     H1       HT       0.417000       1.00800           0
     34829 TIP3     5371     TIP3     H2       HT       0.417000       1.00800           0
     34830 TIP3     5372     TIP3     OH2      OT      -0.834000       15.9994           0
     34831 TIP3     5372     TIP3     H1       HT       0.417000       1.00800           0
     34832 TIP3     5372     TIP3     H2       HT       0.417000       1.00800           0
     34833 TIP3     5373     TIP3     OH2      OT      -0.834000       15.9994           0
     34834 TIP3     5373     TIP3     H1       HT       0.417000       1.00800           0
     34835 TIP3     5373     TIP3     H2       HT       0.417000       1.00800           0
     34836 TIP3     5374     TIP3     OH2      OT      -0.834000       15.9994           0
     34837 TIP3     5374     TIP3     H1       HT       0.417000       1.00800           0
     34838 TIP3     5374     TIP3     H2       HT       0.417000       1.00800           0
     34839 TIP3     5375     TIP3     OH2      OT      -0.834000       15.9994           0
     34840 TIP3     5375     TIP3     H1       HT       0.417000       1.00800           0
     34841 TIP3     5375     TIP3     H2       HT       0.417000       1.00800           0
     34842 TIP3     5376     TIP3     OH2      OT      -0.834000       15.9994           0
     34843 TIP3     5376     TIP3     H1       HT       0.417000       1.00800           0
     34844 TIP3     5376     TIP3     H2       HT       0.417000       1.00800           0
     34845 TIP3     5377     TIP3     OH2      OT      -0.834000       15.9994           0
     34846 TIP3     5377     TIP3     H1       HT       0.417000       1.00800           0
     34847 TIP3     5377     TIP3     H2       HT       0.417000       1.00800           0
     34848 TIP3     5378     TIP3     OH2      OT      -0.834000       15.9994           0
     34849 TIP3     5378     TIP3     H1       HT       0.417000       1.00800           0
     34850 TIP3     5378     TIP3     H2       HT       0.417000       1.00800           0
     34851 TIP3     5379     TIP3     OH2      OT      -0.834000       15.9994           0
     34852 TIP3     5379     TIP3     H1       HT       0.417000       1.00800           0
     34853 TIP3     5379     TIP3     H2       HT       0.417000       1.00800           0
     34854 TIP3     5380     TIP3     OH2      OT      -0.834000       15.9994           0
     34855 TIP3     5380     TIP3     H1       HT       0.417000       1.00800           0
     34856 TIP3     5380     TIP3     H2       HT       0.417000       1.00800           0
     34857 TIP3     5381     TIP3     OH2      OT      -0.834000       15.9994           0
     34858 TIP3     5381     TIP3     H1       HT       0.417000       1.00800           0
     34859 TIP3     5381     TIP3     H2       HT       0.417000       1.00800           0
     34860 TIP3     5382     TIP3     OH2      OT      -0.834000       15.9994           0
     34861 TIP3     5382     TIP3     H1       HT       0.417000       1.00800           0
     34862 TIP3     5382     TIP3     H2       HT       0.417000       1.00800           0
     34863 TIP3     5383     TIP3     OH2      OT      -0.834000       15.9994           0
     34864 TIP3     5383     TIP3     H1       HT       0.417000       1.00800           0
     34865 TIP3     5383     TIP3     H2       HT       0.417000       1.00800           0
     34866 TIP3     5384     TIP3     OH2      OT      -0.834000       15.9994           0
     34867 TIP3     5384     TIP3     H1       HT       0.417000       1.00800           0
     34868 TIP3     5384     TIP3     H2       HT       0.417000       1.00800           0
     34869 TIP3     5385     TIP3     OH2      OT      -0.834000       15.9994           0
     34870 TIP3     5385     TIP3     H1       HT       0.417000       1.00800           0
     34871 TIP3     5385     TIP3     H2       HT       0.417000       1.00800           0
     34872 TIP3     5386     TIP3     OH2      OT      -0.834000       15.9994           0
     34873 TIP3     5386     TIP3     H1       HT       0.417000       1.00800           0
     34874 TIP3     5386     TIP3     H2       HT       0.417000       1.00800           0
     34875 TIP3     5387     TIP3     OH2      OT      -0.834000       15.9994           0
     34876 TIP3     5387     TIP3     H1       HT       0.417000       1.00800           0
     34877 TIP3     5387     TIP3     H2       HT       0.417000       1.00800           0
     34878 TIP3     5388     TIP3     OH2      OT      -0.834000       15.9994           0
     34879 TIP3     5388     TIP3     H1       HT       0.417000       1.00800           0
     34880 TIP3     5388     TIP3     H2       HT       0.417000       1.00800           0
     34881 TIP3     5389     TIP3     OH2      OT      -0.834000       15.9994           0
     34882 TIP3     5389     TIP3     H1       HT       0.417000       1.00800           0
     34883 TIP3     5389     TIP3     H2       HT       0.417000       1.00800           0
     34884 TIP3     5390     TIP3     OH2      OT      -0.834000       15.9994           0
     34885 TIP3     5390     TIP3     H1       HT       0.417000       1.00800           0
     34886 TIP3     5390     TIP3     H2       HT       0.417000       1.00800           0
     34887 TIP3     5391     TIP3     OH2      OT      -0.834000       15.9994           0
     34888 TIP3     5391     TIP3     H1       HT       0.417000       1.00800           0
     34889 TIP3     5391     TIP3     H2       HT       0.417000       1.00800           0
     34890 TIP3     5392     TIP3     OH2      OT      -0.834000       15.9994           0
     34891 TIP3     5392     TIP3     H1       HT       0.417000       1.00800           0
     34892 TIP3     5392     TIP3     H2       HT       0.417000       1.00800           0
     34893 TIP3     5393     TIP3     OH2      OT      -0.834000       15.9994           0
     34894 TIP3     5393     TIP3     H1       HT       0.417000       1.00800           0
     34895 TIP3     5393     TIP3     H2       HT       0.417000       1.00800           0
     34896 TIP3     5394     TIP3     OH2      OT      -0.834000       15.9994           0
     34897 TIP3     5394     TIP3     H1       HT       0.417000       1.00800           0
     34898 TIP3     5394     TIP3     H2       HT       0.417000       1.00800           0
     34899 TIP3     5395     TIP3     OH2      OT      -0.834000       15.9994           0
     34900 TIP3     5395     TIP3     H1       HT       0.417000       1.00800           0
     34901 TIP3     5395     TIP3     H2       HT       0.417000       1.00800           0
     34902 TIP3     5396     TIP3     OH2      OT      -0.834000       15.9994           0
     34903 TIP3     5396     TIP3     H1       HT       0.417000       1.00800           0
     34904 TIP3     5396     TIP3     H2       HT       0.417000       1.00800           0
     34905 TIP3     5397     TIP3     OH2      OT      -0.834000       15.9994           0
     34906 TIP3     5397     TIP3     H1       HT       0.417000       1.00800           0
     34907 TIP3     5397     TIP3     H2       HT       0.417000       1.00800           0
     34908 TIP3     5398     TIP3     OH2      OT      -0.834000       15.9994           0
     34909 TIP3     5398     TIP3     H1       HT       0.417000       1.00800           0
     34910 TIP3     5398     TIP3     H2       HT       0.417000       1.00800           0
     34911 TIP3     5399     TIP3     OH2      OT      -0.834000       15.9994           0
     34912 TIP3     5399     TIP3     H1       HT       0.417000       1.00800           0
     34913 TIP3     5399     TIP3     H2       HT       0.417000       1.00800           0
     34914 TIP3     5400     TIP3     OH2      OT      -0.834000       15.9994           0
     34915 TIP3     5400     TIP3     H1       HT       0.417000       1.00800           0
     34916 TIP3     5400     TIP3     H2       HT       0.417000       1.00800           0
     34917 TIP3     5401     TIP3     OH2      OT      -0.834000       15.9994           0
     34918 TIP3     5401     TIP3     H1       HT       0.417000       1.00800           0
     34919 TIP3     5401     TIP3     H2       HT       0.417000       1.00800           0
     34920 TIP3     5402     TIP3     OH2      OT      -0.834000       15.9994           0
     34921 TIP3     5402     TIP3     H1       HT       0.417000       1.00800           0
     34922 TIP3     5402     TIP3     H2       HT       0.417000       1.00800           0
     34923 TIP3     5403     TIP3     OH2      OT      -0.834000       15.9994           0
     34924 TIP3     5403     TIP3     H1       HT       0.417000       1.00800           0
     34925 TIP3     5403     TIP3     H2       HT       0.417000       1.00800           0
     34926 TIP3     5404     TIP3     OH2      OT      -0.834000       15.9994           0
     34927 TIP3     5404     TIP3     H1       HT       0.417000       1.00800           0
     34928 TIP3     5404     TIP3     H2       HT       0.417000       1.00800           0
     34929 TIP3     5405     TIP3     OH2      OT      -0.834000       15.9994           0
     34930 TIP3     5405     TIP3     H1       HT       0.417000       1.00800           0
     34931 TIP3     5405     TIP3     H2       HT       0.417000       1.00800           0
     34932 TIP3     5406     TIP3     OH2      OT      -0.834000       15.9994           0
     34933 TIP3     5406     TIP3     H1       HT       0.417000       1.00800           0
     34934 TIP3     5406     TIP3     H2       HT       0.417000       1.00800           0
     34935 TIP3     5407     TIP3     OH2      OT      -0.834000       15.9994           0
     34936 TIP3     5407     TIP3     H1       HT       0.417000       1.00800           0
     34937 TIP3     5407     TIP3     H2       HT       0.417000       1.00800           0
     34938 TIP3     5408     TIP3     OH2      OT      -0.834000       15.9994           0
     34939 TIP3     5408     TIP3     H1       HT       0.417000       1.00800           0
     34940 TIP3     5408     TIP3     H2       HT       0.417000       1.00800           0
     34941 TIP3     5409     TIP3     OH2      OT      -0.834000       15.9994           0
     34942 TIP3     5409     TIP3     H1       HT       0.417000       1.00800           0
     34943 TIP3     5409     TIP3     H2       HT       0.417000       1.00800           0
     34944 TIP3     5410     TIP3     OH2      OT      -0.834000       15.9994           0
     34945 TIP3     5410     TIP3     H1       HT       0.417000       1.00800           0
     34946 TIP3     5410     TIP3     H2       HT       0.417000       1.00800           0
     34947 TIP3     5411     TIP3     OH2      OT      -0.834000       15.9994           0
     34948 TIP3     5411     TIP3     H1       HT       0.417000       1.00800           0
     34949 TIP3     5411     TIP3     H2       HT       0.417000       1.00800           0
     34950 TIP3     5412     TIP3     OH2      OT      -0.834000       15.9994           0
     34951 TIP3     5412     TIP3     H1       HT       0.417000       1.00800           0
     34952 TIP3     5412     TIP3     H2       HT       0.417000       1.00800           0
     34953 TIP3     5413     TIP3     OH2      OT      -0.834000       15.9994           0
     34954 TIP3     5413     TIP3     H1       HT       0.417000       1.00800           0
     34955 TIP3     5413     TIP3     H2       HT       0.417000       1.00800           0
     34956 TIP3     5414     TIP3     OH2      OT      -0.834000       15.9994           0
     34957 TIP3     5414     TIP3     H1       HT       0.417000       1.00800           0
     34958 TIP3     5414     TIP3     H2       HT       0.417000       1.00800           0
     34959 TIP3     5415     TIP3     OH2      OT      -0.834000       15.9994           0
     34960 TIP3     5415     TIP3     H1       HT       0.417000       1.00800           0
     34961 TIP3     5415     TIP3     H2       HT       0.417000       1.00800           0
     34962 TIP3     5416     TIP3     OH2      OT      -0.834000       15.9994           0
     34963 TIP3     5416     TIP3     H1       HT       0.417000       1.00800           0
     34964 TIP3     5416     TIP3     H2       HT       0.417000       1.00800           0
     34965 TIP3     5417     TIP3     OH2      OT      -0.834000       15.9994           0
     34966 TIP3     5417     TIP3     H1       HT       0.417000       1.00800           0
     34967 TIP3     5417     TIP3     H2       HT       0.417000       1.00800           0
     34968 TIP3     5418     TIP3     OH2      OT      -0.834000       15.9994           0
     34969 TIP3     5418     TIP3     H1       HT       0.417000       1.00800           0
     34970 TIP3     5418     TIP3     H2       HT       0.417000       1.00800           0
     34971 TIP3     5419     TIP3     OH2      OT      -0.834000       15.9994           0
     34972 TIP3     5419     TIP3     H1       HT       0.417000       1.00800           0
     34973 TIP3     5419     TIP3     H2       HT       0.417000       1.00800           0
     34974 TIP3     5420     TIP3     OH2      OT      -0.834000       15.9994           0
     34975 TIP3     5420     TIP3     H1       HT       0.417000       1.00800           0
     34976 TIP3     5420     TIP3     H2       HT       0.417000       1.00800           0
     34977 TIP3     5421     TIP3     OH2      OT      -0.834000       15.9994           0
     34978 TIP3     5421     TIP3     H1       HT       0.417000       1.00800           0
     34979 TIP3     5421     TIP3     H2       HT       0.417000       1.00800           0
     34980 TIP3     5422     TIP3     OH2      OT      -0.834000       15.9994           0
     34981 TIP3     5422     TIP3     H1       HT       0.417000       1.00800           0
     34982 TIP3     5422     TIP3     H2       HT       0.417000       1.00800           0
     34983 TIP3     5423     TIP3     OH2      OT      -0.834000       15.9994           0
     34984 TIP3     5423     TIP3     H1       HT       0.417000       1.00800           0
     34985 TIP3     5423     TIP3     H2       HT       0.417000       1.00800           0
     34986 TIP3     5424     TIP3     OH2      OT      -0.834000       15.9994           0
     34987 TIP3     5424     TIP3     H1       HT       0.417000       1.00800           0
     34988 TIP3     5424     TIP3     H2       HT       0.417000       1.00800           0
     34989 TIP3     5425     TIP3     OH2      OT      -0.834000       15.9994           0
     34990 TIP3     5425     TIP3     H1       HT       0.417000       1.00800           0
     34991 TIP3     5425     TIP3     H2       HT       0.417000       1.00800           0
     34992 TIP3     5426     TIP3     OH2      OT      -0.834000       15.9994           0
     34993 TIP3     5426     TIP3     H1       HT       0.417000       1.00800           0
     34994 TIP3     5426     TIP3     H2       HT       0.417000       1.00800           0
     34995 TIP3     5427     TIP3     OH2      OT      -0.834000       15.9994           0
     34996 TIP3     5427     TIP3     H1       HT       0.417000       1.00800           0
     34997 TIP3     5427     TIP3     H2       HT       0.417000       1.00800           0
     34998 TIP3     5428     TIP3     OH2      OT      -0.834000       15.9994           0
     34999 TIP3     5428     TIP3     H1       HT       0.417000       1.00800           0
     35000 TIP3     5428     TIP3     H2       HT       0.417000       1.00800           0
     35001 TIP3     5429     TIP3     OH2      OT      -0.834000       15.9994           0
     35002 TIP3     5429     TIP3     H1       HT       0.417000       1.00800           0
     35003 TIP3     5429     TIP3     H2       HT       0.417000       1.00800           0
     35004 TIP3     5430     TIP3     OH2      OT      -0.834000       15.9994           0
     35005 TIP3     5430     TIP3     H1       HT       0.417000       1.00800           0
     35006 TIP3     5430     TIP3     H2       HT       0.417000       1.00800           0
     35007 TIP3     5431     TIP3     OH2      OT      -0.834000       15.9994           0
     35008 TIP3     5431     TIP3     H1       HT       0.417000       1.00800           0
     35009 TIP3     5431     TIP3     H2       HT       0.417000       1.00800           0
     35010 TIP3     5432     TIP3     OH2      OT      -0.834000       15.9994           0
     35011 TIP3     5432     TIP3     H1       HT       0.417000       1.00800           0
     35012 TIP3     5432     TIP3     H2       HT       0.417000       1.00800           0
     35013 TIP3     5433     TIP3     OH2      OT      -0.834000       15.9994           0
     35014 TIP3     5433     TIP3     H1       HT       0.417000       1.00800           0
     35015 TIP3     5433     TIP3     H2       HT       0.417000       1.00800           0
     35016 TIP3     5434     TIP3     OH2      OT      -0.834000       15.9994           0
     35017 TIP3     5434     TIP3     H1       HT       0.417000       1.00800           0
     35018 TIP3     5434     TIP3     H2       HT       0.417000       1.00800           0
     35019 TIP3     5435     TIP3     OH2      OT      -0.834000       15.9994           0
     35020 TIP3     5435     TIP3     H1       HT       0.417000       1.00800           0
     35021 TIP3     5435     TIP3     H2       HT       0.417000       1.00800           0
     35022 TIP3     5436     TIP3     OH2      OT      -0.834000       15.9994           0
     35023 TIP3     5436     TIP3     H1       HT       0.417000       1.00800           0
     35024 TIP3     5436     TIP3     H2       HT       0.417000       1.00800           0
     35025 TIP3     5437     TIP3     OH2      OT      -0.834000       15.9994           0
     35026 TIP3     5437     TIP3     H1       HT       0.417000       1.00800           0
     35027 TIP3     5437     TIP3     H2       HT       0.417000       1.00800           0
     35028 TIP3     5438     TIP3     OH2      OT      -0.834000       15.9994           0
     35029 TIP3     5438     TIP3     H1       HT       0.417000       1.00800           0
     35030 TIP3     5438     TIP3     H2       HT       0.417000       1.00800           0
     35031 TIP3     5439     TIP3     OH2      OT      -0.834000       15.9994           0
     35032 TIP3     5439     TIP3     H1       HT       0.417000       1.00800           0
     35033 TIP3     5439     TIP3     H2       HT       0.417000       1.00800           0
     35034 TIP3     5440     TIP3     OH2      OT      -0.834000       15.9994           0
     35035 TIP3     5440     TIP3     H1       HT       0.417000       1.00800           0
     35036 TIP3     5440     TIP3     H2       HT       0.417000       1.00800           0
     35037 TIP3     5441     TIP3     OH2      OT      -0.834000       15.9994           0
     35038 TIP3     5441     TIP3     H1       HT       0.417000       1.00800           0
     35039 TIP3     5441     TIP3     H2       HT       0.417000       1.00800           0
     35040 TIP3     5442     TIP3     OH2      OT      -0.834000       15.9994           0
     35041 TIP3     5442     TIP3     H1       HT       0.417000       1.00800           0
     35042 TIP3     5442     TIP3     H2       HT       0.417000       1.00800           0
     35043 TIP3     5443     TIP3     OH2      OT      -0.834000       15.9994           0
     35044 TIP3     5443     TIP3     H1       HT       0.417000       1.00800           0
     35045 TIP3     5443     TIP3     H2       HT       0.417000       1.00800           0
     35046 TIP3     5444     TIP3     OH2      OT      -0.834000       15.9994           0
     35047 TIP3     5444     TIP3     H1       HT       0.417000       1.00800           0
     35048 TIP3     5444     TIP3     H2       HT       0.417000       1.00800           0
     35049 TIP3     5445     TIP3     OH2      OT      -0.834000       15.9994           0
     35050 TIP3     5445     TIP3     H1       HT       0.417000       1.00800           0
     35051 TIP3     5445     TIP3     H2       HT       0.417000       1.00800           0
     35052 TIP3     5446     TIP3     OH2      OT      -0.834000       15.9994           0
     35053 TIP3     5446     TIP3     H1       HT       0.417000       1.00800           0
     35054 TIP3     5446     TIP3     H2       HT       0.417000       1.00800           0
     35055 TIP3     5447     TIP3     OH2      OT      -0.834000       15.9994           0
     35056 TIP3     5447     TIP3     H1       HT       0.417000       1.00800           0
     35057 TIP3     5447     TIP3     H2       HT       0.417000       1.00800           0
     35058 TIP3     5448     TIP3     OH2      OT      -0.834000       15.9994           0
     35059 TIP3     5448     TIP3     H1       HT       0.417000       1.00800           0
     35060 TIP3     5448     TIP3     H2       HT       0.417000       1.00800           0
     35061 TIP3     5449     TIP3     OH2      OT      -0.834000       15.9994           0
     35062 TIP3     5449     TIP3     H1       HT       0.417000       1.00800           0
     35063 TIP3     5449     TIP3     H2       HT       0.417000       1.00800           0
     35064 TIP3     5450     TIP3     OH2      OT      -0.834000       15.9994           0
     35065 TIP3     5450     TIP3     H1       HT       0.417000       1.00800           0
     35066 TIP3     5450     TIP3     H2       HT       0.417000       1.00800           0
     35067 TIP3     5451     TIP3     OH2      OT      -0.834000       15.9994           0
     35068 TIP3     5451     TIP3     H1       HT       0.417000       1.00800           0
     35069 TIP3     5451     TIP3     H2       HT       0.417000       1.00800           0
     35070 TIP3     5452     TIP3     OH2      OT      -0.834000       15.9994           0
     35071 TIP3     5452     TIP3     H1       HT       0.417000       1.00800           0
     35072 TIP3     5452     TIP3     H2       HT       0.417000       1.00800           0
     35073 TIP3     5453     TIP3     OH2      OT      -0.834000       15.9994           0
     35074 TIP3     5453     TIP3     H1       HT       0.417000       1.00800           0
     35075 TIP3     5453     TIP3     H2       HT       0.417000       1.00800           0
     35076 TIP3     5454     TIP3     OH2      OT      -0.834000       15.9994           0
     35077 TIP3     5454     TIP3     H1       HT       0.417000       1.00800           0
     35078 TIP3     5454     TIP3     H2       HT       0.417000       1.00800           0
     35079 TIP3     5455     TIP3     OH2      OT      -0.834000       15.9994           0
     35080 TIP3     5455     TIP3     H1       HT       0.417000       1.00800           0
     35081 TIP3     5455     TIP3     H2       HT       0.417000       1.00800           0
     35082 TIP3     5456     TIP3     OH2      OT      -0.834000       15.9994           0
     35083 TIP3     5456     TIP3     H1       HT       0.417000       1.00800           0
     35084 TIP3     5456     TIP3     H2       HT       0.417000       1.00800           0
     35085 TIP3     5457     TIP3     OH2      OT      -0.834000       15.9994           0
     35086 TIP3     5457     TIP3     H1       HT       0.417000       1.00800           0
     35087 TIP3     5457     TIP3     H2       HT       0.417000       1.00800           0
     35088 TIP3     5458     TIP3     OH2      OT      -0.834000       15.9994           0
     35089 TIP3     5458     TIP3     H1       HT       0.417000       1.00800           0
     35090 TIP3     5458     TIP3     H2       HT       0.417000       1.00800           0
     35091 TIP3     5459     TIP3     OH2      OT      -0.834000       15.9994           0
     35092 TIP3     5459     TIP3     H1       HT       0.417000       1.00800           0
     35093 TIP3     5459     TIP3     H2       HT       0.417000       1.00800           0
     35094 TIP3     5460     TIP3     OH2      OT      -0.834000       15.9994           0
     35095 TIP3     5460     TIP3     H1       HT       0.417000       1.00800           0
     35096 TIP3     5460     TIP3     H2       HT       0.417000       1.00800           0
     35097 TIP3     5461     TIP3     OH2      OT      -0.834000       15.9994           0
     35098 TIP3     5461     TIP3     H1       HT       0.417000       1.00800           0
     35099 TIP3     5461     TIP3     H2       HT       0.417000       1.00800           0
     35100 TIP3     5462     TIP3     OH2      OT      -0.834000       15.9994           0
     35101 TIP3     5462     TIP3     H1       HT       0.417000       1.00800           0
     35102 TIP3     5462     TIP3     H2       HT       0.417000       1.00800           0
     35103 TIP3     5463     TIP3     OH2      OT      -0.834000       15.9994           0
     35104 TIP3     5463     TIP3     H1       HT       0.417000       1.00800           0
     35105 TIP3     5463     TIP3     H2       HT       0.417000       1.00800           0
     35106 TIP3     5464     TIP3     OH2      OT      -0.834000       15.9994           0
     35107 TIP3     5464     TIP3     H1       HT       0.417000       1.00800           0
     35108 TIP3     5464     TIP3     H2       HT       0.417000       1.00800           0
     35109 TIP3     5465     TIP3     OH2      OT      -0.834000       15.9994           0
     35110 TIP3     5465     TIP3     H1       HT       0.417000       1.00800           0
     35111 TIP3     5465     TIP3     H2       HT       0.417000       1.00800           0
     35112 TIP3     5466     TIP3     OH2      OT      -0.834000       15.9994           0
     35113 TIP3     5466     TIP3     H1       HT       0.417000       1.00800           0
     35114 TIP3     5466     TIP3     H2       HT       0.417000       1.00800           0
     35115 TIP3     5467     TIP3     OH2      OT      -0.834000       15.9994           0
     35116 TIP3     5467     TIP3     H1       HT       0.417000       1.00800           0
     35117 TIP3     5467     TIP3     H2       HT       0.417000       1.00800           0
     35118 TIP3     5468     TIP3     OH2      OT      -0.834000       15.9994           0
     35119 TIP3     5468     TIP3     H1       HT       0.417000       1.00800           0
     35120 TIP3     5468     TIP3     H2       HT       0.417000       1.00800           0
     35121 TIP3     5469     TIP3     OH2      OT      -0.834000       15.9994           0
     35122 TIP3     5469     TIP3     H1       HT       0.417000       1.00800           0
     35123 TIP3     5469     TIP3     H2       HT       0.417000       1.00800           0
     35124 TIP3     5470     TIP3     OH2      OT      -0.834000       15.9994           0
     35125 TIP3     5470     TIP3     H1       HT       0.417000       1.00800           0
     35126 TIP3     5470     TIP3     H2       HT       0.417000       1.00800           0
     35127 TIP3     5471     TIP3     OH2      OT      -0.834000       15.9994           0
     35128 TIP3     5471     TIP3     H1       HT       0.417000       1.00800           0
     35129 TIP3     5471     TIP3     H2       HT       0.417000       1.00800           0
     35130 TIP3     5472     TIP3     OH2      OT      -0.834000       15.9994           0
     35131 TIP3     5472     TIP3     H1       HT       0.417000       1.00800           0
     35132 TIP3     5472     TIP3     H2       HT       0.417000       1.00800           0
     35133 TIP3     5473     TIP3     OH2      OT      -0.834000       15.9994           0
     35134 TIP3     5473     TIP3     H1       HT       0.417000       1.00800           0
     35135 TIP3     5473     TIP3     H2       HT       0.417000       1.00800           0
     35136 TIP3     5474     TIP3     OH2      OT      -0.834000       15.9994           0
     35137 TIP3     5474     TIP3     H1       HT       0.417000       1.00800           0
     35138 TIP3     5474     TIP3     H2       HT       0.417000       1.00800           0
     35139 TIP3     5475     TIP3     OH2      OT      -0.834000       15.9994           0
     35140 TIP3     5475     TIP3     H1       HT       0.417000       1.00800           0
     35141 TIP3     5475     TIP3     H2       HT       0.417000       1.00800           0
     35142 TIP3     5476     TIP3     OH2      OT      -0.834000       15.9994           0
     35143 TIP3     5476     TIP3     H1       HT       0.417000       1.00800           0
     35144 TIP3     5476     TIP3     H2       HT       0.417000       1.00800           0
     35145 TIP3     5477     TIP3     OH2      OT      -0.834000       15.9994           0
     35146 TIP3     5477     TIP3     H1       HT       0.417000       1.00800           0
     35147 TIP3     5477     TIP3     H2       HT       0.417000       1.00800           0
     35148 TIP3     5478     TIP3     OH2      OT      -0.834000       15.9994           0
     35149 TIP3     5478     TIP3     H1       HT       0.417000       1.00800           0
     35150 TIP3     5478     TIP3     H2       HT       0.417000       1.00800           0
     35151 TIP3     5479     TIP3     OH2      OT      -0.834000       15.9994           0
     35152 TIP3     5479     TIP3     H1       HT       0.417000       1.00800           0
     35153 TIP3     5479     TIP3     H2       HT       0.417000       1.00800           0
     35154 TIP3     5480     TIP3     OH2      OT      -0.834000       15.9994           0
     35155 TIP3     5480     TIP3     H1       HT       0.417000       1.00800           0
     35156 TIP3     5480     TIP3     H2       HT       0.417000       1.00800           0
     35157 TIP3     5481     TIP3     OH2      OT      -0.834000       15.9994           0
     35158 TIP3     5481     TIP3     H1       HT       0.417000       1.00800           0
     35159 TIP3     5481     TIP3     H2       HT       0.417000       1.00800           0
     35160 TIP3     5482     TIP3     OH2      OT      -0.834000       15.9994           0
     35161 TIP3     5482     TIP3     H1       HT       0.417000       1.00800           0
     35162 TIP3     5482     TIP3     H2       HT       0.417000       1.00800           0
     35163 TIP3     5483     TIP3     OH2      OT      -0.834000       15.9994           0
     35164 TIP3     5483     TIP3     H1       HT       0.417000       1.00800           0
     35165 TIP3     5483     TIP3     H2       HT       0.417000       1.00800           0
     35166 TIP3     5484     TIP3     OH2      OT      -0.834000       15.9994           0
     35167 TIP3     5484     TIP3     H1       HT       0.417000       1.00800           0
     35168 TIP3     5484     TIP3     H2       HT       0.417000       1.00800           0
     35169 TIP3     5485     TIP3     OH2      OT      -0.834000       15.9994           0
     35170 TIP3     5485     TIP3     H1       HT       0.417000       1.00800           0
     35171 TIP3     5485     TIP3     H2       HT       0.417000       1.00800           0
     35172 TIP3     5486     TIP3     OH2      OT      -0.834000       15.9994           0
     35173 TIP3     5486     TIP3     H1       HT       0.417000       1.00800           0
     35174 TIP3     5486     TIP3     H2       HT       0.417000       1.00800           0
     35175 TIP3     5487     TIP3     OH2      OT      -0.834000       15.9994           0
     35176 TIP3     5487     TIP3     H1       HT       0.417000       1.00800           0
     35177 TIP3     5487     TIP3     H2       HT       0.417000       1.00800           0
     35178 TIP3     5488     TIP3     OH2      OT      -0.834000       15.9994           0
     35179 TIP3     5488     TIP3     H1       HT       0.417000       1.00800           0
     35180 TIP3     5488     TIP3     H2       HT       0.417000       1.00800           0
     35181 TIP3     5489     TIP3     OH2      OT      -0.834000       15.9994           0
     35182 TIP3     5489     TIP3     H1       HT       0.417000       1.00800           0
     35183 TIP3     5489     TIP3     H2       HT       0.417000       1.00800           0
     35184 TIP3     5490     TIP3     OH2      OT      -0.834000       15.9994           0
     35185 TIP3     5490     TIP3     H1       HT       0.417000       1.00800           0
     35186 TIP3     5490     TIP3     H2       HT       0.417000       1.00800           0
     35187 TIP3     5491     TIP3     OH2      OT      -0.834000       15.9994           0
     35188 TIP3     5491     TIP3     H1       HT       0.417000       1.00800           0
     35189 TIP3     5491     TIP3     H2       HT       0.417000       1.00800           0
     35190 TIP3     5492     TIP3     OH2      OT      -0.834000       15.9994           0
     35191 TIP3     5492     TIP3     H1       HT       0.417000       1.00800           0
     35192 TIP3     5492     TIP3     H2       HT       0.417000       1.00800           0
     35193 TIP3     5493     TIP3     OH2      OT      -0.834000       15.9994           0
     35194 TIP3     5493     TIP3     H1       HT       0.417000       1.00800           0
     35195 TIP3     5493     TIP3     H2       HT       0.417000       1.00800           0
     35196 TIP3     5494     TIP3     OH2      OT      -0.834000       15.9994           0
     35197 TIP3     5494     TIP3     H1       HT       0.417000       1.00800           0
     35198 TIP3     5494     TIP3     H2       HT       0.417000       1.00800           0
     35199 TIP3     5495     TIP3     OH2      OT      -0.834000       15.9994           0
     35200 TIP3     5495     TIP3     H1       HT       0.417000       1.00800           0
     35201 TIP3     5495     TIP3     H2       HT       0.417000       1.00800           0
     35202 TIP3     5496     TIP3     OH2      OT      -0.834000       15.9994           0
     35203 TIP3     5496     TIP3     H1       HT       0.417000       1.00800           0
     35204 TIP3     5496     TIP3     H2       HT       0.417000       1.00800           0
     35205 TIP3     5497     TIP3     OH2      OT      -0.834000       15.9994           0
     35206 TIP3     5497     TIP3     H1       HT       0.417000       1.00800           0
     35207 TIP3     5497     TIP3     H2       HT       0.417000       1.00800           0
     35208 TIP3     5498     TIP3     OH2      OT      -0.834000       15.9994           0
     35209 TIP3     5498     TIP3     H1       HT       0.417000       1.00800           0
     35210 TIP3     5498     TIP3     H2       HT       0.417000       1.00800           0
     35211 TIP3     5499     TIP3     OH2      OT      -0.834000       15.9994           0
     35212 TIP3     5499     TIP3     H1       HT       0.417000       1.00800           0
     35213 TIP3     5499     TIP3     H2       HT       0.417000       1.00800           0
     35214 TIP3     5500     TIP3     OH2      OT      -0.834000       15.9994           0
     35215 TIP3     5500     TIP3     H1       HT       0.417000       1.00800           0
     35216 TIP3     5500     TIP3     H2       HT       0.417000       1.00800           0
     35217 TIP3     5501     TIP3     OH2      OT      -0.834000       15.9994           0
     35218 TIP3     5501     TIP3     H1       HT       0.417000       1.00800           0
     35219 TIP3     5501     TIP3     H2       HT       0.417000       1.00800           0
     35220 TIP3     5502     TIP3     OH2      OT      -0.834000       15.9994           0
     35221 TIP3     5502     TIP3     H1       HT       0.417000       1.00800           0
     35222 TIP3     5502     TIP3     H2       HT       0.417000       1.00800           0
     35223 TIP3     5503     TIP3     OH2      OT      -0.834000       15.9994           0
     35224 TIP3     5503     TIP3     H1       HT       0.417000       1.00800           0
     35225 TIP3     5503     TIP3     H2       HT       0.417000       1.00800           0
     35226 TIP3     5504     TIP3     OH2      OT      -0.834000       15.9994           0
     35227 TIP3     5504     TIP3     H1       HT       0.417000       1.00800           0
     35228 TIP3     5504     TIP3     H2       HT       0.417000       1.00800           0
     35229 TIP3     5505     TIP3     OH2      OT      -0.834000       15.9994           0
     35230 TIP3     5505     TIP3     H1       HT       0.417000       1.00800           0
     35231 TIP3     5505     TIP3     H2       HT       0.417000       1.00800           0
     35232 TIP3     5506     TIP3     OH2      OT      -0.834000       15.9994           0
     35233 TIP3     5506     TIP3     H1       HT       0.417000       1.00800           0
     35234 TIP3     5506     TIP3     H2       HT       0.417000       1.00800           0
     35235 TIP3     5507     TIP3     OH2      OT      -0.834000       15.9994           0
     35236 TIP3     5507     TIP3     H1       HT       0.417000       1.00800           0
     35237 TIP3     5507     TIP3     H2       HT       0.417000       1.00800           0
     35238 TIP3     5508     TIP3     OH2      OT      -0.834000       15.9994           0
     35239 TIP3     5508     TIP3     H1       HT       0.417000       1.00800           0
     35240 TIP3     5508     TIP3     H2       HT       0.417000       1.00800           0
     35241 TIP3     5509     TIP3     OH2      OT      -0.834000       15.9994           0
     35242 TIP3     5509     TIP3     H1       HT       0.417000       1.00800           0
     35243 TIP3     5509     TIP3     H2       HT       0.417000       1.00800           0
     35244 TIP3     5510     TIP3     OH2      OT      -0.834000       15.9994           0
     35245 TIP3     5510     TIP3     H1       HT       0.417000       1.00800           0
     35246 TIP3     5510     TIP3     H2       HT       0.417000       1.00800           0
     35247 TIP3     5511     TIP3     OH2      OT      -0.834000       15.9994           0
     35248 TIP3     5511     TIP3     H1       HT       0.417000       1.00800           0
     35249 TIP3     5511     TIP3     H2       HT       0.417000       1.00800           0
     35250 TIP3     5512     TIP3     OH2      OT      -0.834000       15.9994           0
     35251 TIP3     5512     TIP3     H1       HT       0.417000       1.00800           0
     35252 TIP3     5512     TIP3     H2       HT       0.417000       1.00800           0
     35253 TIP3     5513     TIP3     OH2      OT      -0.834000       15.9994           0
     35254 TIP3     5513     TIP3     H1       HT       0.417000       1.00800           0
     35255 TIP3     5513     TIP3     H2       HT       0.417000       1.00800           0
     35256 TIP3     5514     TIP3     OH2      OT      -0.834000       15.9994           0
     35257 TIP3     5514     TIP3     H1       HT       0.417000       1.00800           0
     35258 TIP3     5514     TIP3     H2       HT       0.417000       1.00800           0
     35259 TIP3     5515     TIP3     OH2      OT      -0.834000       15.9994           0
     35260 TIP3     5515     TIP3     H1       HT       0.417000       1.00800           0
     35261 TIP3     5515     TIP3     H2       HT       0.417000       1.00800           0
     35262 TIP3     5516     TIP3     OH2      OT      -0.834000       15.9994           0
     35263 TIP3     5516     TIP3     H1       HT       0.417000       1.00800           0
     35264 TIP3     5516     TIP3     H2       HT       0.417000       1.00800           0
     35265 TIP3     5517     TIP3     OH2      OT      -0.834000       15.9994           0
     35266 TIP3     5517     TIP3     H1       HT       0.417000       1.00800           0
     35267 TIP3     5517     TIP3     H2       HT       0.417000       1.00800           0
     35268 TIP3     5518     TIP3     OH2      OT      -0.834000       15.9994           0
     35269 TIP3     5518     TIP3     H1       HT       0.417000       1.00800           0
     35270 TIP3     5518     TIP3     H2       HT       0.417000       1.00800           0
     35271 TIP3     5519     TIP3     OH2      OT      -0.834000       15.9994           0
     35272 TIP3     5519     TIP3     H1       HT       0.417000       1.00800           0
     35273 TIP3     5519     TIP3     H2       HT       0.417000       1.00800           0
     35274 TIP3     5520     TIP3     OH2      OT      -0.834000       15.9994           0
     35275 TIP3     5520     TIP3     H1       HT       0.417000       1.00800           0
     35276 TIP3     5520     TIP3     H2       HT       0.417000       1.00800           0
     35277 TIP3     5521     TIP3     OH2      OT      -0.834000       15.9994           0
     35278 TIP3     5521     TIP3     H1       HT       0.417000       1.00800           0
     35279 TIP3     5521     TIP3     H2       HT       0.417000       1.00800           0
     35280 TIP3     5522     TIP3     OH2      OT      -0.834000       15.9994           0
     35281 TIP3     5522     TIP3     H1       HT       0.417000       1.00800           0
     35282 TIP3     5522     TIP3     H2       HT       0.417000       1.00800           0
     35283 TIP3     5523     TIP3     OH2      OT      -0.834000       15.9994           0
     35284 TIP3     5523     TIP3     H1       HT       0.417000       1.00800           0
     35285 TIP3     5523     TIP3     H2       HT       0.417000       1.00800           0
     35286 TIP3     5524     TIP3     OH2      OT      -0.834000       15.9994           0
     35287 TIP3     5524     TIP3     H1       HT       0.417000       1.00800           0
     35288 TIP3     5524     TIP3     H2       HT       0.417000       1.00800           0
     35289 TIP3     5525     TIP3     OH2      OT      -0.834000       15.9994           0
     35290 TIP3     5525     TIP3     H1       HT       0.417000       1.00800           0
     35291 TIP3     5525     TIP3     H2       HT       0.417000       1.00800           0
     35292 TIP3     5526     TIP3     OH2      OT      -0.834000       15.9994           0
     35293 TIP3     5526     TIP3     H1       HT       0.417000       1.00800           0
     35294 TIP3     5526     TIP3     H2       HT       0.417000       1.00800           0
     35295 TIP3     5527     TIP3     OH2      OT      -0.834000       15.9994           0
     35296 TIP3     5527     TIP3     H1       HT       0.417000       1.00800           0
     35297 TIP3     5527     TIP3     H2       HT       0.417000       1.00800           0
     35298 TIP3     5528     TIP3     OH2      OT      -0.834000       15.9994           0
     35299 TIP3     5528     TIP3     H1       HT       0.417000       1.00800           0
     35300 TIP3     5528     TIP3     H2       HT       0.417000       1.00800           0
     35301 TIP3     5529     TIP3     OH2      OT      -0.834000       15.9994           0
     35302 TIP3     5529     TIP3     H1       HT       0.417000       1.00800           0
     35303 TIP3     5529     TIP3     H2       HT       0.417000       1.00800           0
     35304 TIP3     5530     TIP3     OH2      OT      -0.834000       15.9994           0
     35305 TIP3     5530     TIP3     H1       HT       0.417000       1.00800           0
     35306 TIP3     5530     TIP3     H2       HT       0.417000       1.00800           0
     35307 TIP3     5531     TIP3     OH2      OT      -0.834000       15.9994           0
     35308 TIP3     5531     TIP3     H1       HT       0.417000       1.00800           0
     35309 TIP3     5531     TIP3     H2       HT       0.417000       1.00800           0
     35310 TIP3     5532     TIP3     OH2      OT      -0.834000       15.9994           0
     35311 TIP3     5532     TIP3     H1       HT       0.417000       1.00800           0
     35312 TIP3     5532     TIP3     H2       HT       0.417000       1.00800           0
     35313 TIP3     5533     TIP3     OH2      OT      -0.834000       15.9994           0
     35314 TIP3     5533     TIP3     H1       HT       0.417000       1.00800           0
     35315 TIP3     5533     TIP3     H2       HT       0.417000       1.00800           0
     35316 TIP3     5534     TIP3     OH2      OT      -0.834000       15.9994           0
     35317 TIP3     5534     TIP3     H1       HT       0.417000       1.00800           0
     35318 TIP3     5534     TIP3     H2       HT       0.417000       1.00800           0
     35319 TIP3     5535     TIP3     OH2      OT      -0.834000       15.9994           0
     35320 TIP3     5535     TIP3     H1       HT       0.417000       1.00800           0
     35321 TIP3     5535     TIP3     H2       HT       0.417000       1.00800           0
     35322 TIP3     5536     TIP3     OH2      OT      -0.834000       15.9994           0
     35323 TIP3     5536     TIP3     H1       HT       0.417000       1.00800           0
     35324 TIP3     5536     TIP3     H2       HT       0.417000       1.00800           0
     35325 TIP3     5537     TIP3     OH2      OT      -0.834000       15.9994           0
     35326 TIP3     5537     TIP3     H1       HT       0.417000       1.00800           0
     35327 TIP3     5537     TIP3     H2       HT       0.417000       1.00800           0
     35328 TIP3     5538     TIP3     OH2      OT      -0.834000       15.9994           0
     35329 TIP3     5538     TIP3     H1       HT       0.417000       1.00800           0
     35330 TIP3     5538     TIP3     H2       HT       0.417000       1.00800           0
     35331 TIP3     5539     TIP3     OH2      OT      -0.834000       15.9994           0
     35332 TIP3     5539     TIP3     H1       HT       0.417000       1.00800           0
     35333 TIP3     5539     TIP3     H2       HT       0.417000       1.00800           0
     35334 TIP3     5540     TIP3     OH2      OT      -0.834000       15.9994           0
     35335 TIP3     5540     TIP3     H1       HT       0.417000       1.00800           0
     35336 TIP3     5540     TIP3     H2       HT       0.417000       1.00800           0
     35337 TIP3     5541     TIP3     OH2      OT      -0.834000       15.9994           0
     35338 TIP3     5541     TIP3     H1       HT       0.417000       1.00800           0
     35339 TIP3     5541     TIP3     H2       HT       0.417000       1.00800           0
     35340 TIP3     5542     TIP3     OH2      OT      -0.834000       15.9994           0
     35341 TIP3     5542     TIP3     H1       HT       0.417000       1.00800           0
     35342 TIP3     5542     TIP3     H2       HT       0.417000       1.00800           0
     35343 TIP3     5543     TIP3     OH2      OT      -0.834000       15.9994           0
     35344 TIP3     5543     TIP3     H1       HT       0.417000       1.00800           0
     35345 TIP3     5543     TIP3     H2       HT       0.417000       1.00800           0
     35346 TIP3     5544     TIP3     OH2      OT      -0.834000       15.9994           0
     35347 TIP3     5544     TIP3     H1       HT       0.417000       1.00800           0
     35348 TIP3     5544     TIP3     H2       HT       0.417000       1.00800           0
     35349 TIP3     5545     TIP3     OH2      OT      -0.834000       15.9994           0
     35350 TIP3     5545     TIP3     H1       HT       0.417000       1.00800           0
     35351 TIP3     5545     TIP3     H2       HT       0.417000       1.00800           0
     35352 TIP3     5546     TIP3     OH2      OT      -0.834000       15.9994           0
     35353 TIP3     5546     TIP3     H1       HT       0.417000       1.00800           0
     35354 TIP3     5546     TIP3     H2       HT       0.417000       1.00800           0
     35355 TIP3     5547     TIP3     OH2      OT      -0.834000       15.9994           0
     35356 TIP3     5547     TIP3     H1       HT       0.417000       1.00800           0
     35357 TIP3     5547     TIP3     H2       HT       0.417000       1.00800           0
     35358 TIP3     5548     TIP3     OH2      OT      -0.834000       15.9994           0
     35359 TIP3     5548     TIP3     H1       HT       0.417000       1.00800           0
     35360 TIP3     5548     TIP3     H2       HT       0.417000       1.00800           0
     35361 TIP3     5549     TIP3     OH2      OT      -0.834000       15.9994           0
     35362 TIP3     5549     TIP3     H1       HT       0.417000       1.00800           0
     35363 TIP3     5549     TIP3     H2       HT       0.417000       1.00800           0
     35364 TIP3     5550     TIP3     OH2      OT      -0.834000       15.9994           0
     35365 TIP3     5550     TIP3     H1       HT       0.417000       1.00800           0
     35366 TIP3     5550     TIP3     H2       HT       0.417000       1.00800           0
     35367 TIP3     5551     TIP3     OH2      OT      -0.834000       15.9994           0
     35368 TIP3     5551     TIP3     H1       HT       0.417000       1.00800           0
     35369 TIP3     5551     TIP3     H2       HT       0.417000       1.00800           0
     35370 TIP3     5552     TIP3     OH2      OT      -0.834000       15.9994           0
     35371 TIP3     5552     TIP3     H1       HT       0.417000       1.00800           0
     35372 TIP3     5552     TIP3     H2       HT       0.417000       1.00800           0
     35373 TIP3     5553     TIP3     OH2      OT      -0.834000       15.9994           0
     35374 TIP3     5553     TIP3     H1       HT       0.417000       1.00800           0
     35375 TIP3     5553     TIP3     H2       HT       0.417000       1.00800           0
     35376 TIP3     5554     TIP3     OH2      OT      -0.834000       15.9994           0
     35377 TIP3     5554     TIP3     H1       HT       0.417000       1.00800           0
     35378 TIP3     5554     TIP3     H2       HT       0.417000       1.00800           0
     35379 TIP3     5555     TIP3     OH2      OT      -0.834000       15.9994           0
     35380 TIP3     5555     TIP3     H1       HT       0.417000       1.00800           0
     35381 TIP3     5555     TIP3     H2       HT       0.417000       1.00800           0
     35382 TIP3     5556     TIP3     OH2      OT      -0.834000       15.9994           0
     35383 TIP3     5556     TIP3     H1       HT       0.417000       1.00800           0
     35384 TIP3     5556     TIP3     H2       HT       0.417000       1.00800           0
     35385 TIP3     5557     TIP3     OH2      OT      -0.834000       15.9994           0
     35386 TIP3     5557     TIP3     H1       HT       0.417000       1.00800           0
     35387 TIP3     5557     TIP3     H2       HT       0.417000       1.00800           0
     35388 TIP3     5558     TIP3     OH2      OT      -0.834000       15.9994           0
     35389 TIP3     5558     TIP3     H1       HT       0.417000       1.00800           0
     35390 TIP3     5558     TIP3     H2       HT       0.417000       1.00800           0
     35391 TIP3     5559     TIP3     OH2      OT      -0.834000       15.9994           0
     35392 TIP3     5559     TIP3     H1       HT       0.417000       1.00800           0
     35393 TIP3     5559     TIP3     H2       HT       0.417000       1.00800           0
     35394 TIP3     5560     TIP3     OH2      OT      -0.834000       15.9994           0
     35395 TIP3     5560     TIP3     H1       HT       0.417000       1.00800           0
     35396 TIP3     5560     TIP3     H2       HT       0.417000       1.00800           0
     35397 TIP3     5561     TIP3     OH2      OT      -0.834000       15.9994           0
     35398 TIP3     5561     TIP3     H1       HT       0.417000       1.00800           0
     35399 TIP3     5561     TIP3     H2       HT       0.417000       1.00800           0
     35400 TIP3     5562     TIP3     OH2      OT      -0.834000       15.9994           0
     35401 TIP3     5562     TIP3     H1       HT       0.417000       1.00800           0
     35402 TIP3     5562     TIP3     H2       HT       0.417000       1.00800           0
     35403 TIP3     5563     TIP3     OH2      OT      -0.834000       15.9994           0
     35404 TIP3     5563     TIP3     H1       HT       0.417000       1.00800           0
     35405 TIP3     5563     TIP3     H2       HT       0.417000       1.00800           0
     35406 TIP3     5564     TIP3     OH2      OT      -0.834000       15.9994           0
     35407 TIP3     5564     TIP3     H1       HT       0.417000       1.00800           0
     35408 TIP3     5564     TIP3     H2       HT       0.417000       1.00800           0
     35409 TIP3     5565     TIP3     OH2      OT      -0.834000       15.9994           0
     35410 TIP3     5565     TIP3     H1       HT       0.417000       1.00800           0
     35411 TIP3     5565     TIP3     H2       HT       0.417000       1.00800           0
     35412 TIP3     5566     TIP3     OH2      OT      -0.834000       15.9994           0
     35413 TIP3     5566     TIP3     H1       HT       0.417000       1.00800           0
     35414 TIP3     5566     TIP3     H2       HT       0.417000       1.00800           0
     35415 TIP3     5567     TIP3     OH2      OT      -0.834000       15.9994           0
     35416 TIP3     5567     TIP3     H1       HT       0.417000       1.00800           0
     35417 TIP3     5567     TIP3     H2       HT       0.417000       1.00800           0
     35418 TIP3     5568     TIP3     OH2      OT      -0.834000       15.9994           0
     35419 TIP3     5568     TIP3     H1       HT       0.417000       1.00800           0
     35420 TIP3     5568     TIP3     H2       HT       0.417000       1.00800           0
     35421 TIP3     5569     TIP3     OH2      OT      -0.834000       15.9994           0
     35422 TIP3     5569     TIP3     H1       HT       0.417000       1.00800           0
     35423 TIP3     5569     TIP3     H2       HT       0.417000       1.00800           0
     35424 TIP3     5570     TIP3     OH2      OT      -0.834000       15.9994           0
     35425 TIP3     5570     TIP3     H1       HT       0.417000       1.00800           0
     35426 TIP3     5570     TIP3     H2       HT       0.417000       1.00800           0
     35427 TIP3     5571     TIP3     OH2      OT      -0.834000       15.9994           0
     35428 TIP3     5571     TIP3     H1       HT       0.417000       1.00800           0
     35429 TIP3     5571     TIP3     H2       HT       0.417000       1.00800           0
     35430 TIP3     5572     TIP3     OH2      OT      -0.834000       15.9994           0
     35431 TIP3     5572     TIP3     H1       HT       0.417000       1.00800           0
     35432 TIP3     5572     TIP3     H2       HT       0.417000       1.00800           0
     35433 TIP3     5573     TIP3     OH2      OT      -0.834000       15.9994           0
     35434 TIP3     5573     TIP3     H1       HT       0.417000       1.00800           0
     35435 TIP3     5573     TIP3     H2       HT       0.417000       1.00800           0
     35436 TIP3     5574     TIP3     OH2      OT      -0.834000       15.9994           0
     35437 TIP3     5574     TIP3     H1       HT       0.417000       1.00800           0
     35438 TIP3     5574     TIP3     H2       HT       0.417000       1.00800           0
     35439 TIP3     5575     TIP3     OH2      OT      -0.834000       15.9994           0
     35440 TIP3     5575     TIP3     H1       HT       0.417000       1.00800           0
     35441 TIP3     5575     TIP3     H2       HT       0.417000       1.00800           0
     35442 TIP3     5576     TIP3     OH2      OT      -0.834000       15.9994           0
     35443 TIP3     5576     TIP3     H1       HT       0.417000       1.00800           0
     35444 TIP3     5576     TIP3     H2       HT       0.417000       1.00800           0
     35445 TIP3     5577     TIP3     OH2      OT      -0.834000       15.9994           0
     35446 TIP3     5577     TIP3     H1       HT       0.417000       1.00800           0
     35447 TIP3     5577     TIP3     H2       HT       0.417000       1.00800           0
     35448 TIP3     5578     TIP3     OH2      OT      -0.834000       15.9994           0
     35449 TIP3     5578     TIP3     H1       HT       0.417000       1.00800           0
     35450 TIP3     5578     TIP3     H2       HT       0.417000       1.00800           0
     35451 TIP3     5579     TIP3     OH2      OT      -0.834000       15.9994           0
     35452 TIP3     5579     TIP3     H1       HT       0.417000       1.00800           0
     35453 TIP3     5579     TIP3     H2       HT       0.417000       1.00800           0
     35454 TIP3     5580     TIP3     OH2      OT      -0.834000       15.9994           0
     35455 TIP3     5580     TIP3     H1       HT       0.417000       1.00800           0
     35456 TIP3     5580     TIP3     H2       HT       0.417000       1.00800           0
     35457 TIP3     5581     TIP3     OH2      OT      -0.834000       15.9994           0
     35458 TIP3     5581     TIP3     H1       HT       0.417000       1.00800           0
     35459 TIP3     5581     TIP3     H2       HT       0.417000       1.00800           0
     35460 TIP3     5582     TIP3     OH2      OT      -0.834000       15.9994           0
     35461 TIP3     5582     TIP3     H1       HT       0.417000       1.00800           0
     35462 TIP3     5582     TIP3     H2       HT       0.417000       1.00800           0
     35463 TIP3     5583     TIP3     OH2      OT      -0.834000       15.9994           0
     35464 TIP3     5583     TIP3     H1       HT       0.417000       1.00800           0
     35465 TIP3     5583     TIP3     H2       HT       0.417000       1.00800           0
     35466 TIP3     5584     TIP3     OH2      OT      -0.834000       15.9994           0
     35467 TIP3     5584     TIP3     H1       HT       0.417000       1.00800           0
     35468 TIP3     5584     TIP3     H2       HT       0.417000       1.00800           0
     35469 TIP3     5585     TIP3     OH2      OT      -0.834000       15.9994           0
     35470 TIP3     5585     TIP3     H1       HT       0.417000       1.00800           0
     35471 TIP3     5585     TIP3     H2       HT       0.417000       1.00800           0
     35472 TIP3     5586     TIP3     OH2      OT      -0.834000       15.9994           0
     35473 TIP3     5586     TIP3     H1       HT       0.417000       1.00800           0
     35474 TIP3     5586     TIP3     H2       HT       0.417000       1.00800           0
     35475 TIP3     5587     TIP3     OH2      OT      -0.834000       15.9994           0
     35476 TIP3     5587     TIP3     H1       HT       0.417000       1.00800           0
     35477 TIP3     5587     TIP3     H2       HT       0.417000       1.00800           0
     35478 TIP3     5588     TIP3     OH2      OT      -0.834000       15.9994           0
     35479 TIP3     5588     TIP3     H1       HT       0.417000       1.00800           0
     35480 TIP3     5588     TIP3     H2       HT       0.417000       1.00800           0
     35481 TIP3     5589     TIP3     OH2      OT      -0.834000       15.9994           0
     35482 TIP3     5589     TIP3     H1       HT       0.417000       1.00800           0
     35483 TIP3     5589     TIP3     H2       HT       0.417000       1.00800           0
     35484 TIP3     5590     TIP3     OH2      OT      -0.834000       15.9994           0
     35485 TIP3     5590     TIP3     H1       HT       0.417000       1.00800           0
     35486 TIP3     5590     TIP3     H2       HT       0.417000       1.00800           0
     35487 TIP3     5591     TIP3     OH2      OT      -0.834000       15.9994           0
     35488 TIP3     5591     TIP3     H1       HT       0.417000       1.00800           0
     35489 TIP3     5591     TIP3     H2       HT       0.417000       1.00800           0
     35490 TIP3     5592     TIP3     OH2      OT      -0.834000       15.9994           0
     35491 TIP3     5592     TIP3     H1       HT       0.417000       1.00800           0
     35492 TIP3     5592     TIP3     H2       HT       0.417000       1.00800           0
     35493 TIP3     5593     TIP3     OH2      OT      -0.834000       15.9994           0
     35494 TIP3     5593     TIP3     H1       HT       0.417000       1.00800           0
     35495 TIP3     5593     TIP3     H2       HT       0.417000       1.00800           0
     35496 TIP3     5594     TIP3     OH2      OT      -0.834000       15.9994           0
     35497 TIP3     5594     TIP3     H1       HT       0.417000       1.00800           0
     35498 TIP3     5594     TIP3     H2       HT       0.417000       1.00800           0
     35499 TIP3     5595     TIP3     OH2      OT      -0.834000       15.9994           0
     35500 TIP3     5595     TIP3     H1       HT       0.417000       1.00800           0
     35501 TIP3     5595     TIP3     H2       HT       0.417000       1.00800           0
     35502 TIP3     5596     TIP3     OH2      OT      -0.834000       15.9994           0
     35503 TIP3     5596     TIP3     H1       HT       0.417000       1.00800           0
     35504 TIP3     5596     TIP3     H2       HT       0.417000       1.00800           0
     35505 TIP3     5597     TIP3     OH2      OT      -0.834000       15.9994           0
     35506 TIP3     5597     TIP3     H1       HT       0.417000       1.00800           0
     35507 TIP3     5597     TIP3     H2       HT       0.417000       1.00800           0
     35508 TIP3     5598     TIP3     OH2      OT      -0.834000       15.9994           0
     35509 TIP3     5598     TIP3     H1       HT       0.417000       1.00800           0
     35510 TIP3     5598     TIP3     H2       HT       0.417000       1.00800           0
     35511 TIP3     5599     TIP3     OH2      OT      -0.834000       15.9994           0
     35512 TIP3     5599     TIP3     H1       HT       0.417000       1.00800           0
     35513 TIP3     5599     TIP3     H2       HT       0.417000       1.00800           0
     35514 TIP3     5600     TIP3     OH2      OT      -0.834000       15.9994           0
     35515 TIP3     5600     TIP3     H1       HT       0.417000       1.00800           0
     35516 TIP3     5600     TIP3     H2       HT       0.417000       1.00800           0
     35517 TIP3     5601     TIP3     OH2      OT      -0.834000       15.9994           0
     35518 TIP3     5601     TIP3     H1       HT       0.417000       1.00800           0
     35519 TIP3     5601     TIP3     H2       HT       0.417000       1.00800           0
     35520 TIP3     5602     TIP3     OH2      OT      -0.834000       15.9994           0
     35521 TIP3     5602     TIP3     H1       HT       0.417000       1.00800           0
     35522 TIP3     5602     TIP3     H2       HT       0.417000       1.00800           0
     35523 TIP3     5603     TIP3     OH2      OT      -0.834000       15.9994           0
     35524 TIP3     5603     TIP3     H1       HT       0.417000       1.00800           0
     35525 TIP3     5603     TIP3     H2       HT       0.417000       1.00800           0
     35526 TIP3     5604     TIP3     OH2      OT      -0.834000       15.9994           0
     35527 TIP3     5604     TIP3     H1       HT       0.417000       1.00800           0
     35528 TIP3     5604     TIP3     H2       HT       0.417000       1.00800           0
     35529 TIP3     5605     TIP3     OH2      OT      -0.834000       15.9994           0
     35530 TIP3     5605     TIP3     H1       HT       0.417000       1.00800           0
     35531 TIP3     5605     TIP3     H2       HT       0.417000       1.00800           0
     35532 TIP3     5606     TIP3     OH2      OT      -0.834000       15.9994           0
     35533 TIP3     5606     TIP3     H1       HT       0.417000       1.00800           0
     35534 TIP3     5606     TIP3     H2       HT       0.417000       1.00800           0
     35535 TIP3     5607     TIP3     OH2      OT      -0.834000       15.9994           0
     35536 TIP3     5607     TIP3     H1       HT       0.417000       1.00800           0
     35537 TIP3     5607     TIP3     H2       HT       0.417000       1.00800           0
     35538 TIP3     5608     TIP3     OH2      OT      -0.834000       15.9994           0
     35539 TIP3     5608     TIP3     H1       HT       0.417000       1.00800           0
     35540 TIP3     5608     TIP3     H2       HT       0.417000       1.00800           0
     35541 TIP3     5609     TIP3     OH2      OT      -0.834000       15.9994           0
     35542 TIP3     5609     TIP3     H1       HT       0.417000       1.00800           0
     35543 TIP3     5609     TIP3     H2       HT       0.417000       1.00800           0
     35544 TIP3     5610     TIP3     OH2      OT      -0.834000       15.9994           0
     35545 TIP3     5610     TIP3     H1       HT       0.417000       1.00800           0
     35546 TIP3     5610     TIP3     H2       HT       0.417000       1.00800           0
     35547 TIP3     5611     TIP3     OH2      OT      -0.834000       15.9994           0
     35548 TIP3     5611     TIP3     H1       HT       0.417000       1.00800           0
     35549 TIP3     5611     TIP3     H2       HT       0.417000       1.00800           0
     35550 TIP3     5612     TIP3     OH2      OT      -0.834000       15.9994           0
     35551 TIP3     5612     TIP3     H1       HT       0.417000       1.00800           0
     35552 TIP3     5612     TIP3     H2       HT       0.417000       1.00800           0
     35553 TIP3     5613     TIP3     OH2      OT      -0.834000       15.9994           0
     35554 TIP3     5613     TIP3     H1       HT       0.417000       1.00800           0
     35555 TIP3     5613     TIP3     H2       HT       0.417000       1.00800           0
     35556 TIP3     5614     TIP3     OH2      OT      -0.834000       15.9994           0
     35557 TIP3     5614     TIP3     H1       HT       0.417000       1.00800           0
     35558 TIP3     5614     TIP3     H2       HT       0.417000       1.00800           0
     35559 TIP3     5615     TIP3     OH2      OT      -0.834000       15.9994           0
     35560 TIP3     5615     TIP3     H1       HT       0.417000       1.00800           0
     35561 TIP3     5615     TIP3     H2       HT       0.417000       1.00800           0
     35562 TIP3     5616     TIP3     OH2      OT      -0.834000       15.9994           0
     35563 TIP3     5616     TIP3     H1       HT       0.417000       1.00800           0
     35564 TIP3     5616     TIP3     H2       HT       0.417000       1.00800           0
     35565 TIP3     5617     TIP3     OH2      OT      -0.834000       15.9994           0
     35566 TIP3     5617     TIP3     H1       HT       0.417000       1.00800           0
     35567 TIP3     5617     TIP3     H2       HT       0.417000       1.00800           0
     35568 TIP3     5618     TIP3     OH2      OT      -0.834000       15.9994           0
     35569 TIP3     5618     TIP3     H1       HT       0.417000       1.00800           0
     35570 TIP3     5618     TIP3     H2       HT       0.417000       1.00800           0
     35571 TIP3     5619     TIP3     OH2      OT      -0.834000       15.9994           0
     35572 TIP3     5619     TIP3     H1       HT       0.417000       1.00800           0
     35573 TIP3     5619     TIP3     H2       HT       0.417000       1.00800           0
     35574 TIP3     5620     TIP3     OH2      OT      -0.834000       15.9994           0
     35575 TIP3     5620     TIP3     H1       HT       0.417000       1.00800           0
     35576 TIP3     5620     TIP3     H2       HT       0.417000       1.00800           0
     35577 TIP3     5621     TIP3     OH2      OT      -0.834000       15.9994           0
     35578 TIP3     5621     TIP3     H1       HT       0.417000       1.00800           0
     35579 TIP3     5621     TIP3     H2       HT       0.417000       1.00800           0
     35580 TIP3     5622     TIP3     OH2      OT      -0.834000       15.9994           0
     35581 TIP3     5622     TIP3     H1       HT       0.417000       1.00800           0
     35582 TIP3     5622     TIP3     H2       HT       0.417000       1.00800           0
     35583 TIP3     5623     TIP3     OH2      OT      -0.834000       15.9994           0
     35584 TIP3     5623     TIP3     H1       HT       0.417000       1.00800           0
     35585 TIP3     5623     TIP3     H2       HT       0.417000       1.00800           0
     35586 TIP3     5624     TIP3     OH2      OT      -0.834000       15.9994           0
     35587 TIP3     5624     TIP3     H1       HT       0.417000       1.00800           0
     35588 TIP3     5624     TIP3     H2       HT       0.417000       1.00800           0
     35589 TIP3     5625     TIP3     OH2      OT      -0.834000       15.9994           0
     35590 TIP3     5625     TIP3     H1       HT       0.417000       1.00800           0
     35591 TIP3     5625     TIP3     H2       HT       0.417000       1.00800           0
     35592 TIP3     5626     TIP3     OH2      OT      -0.834000       15.9994           0
     35593 TIP3     5626     TIP3     H1       HT       0.417000       1.00800           0
     35594 TIP3     5626     TIP3     H2       HT       0.417000       1.00800           0
     35595 TIP3     5627     TIP3     OH2      OT      -0.834000       15.9994           0
     35596 TIP3     5627     TIP3     H1       HT       0.417000       1.00800           0
     35597 TIP3     5627     TIP3     H2       HT       0.417000       1.00800           0
     35598 TIP3     5628     TIP3     OH2      OT      -0.834000       15.9994           0
     35599 TIP3     5628     TIP3     H1       HT       0.417000       1.00800           0
     35600 TIP3     5628     TIP3     H2       HT       0.417000       1.00800           0
     35601 TIP3     5629     TIP3     OH2      OT      -0.834000       15.9994           0
     35602 TIP3     5629     TIP3     H1       HT       0.417000       1.00800           0
     35603 TIP3     5629     TIP3     H2       HT       0.417000       1.00800           0
     35604 TIP3     5630     TIP3     OH2      OT      -0.834000       15.9994           0
     35605 TIP3     5630     TIP3     H1       HT       0.417000       1.00800           0
     35606 TIP3     5630     TIP3     H2       HT       0.417000       1.00800           0
     35607 TIP3     5631     TIP3     OH2      OT      -0.834000       15.9994           0
     35608 TIP3     5631     TIP3     H1       HT       0.417000       1.00800           0
     35609 TIP3     5631     TIP3     H2       HT       0.417000       1.00800           0
     35610 TIP3     5632     TIP3     OH2      OT      -0.834000       15.9994           0
     35611 TIP3     5632     TIP3     H1       HT       0.417000       1.00800           0
     35612 TIP3     5632     TIP3     H2       HT       0.417000       1.00800           0
     35613 TIP3     5633     TIP3     OH2      OT      -0.834000       15.9994           0
     35614 TIP3     5633     TIP3     H1       HT       0.417000       1.00800           0
     35615 TIP3     5633     TIP3     H2       HT       0.417000       1.00800           0
     35616 TIP3     5634     TIP3     OH2      OT      -0.834000       15.9994           0
     35617 TIP3     5634     TIP3     H1       HT       0.417000       1.00800           0
     35618 TIP3     5634     TIP3     H2       HT       0.417000       1.00800           0
     35619 TIP3     5635     TIP3     OH2      OT      -0.834000       15.9994           0
     35620 TIP3     5635     TIP3     H1       HT       0.417000       1.00800           0
     35621 TIP3     5635     TIP3     H2       HT       0.417000       1.00800           0
     35622 TIP3     5636     TIP3     OH2      OT      -0.834000       15.9994           0
     35623 TIP3     5636     TIP3     H1       HT       0.417000       1.00800           0
     35624 TIP3     5636     TIP3     H2       HT       0.417000       1.00800           0
     35625 TIP3     5637     TIP3     OH2      OT      -0.834000       15.9994           0
     35626 TIP3     5637     TIP3     H1       HT       0.417000       1.00800           0
     35627 TIP3     5637     TIP3     H2       HT       0.417000       1.00800           0
     35628 TIP3     5638     TIP3     OH2      OT      -0.834000       15.9994           0
     35629 TIP3     5638     TIP3     H1       HT       0.417000       1.00800           0
     35630 TIP3     5638     TIP3     H2       HT       0.417000       1.00800           0
     35631 TIP3     5639     TIP3     OH2      OT      -0.834000       15.9994           0
     35632 TIP3     5639     TIP3     H1       HT       0.417000       1.00800           0
     35633 TIP3     5639     TIP3     H2       HT       0.417000       1.00800           0
     35634 TIP3     5640     TIP3     OH2      OT      -0.834000       15.9994           0
     35635 TIP3     5640     TIP3     H1       HT       0.417000       1.00800           0
     35636 TIP3     5640     TIP3     H2       HT       0.417000       1.00800           0
     35637 TIP3     5641     TIP3     OH2      OT      -0.834000       15.9994           0
     35638 TIP3     5641     TIP3     H1       HT       0.417000       1.00800           0
     35639 TIP3     5641     TIP3     H2       HT       0.417000       1.00800           0
     35640 TIP3     5642     TIP3     OH2      OT      -0.834000       15.9994           0
     35641 TIP3     5642     TIP3     H1       HT       0.417000       1.00800           0
     35642 TIP3     5642     TIP3     H2       HT       0.417000       1.00800           0
     35643 TIP3     5643     TIP3     OH2      OT      -0.834000       15.9994           0
     35644 TIP3     5643     TIP3     H1       HT       0.417000       1.00800           0
     35645 TIP3     5643     TIP3     H2       HT       0.417000       1.00800           0
     35646 TIP3     5644     TIP3     OH2      OT      -0.834000       15.9994           0
     35647 TIP3     5644     TIP3     H1       HT       0.417000       1.00800           0
     35648 TIP3     5644     TIP3     H2       HT       0.417000       1.00800           0
     35649 TIP3     5645     TIP3     OH2      OT      -0.834000       15.9994           0
     35650 TIP3     5645     TIP3     H1       HT       0.417000       1.00800           0
     35651 TIP3     5645     TIP3     H2       HT       0.417000       1.00800           0
     35652 TIP3     5646     TIP3     OH2      OT      -0.834000       15.9994           0
     35653 TIP3     5646     TIP3     H1       HT       0.417000       1.00800           0
     35654 TIP3     5646     TIP3     H2       HT       0.417000       1.00800           0
     35655 TIP3     5647     TIP3     OH2      OT      -0.834000       15.9994           0
     35656 TIP3     5647     TIP3     H1       HT       0.417000       1.00800           0
     35657 TIP3     5647     TIP3     H2       HT       0.417000       1.00800           0
     35658 TIP3     5648     TIP3     OH2      OT      -0.834000       15.9994           0
     35659 TIP3     5648     TIP3     H1       HT       0.417000       1.00800           0
     35660 TIP3     5648     TIP3     H2       HT       0.417000       1.00800           0
     35661 TIP3     5649     TIP3     OH2      OT      -0.834000       15.9994           0
     35662 TIP3     5649     TIP3     H1       HT       0.417000       1.00800           0
     35663 TIP3     5649     TIP3     H2       HT       0.417000       1.00800           0
     35664 TIP3     5650     TIP3     OH2      OT      -0.834000       15.9994           0
     35665 TIP3     5650     TIP3     H1       HT       0.417000       1.00800           0
     35666 TIP3     5650     TIP3     H2       HT       0.417000       1.00800           0
     35667 TIP3     5651     TIP3     OH2      OT      -0.834000       15.9994           0
     35668 TIP3     5651     TIP3     H1       HT       0.417000       1.00800           0
     35669 TIP3     5651     TIP3     H2       HT       0.417000       1.00800           0
     35670 TIP3     5652     TIP3     OH2      OT      -0.834000       15.9994           0
     35671 TIP3     5652     TIP3     H1       HT       0.417000       1.00800           0
     35672 TIP3     5652     TIP3     H2       HT       0.417000       1.00800           0
     35673 TIP3     5653     TIP3     OH2      OT      -0.834000       15.9994           0
     35674 TIP3     5653     TIP3     H1       HT       0.417000       1.00800           0
     35675 TIP3     5653     TIP3     H2       HT       0.417000       1.00800           0
     35676 TIP3     5654     TIP3     OH2      OT      -0.834000       15.9994           0
     35677 TIP3     5654     TIP3     H1       HT       0.417000       1.00800           0
     35678 TIP3     5654     TIP3     H2       HT       0.417000       1.00800           0
     35679 TIP3     5655     TIP3     OH2      OT      -0.834000       15.9994           0
     35680 TIP3     5655     TIP3     H1       HT       0.417000       1.00800           0
     35681 TIP3     5655     TIP3     H2       HT       0.417000       1.00800           0
     35682 TIP3     5656     TIP3     OH2      OT      -0.834000       15.9994           0
     35683 TIP3     5656     TIP3     H1       HT       0.417000       1.00800           0
     35684 TIP3     5656     TIP3     H2       HT       0.417000       1.00800           0
     35685 TIP3     5657     TIP3     OH2      OT      -0.834000       15.9994           0
     35686 TIP3     5657     TIP3     H1       HT       0.417000       1.00800           0
     35687 TIP3     5657     TIP3     H2       HT       0.417000       1.00800           0
     35688 TIP3     5658     TIP3     OH2      OT      -0.834000       15.9994           0
     35689 TIP3     5658     TIP3     H1       HT       0.417000       1.00800           0
     35690 TIP3     5658     TIP3     H2       HT       0.417000       1.00800           0
     35691 TIP3     5659     TIP3     OH2      OT      -0.834000       15.9994           0
     35692 TIP3     5659     TIP3     H1       HT       0.417000       1.00800           0
     35693 TIP3     5659     TIP3     H2       HT       0.417000       1.00800           0
     35694 TIP3     5660     TIP3     OH2      OT      -0.834000       15.9994           0
     35695 TIP3     5660     TIP3     H1       HT       0.417000       1.00800           0
     35696 TIP3     5660     TIP3     H2       HT       0.417000       1.00800           0
     35697 TIP3     5661     TIP3     OH2      OT      -0.834000       15.9994           0
     35698 TIP3     5661     TIP3     H1       HT       0.417000       1.00800           0
     35699 TIP3     5661     TIP3     H2       HT       0.417000       1.00800           0
     35700 TIP3     5662     TIP3     OH2      OT      -0.834000       15.9994           0
     35701 TIP3     5662     TIP3     H1       HT       0.417000       1.00800           0
     35702 TIP3     5662     TIP3     H2       HT       0.417000       1.00800           0
     35703 TIP3     5663     TIP3     OH2      OT      -0.834000       15.9994           0
     35704 TIP3     5663     TIP3     H1       HT       0.417000       1.00800           0
     35705 TIP3     5663     TIP3     H2       HT       0.417000       1.00800           0
     35706 TIP3     5664     TIP3     OH2      OT      -0.834000       15.9994           0
     35707 TIP3     5664     TIP3     H1       HT       0.417000       1.00800           0
     35708 TIP3     5664     TIP3     H2       HT       0.417000       1.00800           0
     35709 TIP3     5665     TIP3     OH2      OT      -0.834000       15.9994           0
     35710 TIP3     5665     TIP3     H1       HT       0.417000       1.00800           0
     35711 TIP3     5665     TIP3     H2       HT       0.417000       1.00800           0
     35712 TIP3     5666     TIP3     OH2      OT      -0.834000       15.9994           0
     35713 TIP3     5666     TIP3     H1       HT       0.417000       1.00800           0
     35714 TIP3     5666     TIP3     H2       HT       0.417000       1.00800           0
     35715 TIP3     5667     TIP3     OH2      OT      -0.834000       15.9994           0
     35716 TIP3     5667     TIP3     H1       HT       0.417000       1.00800           0
     35717 TIP3     5667     TIP3     H2       HT       0.417000       1.00800           0
     35718 TIP3     5668     TIP3     OH2      OT      -0.834000       15.9994           0
     35719 TIP3     5668     TIP3     H1       HT       0.417000       1.00800           0
     35720 TIP3     5668     TIP3     H2       HT       0.417000       1.00800           0
     35721 TIP3     5669     TIP3     OH2      OT      -0.834000       15.9994           0
     35722 TIP3     5669     TIP3     H1       HT       0.417000       1.00800           0
     35723 TIP3     5669     TIP3     H2       HT       0.417000       1.00800           0
     35724 TIP3     5670     TIP3     OH2      OT      -0.834000       15.9994           0
     35725 TIP3     5670     TIP3     H1       HT       0.417000       1.00800           0
     35726 TIP3     5670     TIP3     H2       HT       0.417000       1.00800           0
     35727 TIP3     5671     TIP3     OH2      OT      -0.834000       15.9994           0
     35728 TIP3     5671     TIP3     H1       HT       0.417000       1.00800           0
     35729 TIP3     5671     TIP3     H2       HT       0.417000       1.00800           0
     35730 TIP3     5672     TIP3     OH2      OT      -0.834000       15.9994           0
     35731 TIP3     5672     TIP3     H1       HT       0.417000       1.00800           0
     35732 TIP3     5672     TIP3     H2       HT       0.417000       1.00800           0
     35733 TIP3     5673     TIP3     OH2      OT      -0.834000       15.9994           0
     35734 TIP3     5673     TIP3     H1       HT       0.417000       1.00800           0
     35735 TIP3     5673     TIP3     H2       HT       0.417000       1.00800           0
     35736 TIP3     5674     TIP3     OH2      OT      -0.834000       15.9994           0
     35737 TIP3     5674     TIP3     H1       HT       0.417000       1.00800           0
     35738 TIP3     5674     TIP3     H2       HT       0.417000       1.00800           0
     35739 TIP3     5675     TIP3     OH2      OT      -0.834000       15.9994           0
     35740 TIP3     5675     TIP3     H1       HT       0.417000       1.00800           0
     35741 TIP3     5675     TIP3     H2       HT       0.417000       1.00800           0
     35742 TIP3     5676     TIP3     OH2      OT      -0.834000       15.9994           0
     35743 TIP3     5676     TIP3     H1       HT       0.417000       1.00800           0
     35744 TIP3     5676     TIP3     H2       HT       0.417000       1.00800           0
     35745 TIP3     5677     TIP3     OH2      OT      -0.834000       15.9994           0
     35746 TIP3     5677     TIP3     H1       HT       0.417000       1.00800           0
     35747 TIP3     5677     TIP3     H2       HT       0.417000       1.00800           0
     35748 TIP3     5678     TIP3     OH2      OT      -0.834000       15.9994           0
     35749 TIP3     5678     TIP3     H1       HT       0.417000       1.00800           0
     35750 TIP3     5678     TIP3     H2       HT       0.417000       1.00800           0
     35751 TIP3     5679     TIP3     OH2      OT      -0.834000       15.9994           0
     35752 TIP3     5679     TIP3     H1       HT       0.417000       1.00800           0
     35753 TIP3     5679     TIP3     H2       HT       0.417000       1.00800           0
     35754 TIP3     5680     TIP3     OH2      OT      -0.834000       15.9994           0
     35755 TIP3     5680     TIP3     H1       HT       0.417000       1.00800           0
     35756 TIP3     5680     TIP3     H2       HT       0.417000       1.00800           0
     35757 TIP3     5681     TIP3     OH2      OT      -0.834000       15.9994           0
     35758 TIP3     5681     TIP3     H1       HT       0.417000       1.00800           0
     35759 TIP3     5681     TIP3     H2       HT       0.417000       1.00800           0
     35760 TIP3     5682     TIP3     OH2      OT      -0.834000       15.9994           0
     35761 TIP3     5682     TIP3     H1       HT       0.417000       1.00800           0
     35762 TIP3     5682     TIP3     H2       HT       0.417000       1.00800           0
     35763 TIP3     5683     TIP3     OH2      OT      -0.834000       15.9994           0
     35764 TIP3     5683     TIP3     H1       HT       0.417000       1.00800           0
     35765 TIP3     5683     TIP3     H2       HT       0.417000       1.00800           0
     35766 TIP3     5684     TIP3     OH2      OT      -0.834000       15.9994           0
     35767 TIP3     5684     TIP3     H1       HT       0.417000       1.00800           0
     35768 TIP3     5684     TIP3     H2       HT       0.417000       1.00800           0
     35769 TIP3     5685     TIP3     OH2      OT      -0.834000       15.9994           0
     35770 TIP3     5685     TIP3     H1       HT       0.417000       1.00800           0
     35771 TIP3     5685     TIP3     H2       HT       0.417000       1.00800           0
     35772 TIP3     5686     TIP3     OH2      OT      -0.834000       15.9994           0
     35773 TIP3     5686     TIP3     H1       HT       0.417000       1.00800           0
     35774 TIP3     5686     TIP3     H2       HT       0.417000       1.00800           0
     35775 TIP3     5687     TIP3     OH2      OT      -0.834000       15.9994           0
     35776 TIP3     5687     TIP3     H1       HT       0.417000       1.00800           0
     35777 TIP3     5687     TIP3     H2       HT       0.417000       1.00800           0
     35778 TIP3     5688     TIP3     OH2      OT      -0.834000       15.9994           0
     35779 TIP3     5688     TIP3     H1       HT       0.417000       1.00800           0
     35780 TIP3     5688     TIP3     H2       HT       0.417000       1.00800           0
     35781 TIP3     5689     TIP3     OH2      OT      -0.834000       15.9994           0
     35782 TIP3     5689     TIP3     H1       HT       0.417000       1.00800           0
     35783 TIP3     5689     TIP3     H2       HT       0.417000       1.00800           0
     35784 TIP3     5690     TIP3     OH2      OT      -0.834000       15.9994           0
     35785 TIP3     5690     TIP3     H1       HT       0.417000       1.00800           0
     35786 TIP3     5690     TIP3     H2       HT       0.417000       1.00800           0
     35787 TIP3     5691     TIP3     OH2      OT      -0.834000       15.9994           0
     35788 TIP3     5691     TIP3     H1       HT       0.417000       1.00800           0
     35789 TIP3     5691     TIP3     H2       HT       0.417000       1.00800           0
     35790 TIP3     5692     TIP3     OH2      OT      -0.834000       15.9994           0
     35791 TIP3     5692     TIP3     H1       HT       0.417000       1.00800           0
     35792 TIP3     5692     TIP3     H2       HT       0.417000       1.00800           0
     35793 TIP3     5693     TIP3     OH2      OT      -0.834000       15.9994           0
     35794 TIP3     5693     TIP3     H1       HT       0.417000       1.00800           0
     35795 TIP3     5693     TIP3     H2       HT       0.417000       1.00800           0
     35796 TIP3     5694     TIP3     OH2      OT      -0.834000       15.9994           0
     35797 TIP3     5694     TIP3     H1       HT       0.417000       1.00800           0
     35798 TIP3     5694     TIP3     H2       HT       0.417000       1.00800           0
     35799 TIP3     5695     TIP3     OH2      OT      -0.834000       15.9994           0
     35800 TIP3     5695     TIP3     H1       HT       0.417000       1.00800           0
     35801 TIP3     5695     TIP3     H2       HT       0.417000       1.00800           0
     35802 TIP3     5696     TIP3     OH2      OT      -0.834000       15.9994           0
     35803 TIP3     5696     TIP3     H1       HT       0.417000       1.00800           0
     35804 TIP3     5696     TIP3     H2       HT       0.417000       1.00800           0
     35805 TIP3     5697     TIP3     OH2      OT      -0.834000       15.9994           0
     35806 TIP3     5697     TIP3     H1       HT       0.417000       1.00800           0
     35807 TIP3     5697     TIP3     H2       HT       0.417000       1.00800           0
     35808 TIP3     5698     TIP3     OH2      OT      -0.834000       15.9994           0
     35809 TIP3     5698     TIP3     H1       HT       0.417000       1.00800           0
     35810 TIP3     5698     TIP3     H2       HT       0.417000       1.00800           0
     35811 TIP3     5699     TIP3     OH2      OT      -0.834000       15.9994           0
     35812 TIP3     5699     TIP3     H1       HT       0.417000       1.00800           0
     35813 TIP3     5699     TIP3     H2       HT       0.417000       1.00800           0
     35814 TIP3     5700     TIP3     OH2      OT      -0.834000       15.9994           0
     35815 TIP3     5700     TIP3     H1       HT       0.417000       1.00800           0
     35816 TIP3     5700     TIP3     H2       HT       0.417000       1.00800           0
     35817 TIP3     5701     TIP3     OH2      OT      -0.834000       15.9994           0
     35818 TIP3     5701     TIP3     H1       HT       0.417000       1.00800           0
     35819 TIP3     5701     TIP3     H2       HT       0.417000       1.00800           0
     35820 TIP3     5702     TIP3     OH2      OT      -0.834000       15.9994           0
     35821 TIP3     5702     TIP3     H1       HT       0.417000       1.00800           0
     35822 TIP3     5702     TIP3     H2       HT       0.417000       1.00800           0
     35823 TIP3     5703     TIP3     OH2      OT      -0.834000       15.9994           0
     35824 TIP3     5703     TIP3     H1       HT       0.417000       1.00800           0
     35825 TIP3     5703     TIP3     H2       HT       0.417000       1.00800           0
     35826 TIP3     5704     TIP3     OH2      OT      -0.834000       15.9994           0
     35827 TIP3     5704     TIP3     H1       HT       0.417000       1.00800           0
     35828 TIP3     5704     TIP3     H2       HT       0.417000       1.00800           0
     35829 TIP3     5705     TIP3     OH2      OT      -0.834000       15.9994           0
     35830 TIP3     5705     TIP3     H1       HT       0.417000       1.00800           0
     35831 TIP3     5705     TIP3     H2       HT       0.417000       1.00800           0
     35832 TIP3     5706     TIP3     OH2      OT      -0.834000       15.9994           0
     35833 TIP3     5706     TIP3     H1       HT       0.417000       1.00800           0
     35834 TIP3     5706     TIP3     H2       HT       0.417000       1.00800           0
     35835 TIP3     5707     TIP3     OH2      OT      -0.834000       15.9994           0
     35836 TIP3     5707     TIP3     H1       HT       0.417000       1.00800           0
     35837 TIP3     5707     TIP3     H2       HT       0.417000       1.00800           0
     35838 TIP3     5708     TIP3     OH2      OT      -0.834000       15.9994           0
     35839 TIP3     5708     TIP3     H1       HT       0.417000       1.00800           0
     35840 TIP3     5708     TIP3     H2       HT       0.417000       1.00800           0
     35841 TIP3     5709     TIP3     OH2      OT      -0.834000       15.9994           0
     35842 TIP3     5709     TIP3     H1       HT       0.417000       1.00800           0
     35843 TIP3     5709     TIP3     H2       HT       0.417000       1.00800           0
     35844 TIP3     5710     TIP3     OH2      OT      -0.834000       15.9994           0
     35845 TIP3     5710     TIP3     H1       HT       0.417000       1.00800           0
     35846 TIP3     5710     TIP3     H2       HT       0.417000       1.00800           0
     35847 TIP3     5711     TIP3     OH2      OT      -0.834000       15.9994           0
     35848 TIP3     5711     TIP3     H1       HT       0.417000       1.00800           0
     35849 TIP3     5711     TIP3     H2       HT       0.417000       1.00800           0
     35850 TIP3     5712     TIP3     OH2      OT      -0.834000       15.9994           0
     35851 TIP3     5712     TIP3     H1       HT       0.417000       1.00800           0
     35852 TIP3     5712     TIP3     H2       HT       0.417000       1.00800           0
     35853 TIP3     5713     TIP3     OH2      OT      -0.834000       15.9994           0
     35854 TIP3     5713     TIP3     H1       HT       0.417000       1.00800           0
     35855 TIP3     5713     TIP3     H2       HT       0.417000       1.00800           0
     35856 TIP3     5714     TIP3     OH2      OT      -0.834000       15.9994           0
     35857 TIP3     5714     TIP3     H1       HT       0.417000       1.00800           0
     35858 TIP3     5714     TIP3     H2       HT       0.417000       1.00800           0
     35859 TIP3     5715     TIP3     OH2      OT      -0.834000       15.9994           0
     35860 TIP3     5715     TIP3     H1       HT       0.417000       1.00800           0
     35861 TIP3     5715     TIP3     H2       HT       0.417000       1.00800           0
     35862 TIP3     5716     TIP3     OH2      OT      -0.834000       15.9994           0
     35863 TIP3     5716     TIP3     H1       HT       0.417000       1.00800           0
     35864 TIP3     5716     TIP3     H2       HT       0.417000       1.00800           0
     35865 TIP3     5717     TIP3     OH2      OT      -0.834000       15.9994           0
     35866 TIP3     5717     TIP3     H1       HT       0.417000       1.00800           0
     35867 TIP3     5717     TIP3     H2       HT       0.417000       1.00800           0
     35868 TIP3     5718     TIP3     OH2      OT      -0.834000       15.9994           0
     35869 TIP3     5718     TIP3     H1       HT       0.417000       1.00800           0
     35870 TIP3     5718     TIP3     H2       HT       0.417000       1.00800           0
     35871 TIP3     5719     TIP3     OH2      OT      -0.834000       15.9994           0
     35872 TIP3     5719     TIP3     H1       HT       0.417000       1.00800           0
     35873 TIP3     5719     TIP3     H2       HT       0.417000       1.00800           0
     35874 TIP3     5720     TIP3     OH2      OT      -0.834000       15.9994           0
     35875 TIP3     5720     TIP3     H1       HT       0.417000       1.00800           0
     35876 TIP3     5720     TIP3     H2       HT       0.417000       1.00800           0
     35877 TIP3     5721     TIP3     OH2      OT      -0.834000       15.9994           0
     35878 TIP3     5721     TIP3     H1       HT       0.417000       1.00800           0
     35879 TIP3     5721     TIP3     H2       HT       0.417000       1.00800           0
     35880 TIP3     5722     TIP3     OH2      OT      -0.834000       15.9994           0
     35881 TIP3     5722     TIP3     H1       HT       0.417000       1.00800           0
     35882 TIP3     5722     TIP3     H2       HT       0.417000       1.00800           0
     35883 TIP3     5723     TIP3     OH2      OT      -0.834000       15.9994           0
     35884 TIP3     5723     TIP3     H1       HT       0.417000       1.00800           0
     35885 TIP3     5723     TIP3     H2       HT       0.417000       1.00800           0
     35886 TIP3     5724     TIP3     OH2      OT      -0.834000       15.9994           0
     35887 TIP3     5724     TIP3     H1       HT       0.417000       1.00800           0
     35888 TIP3     5724     TIP3     H2       HT       0.417000       1.00800           0
     35889 TIP3     5725     TIP3     OH2      OT      -0.834000       15.9994           0
     35890 TIP3     5725     TIP3     H1       HT       0.417000       1.00800           0
     35891 TIP3     5725     TIP3     H2       HT       0.417000       1.00800           0
     35892 TIP3     5726     TIP3     OH2      OT      -0.834000       15.9994           0
     35893 TIP3     5726     TIP3     H1       HT       0.417000       1.00800           0
     35894 TIP3     5726     TIP3     H2       HT       0.417000       1.00800           0
     35895 TIP3     5727     TIP3     OH2      OT      -0.834000       15.9994           0
     35896 TIP3     5727     TIP3     H1       HT       0.417000       1.00800           0
     35897 TIP3     5727     TIP3     H2       HT       0.417000       1.00800           0
     35898 TIP3     5728     TIP3     OH2      OT      -0.834000       15.9994           0
     35899 TIP3     5728     TIP3     H1       HT       0.417000       1.00800           0
     35900 TIP3     5728     TIP3     H2       HT       0.417000       1.00800           0
     35901 TIP3     5729     TIP3     OH2      OT      -0.834000       15.9994           0
     35902 TIP3     5729     TIP3     H1       HT       0.417000       1.00800           0
     35903 TIP3     5729     TIP3     H2       HT       0.417000       1.00800           0
     35904 TIP3     5730     TIP3     OH2      OT      -0.834000       15.9994           0
     35905 TIP3     5730     TIP3     H1       HT       0.417000       1.00800           0
     35906 TIP3     5730     TIP3     H2       HT       0.417000       1.00800           0
     35907 TIP3     5731     TIP3     OH2      OT      -0.834000       15.9994           0
     35908 TIP3     5731     TIP3     H1       HT       0.417000       1.00800           0
     35909 TIP3     5731     TIP3     H2       HT       0.417000       1.00800           0
     35910 TIP3     5732     TIP3     OH2      OT      -0.834000       15.9994           0
     35911 TIP3     5732     TIP3     H1       HT       0.417000       1.00800           0
     35912 TIP3     5732     TIP3     H2       HT       0.417000       1.00800           0
     35913 TIP3     5733     TIP3     OH2      OT      -0.834000       15.9994           0
     35914 TIP3     5733     TIP3     H1       HT       0.417000       1.00800           0
     35915 TIP3     5733     TIP3     H2       HT       0.417000       1.00800           0
     35916 TIP3     5734     TIP3     OH2      OT      -0.834000       15.9994           0
     35917 TIP3     5734     TIP3     H1       HT       0.417000       1.00800           0
     35918 TIP3     5734     TIP3     H2       HT       0.417000       1.00800           0
     35919 TIP3     5735     TIP3     OH2      OT      -0.834000       15.9994           0
     35920 TIP3     5735     TIP3     H1       HT       0.417000       1.00800           0
     35921 TIP3     5735     TIP3     H2       HT       0.417000       1.00800           0
     35922 TIP3     5736     TIP3     OH2      OT      -0.834000       15.9994           0
     35923 TIP3     5736     TIP3     H1       HT       0.417000       1.00800           0
     35924 TIP3     5736     TIP3     H2       HT       0.417000       1.00800           0
     35925 TIP3     5737     TIP3     OH2      OT      -0.834000       15.9994           0
     35926 TIP3     5737     TIP3     H1       HT       0.417000       1.00800           0
     35927 TIP3     5737     TIP3     H2       HT       0.417000       1.00800           0
     35928 TIP3     5738     TIP3     OH2      OT      -0.834000       15.9994           0
     35929 TIP3     5738     TIP3     H1       HT       0.417000       1.00800           0
     35930 TIP3     5738     TIP3     H2       HT       0.417000       1.00800           0
     35931 TIP3     5739     TIP3     OH2      OT      -0.834000       15.9994           0
     35932 TIP3     5739     TIP3     H1       HT       0.417000       1.00800           0
     35933 TIP3     5739     TIP3     H2       HT       0.417000       1.00800           0
     35934 TIP3     5740     TIP3     OH2      OT      -0.834000       15.9994           0
     35935 TIP3     5740     TIP3     H1       HT       0.417000       1.00800           0
     35936 TIP3     5740     TIP3     H2       HT       0.417000       1.00800           0
     35937 TIP3     5741     TIP3     OH2      OT      -0.834000       15.9994           0
     35938 TIP3     5741     TIP3     H1       HT       0.417000       1.00800           0
     35939 TIP3     5741     TIP3     H2       HT       0.417000       1.00800           0
     35940 TIP3     5742     TIP3     OH2      OT      -0.834000       15.9994           0
     35941 TIP3     5742     TIP3     H1       HT       0.417000       1.00800           0
     35942 TIP3     5742     TIP3     H2       HT       0.417000       1.00800           0
     35943 TIP3     5743     TIP3     OH2      OT      -0.834000       15.9994           0
     35944 TIP3     5743     TIP3     H1       HT       0.417000       1.00800           0
     35945 TIP3     5743     TIP3     H2       HT       0.417000       1.00800           0
     35946 TIP3     5744     TIP3     OH2      OT      -0.834000       15.9994           0
     35947 TIP3     5744     TIP3     H1       HT       0.417000       1.00800           0
     35948 TIP3     5744     TIP3     H2       HT       0.417000       1.00800           0
     35949 TIP3     5745     TIP3     OH2      OT      -0.834000       15.9994           0
     35950 TIP3     5745     TIP3     H1       HT       0.417000       1.00800           0
     35951 TIP3     5745     TIP3     H2       HT       0.417000       1.00800           0
     35952 TIP3     5746     TIP3     OH2      OT      -0.834000       15.9994           0
     35953 TIP3     5746     TIP3     H1       HT       0.417000       1.00800           0
     35954 TIP3     5746     TIP3     H2       HT       0.417000       1.00800           0
     35955 TIP3     5747     TIP3     OH2      OT      -0.834000       15.9994           0
     35956 TIP3     5747     TIP3     H1       HT       0.417000       1.00800           0
     35957 TIP3     5747     TIP3     H2       HT       0.417000       1.00800           0
     35958 TIP3     5748     TIP3     OH2      OT      -0.834000       15.9994           0
     35959 TIP3     5748     TIP3     H1       HT       0.417000       1.00800           0
     35960 TIP3     5748     TIP3     H2       HT       0.417000       1.00800           0
     35961 TIP3     5749     TIP3     OH2      OT      -0.834000       15.9994           0
     35962 TIP3     5749     TIP3     H1       HT       0.417000       1.00800           0
     35963 TIP3     5749     TIP3     H2       HT       0.417000       1.00800           0
     35964 TIP3     5750     TIP3     OH2      OT      -0.834000       15.9994           0
     35965 TIP3     5750     TIP3     H1       HT       0.417000       1.00800           0
     35966 TIP3     5750     TIP3     H2       HT       0.417000       1.00800           0
     35967 TIP3     5751     TIP3     OH2      OT      -0.834000       15.9994           0
     35968 TIP3     5751     TIP3     H1       HT       0.417000       1.00800           0
     35969 TIP3     5751     TIP3     H2       HT       0.417000       1.00800           0
     35970 TIP3     5752     TIP3     OH2      OT      -0.834000       15.9994           0
     35971 TIP3     5752     TIP3     H1       HT       0.417000       1.00800           0
     35972 TIP3     5752     TIP3     H2       HT       0.417000       1.00800           0
     35973 TIP3     5753     TIP3     OH2      OT      -0.834000       15.9994           0
     35974 TIP3     5753     TIP3     H1       HT       0.417000       1.00800           0
     35975 TIP3     5753     TIP3     H2       HT       0.417000       1.00800           0
     35976 TIP3     5754     TIP3     OH2      OT      -0.834000       15.9994           0
     35977 TIP3     5754     TIP3     H1       HT       0.417000       1.00800           0
     35978 TIP3     5754     TIP3     H2       HT       0.417000       1.00800           0
     35979 TIP3     5755     TIP3     OH2      OT      -0.834000       15.9994           0
     35980 TIP3     5755     TIP3     H1       HT       0.417000       1.00800           0
     35981 TIP3     5755     TIP3     H2       HT       0.417000       1.00800           0
     35982 TIP3     5756     TIP3     OH2      OT      -0.834000       15.9994           0
     35983 TIP3     5756     TIP3     H1       HT       0.417000       1.00800           0
     35984 TIP3     5756     TIP3     H2       HT       0.417000       1.00800           0
     35985 TIP3     5757     TIP3     OH2      OT      -0.834000       15.9994           0
     35986 TIP3     5757     TIP3     H1       HT       0.417000       1.00800           0
     35987 TIP3     5757     TIP3     H2       HT       0.417000       1.00800           0
     35988 TIP3     5758     TIP3     OH2      OT      -0.834000       15.9994           0
     35989 TIP3     5758     TIP3     H1       HT       0.417000       1.00800           0
     35990 TIP3     5758     TIP3     H2       HT       0.417000       1.00800           0
     35991 TIP3     5759     TIP3     OH2      OT      -0.834000       15.9994           0
     35992 TIP3     5759     TIP3     H1       HT       0.417000       1.00800           0
     35993 TIP3     5759     TIP3     H2       HT       0.417000       1.00800           0
     35994 TIP3     5760     TIP3     OH2      OT      -0.834000       15.9994           0
     35995 TIP3     5760     TIP3     H1       HT       0.417000       1.00800           0
     35996 TIP3     5760     TIP3     H2       HT       0.417000       1.00800           0
     35997 TIP3     5761     TIP3     OH2      OT      -0.834000       15.9994           0
     35998 TIP3     5761     TIP3     H1       HT       0.417000       1.00800           0
     35999 TIP3     5761     TIP3     H2       HT       0.417000       1.00800           0
     36000 TIP3     5762     TIP3     OH2      OT      -0.834000       15.9994           0
     36001 TIP3     5762     TIP3     H1       HT       0.417000       1.00800           0
     36002 TIP3     5762     TIP3     H2       HT       0.417000       1.00800           0
     36003 TIP3     5763     TIP3     OH2      OT      -0.834000       15.9994           0
     36004 TIP3     5763     TIP3     H1       HT       0.417000       1.00800           0
     36005 TIP3     5763     TIP3     H2       HT       0.417000       1.00800           0
     36006 TIP3     5764     TIP3     OH2      OT      -0.834000       15.9994           0
     36007 TIP3     5764     TIP3     H1       HT       0.417000       1.00800           0
     36008 TIP3     5764     TIP3     H2       HT       0.417000       1.00800           0
     36009 TIP3     5765     TIP3     OH2      OT      -0.834000       15.9994           0
     36010 TIP3     5765     TIP3     H1       HT       0.417000       1.00800           0
     36011 TIP3     5765     TIP3     H2       HT       0.417000       1.00800           0
     36012 TIP3     5766     TIP3     OH2      OT      -0.834000       15.9994           0
     36013 TIP3     5766     TIP3     H1       HT       0.417000       1.00800           0
     36014 TIP3     5766     TIP3     H2       HT       0.417000       1.00800           0
     36015 TIP3     5767     TIP3     OH2      OT      -0.834000       15.9994           0
     36016 TIP3     5767     TIP3     H1       HT       0.417000       1.00800           0
     36017 TIP3     5767     TIP3     H2       HT       0.417000       1.00800           0
     36018 TIP3     5768     TIP3     OH2      OT      -0.834000       15.9994           0
     36019 TIP3     5768     TIP3     H1       HT       0.417000       1.00800           0
     36020 TIP3     5768     TIP3     H2       HT       0.417000       1.00800           0
     36021 TIP3     5769     TIP3     OH2      OT      -0.834000       15.9994           0
     36022 TIP3     5769     TIP3     H1       HT       0.417000       1.00800           0
     36023 TIP3     5769     TIP3     H2       HT       0.417000       1.00800           0
     36024 TIP3     5770     TIP3     OH2      OT      -0.834000       15.9994           0
     36025 TIP3     5770     TIP3     H1       HT       0.417000       1.00800           0
     36026 TIP3     5770     TIP3     H2       HT       0.417000       1.00800           0
     36027 TIP3     5771     TIP3     OH2      OT      -0.834000       15.9994           0
     36028 TIP3     5771     TIP3     H1       HT       0.417000       1.00800           0
     36029 TIP3     5771     TIP3     H2       HT       0.417000       1.00800           0
     36030 TIP3     5772     TIP3     OH2      OT      -0.834000       15.9994           0
     36031 TIP3     5772     TIP3     H1       HT       0.417000       1.00800           0
     36032 TIP3     5772     TIP3     H2       HT       0.417000       1.00800           0
     36033 TIP3     5773     TIP3     OH2      OT      -0.834000       15.9994           0
     36034 TIP3     5773     TIP3     H1       HT       0.417000       1.00800           0
     36035 TIP3     5773     TIP3     H2       HT       0.417000       1.00800           0
     36036 TIP3     5774     TIP3     OH2      OT      -0.834000       15.9994           0
     36037 TIP3     5774     TIP3     H1       HT       0.417000       1.00800           0
     36038 TIP3     5774     TIP3     H2       HT       0.417000       1.00800           0
     36039 TIP3     5775     TIP3     OH2      OT      -0.834000       15.9994           0
     36040 TIP3     5775     TIP3     H1       HT       0.417000       1.00800           0
     36041 TIP3     5775     TIP3     H2       HT       0.417000       1.00800           0
     36042 TIP3     5776     TIP3     OH2      OT      -0.834000       15.9994           0
     36043 TIP3     5776     TIP3     H1       HT       0.417000       1.00800           0
     36044 TIP3     5776     TIP3     H2       HT       0.417000       1.00800           0
     36045 TIP3     5777     TIP3     OH2      OT      -0.834000       15.9994           0
     36046 TIP3     5777     TIP3     H1       HT       0.417000       1.00800           0
     36047 TIP3     5777     TIP3     H2       HT       0.417000       1.00800           0
     36048 TIP3     5778     TIP3     OH2      OT      -0.834000       15.9994           0
     36049 TIP3     5778     TIP3     H1       HT       0.417000       1.00800           0
     36050 TIP3     5778     TIP3     H2       HT       0.417000       1.00800           0
     36051 TIP3     5779     TIP3     OH2      OT      -0.834000       15.9994           0
     36052 TIP3     5779     TIP3     H1       HT       0.417000       1.00800           0
     36053 TIP3     5779     TIP3     H2       HT       0.417000       1.00800           0
     36054 TIP3     5780     TIP3     OH2      OT      -0.834000       15.9994           0
     36055 TIP3     5780     TIP3     H1       HT       0.417000       1.00800           0
     36056 TIP3     5780     TIP3     H2       HT       0.417000       1.00800           0
     36057 TIP3     5781     TIP3     OH2      OT      -0.834000       15.9994           0
     36058 TIP3     5781     TIP3     H1       HT       0.417000       1.00800           0
     36059 TIP3     5781     TIP3     H2       HT       0.417000       1.00800           0
     36060 TIP3     5782     TIP3     OH2      OT      -0.834000       15.9994           0
     36061 TIP3     5782     TIP3     H1       HT       0.417000       1.00800           0
     36062 TIP3     5782     TIP3     H2       HT       0.417000       1.00800           0
     36063 TIP3     5783     TIP3     OH2      OT      -0.834000       15.9994           0
     36064 TIP3     5783     TIP3     H1       HT       0.417000       1.00800           0
     36065 TIP3     5783     TIP3     H2       HT       0.417000       1.00800           0
     36066 TIP3     5784     TIP3     OH2      OT      -0.834000       15.9994           0
     36067 TIP3     5784     TIP3     H1       HT       0.417000       1.00800           0
     36068 TIP3     5784     TIP3     H2       HT       0.417000       1.00800           0
     36069 TIP3     5785     TIP3     OH2      OT      -0.834000       15.9994           0
     36070 TIP3     5785     TIP3     H1       HT       0.417000       1.00800           0
     36071 TIP3     5785     TIP3     H2       HT       0.417000       1.00800           0
     36072 TIP3     5786     TIP3     OH2      OT      -0.834000       15.9994           0
     36073 TIP3     5786     TIP3     H1       HT       0.417000       1.00800           0
     36074 TIP3     5786     TIP3     H2       HT       0.417000       1.00800           0
     36075 TIP3     5787     TIP3     OH2      OT      -0.834000       15.9994           0
     36076 TIP3     5787     TIP3     H1       HT       0.417000       1.00800           0
     36077 TIP3     5787     TIP3     H2       HT       0.417000       1.00800           0
     36078 TIP3     5788     TIP3     OH2      OT      -0.834000       15.9994           0
     36079 TIP3     5788     TIP3     H1       HT       0.417000       1.00800           0
     36080 TIP3     5788     TIP3     H2       HT       0.417000       1.00800           0
     36081 TIP3     5789     TIP3     OH2      OT      -0.834000       15.9994           0
     36082 TIP3     5789     TIP3     H1       HT       0.417000       1.00800           0
     36083 TIP3     5789     TIP3     H2       HT       0.417000       1.00800           0
     36084 TIP3     5790     TIP3     OH2      OT      -0.834000       15.9994           0
     36085 TIP3     5790     TIP3     H1       HT       0.417000       1.00800           0
     36086 TIP3     5790     TIP3     H2       HT       0.417000       1.00800           0
     36087 TIP3     5791     TIP3     OH2      OT      -0.834000       15.9994           0
     36088 TIP3     5791     TIP3     H1       HT       0.417000       1.00800           0
     36089 TIP3     5791     TIP3     H2       HT       0.417000       1.00800           0
     36090 TIP3     5792     TIP3     OH2      OT      -0.834000       15.9994           0
     36091 TIP3     5792     TIP3     H1       HT       0.417000       1.00800           0
     36092 TIP3     5792     TIP3     H2       HT       0.417000       1.00800           0
     36093 TIP3     5793     TIP3     OH2      OT      -0.834000       15.9994           0
     36094 TIP3     5793     TIP3     H1       HT       0.417000       1.00800           0
     36095 TIP3     5793     TIP3     H2       HT       0.417000       1.00800           0
     36096 TIP3     5794     TIP3     OH2      OT      -0.834000       15.9994           0
     36097 TIP3     5794     TIP3     H1       HT       0.417000       1.00800           0
     36098 TIP3     5794     TIP3     H2       HT       0.417000       1.00800           0
     36099 TIP3     5795     TIP3     OH2      OT      -0.834000       15.9994           0
     36100 TIP3     5795     TIP3     H1       HT       0.417000       1.00800           0
     36101 TIP3     5795     TIP3     H2       HT       0.417000       1.00800           0
     36102 TIP3     5796     TIP3     OH2      OT      -0.834000       15.9994           0
     36103 TIP3     5796     TIP3     H1       HT       0.417000       1.00800           0
     36104 TIP3     5796     TIP3     H2       HT       0.417000       1.00800           0
     36105 TIP3     5797     TIP3     OH2      OT      -0.834000       15.9994           0
     36106 TIP3     5797     TIP3     H1       HT       0.417000       1.00800           0
     36107 TIP3     5797     TIP3     H2       HT       0.417000       1.00800           0
     36108 TIP3     5798     TIP3     OH2      OT      -0.834000       15.9994           0
     36109 TIP3     5798     TIP3     H1       HT       0.417000       1.00800           0
     36110 TIP3     5798     TIP3     H2       HT       0.417000       1.00800           0
     36111 TIP3     5799     TIP3     OH2      OT      -0.834000       15.9994           0
     36112 TIP3     5799     TIP3     H1       HT       0.417000       1.00800           0
     36113 TIP3     5799     TIP3     H2       HT       0.417000       1.00800           0
     36114 TIP3     5800     TIP3     OH2      OT      -0.834000       15.9994           0
     36115 TIP3     5800     TIP3     H1       HT       0.417000       1.00800           0
     36116 TIP3     5800     TIP3     H2       HT       0.417000       1.00800           0
     36117 TIP3     5801     TIP3     OH2      OT      -0.834000       15.9994           0
     36118 TIP3     5801     TIP3     H1       HT       0.417000       1.00800           0
     36119 TIP3     5801     TIP3     H2       HT       0.417000       1.00800           0
     36120 TIP3     5802     TIP3     OH2      OT      -0.834000       15.9994           0
     36121 TIP3     5802     TIP3     H1       HT       0.417000       1.00800           0
     36122 TIP3     5802     TIP3     H2       HT       0.417000       1.00800           0
     36123 TIP3     5803     TIP3     OH2      OT      -0.834000       15.9994           0
     36124 TIP3     5803     TIP3     H1       HT       0.417000       1.00800           0
     36125 TIP3     5803     TIP3     H2       HT       0.417000       1.00800           0
     36126 TIP3     5804     TIP3     OH2      OT      -0.834000       15.9994           0
     36127 TIP3     5804     TIP3     H1       HT       0.417000       1.00800           0
     36128 TIP3     5804     TIP3     H2       HT       0.417000       1.00800           0
     36129 TIP3     5805     TIP3     OH2      OT      -0.834000       15.9994           0
     36130 TIP3     5805     TIP3     H1       HT       0.417000       1.00800           0
     36131 TIP3     5805     TIP3     H2       HT       0.417000       1.00800           0
     36132 TIP3     5806     TIP3     OH2      OT      -0.834000       15.9994           0
     36133 TIP3     5806     TIP3     H1       HT       0.417000       1.00800           0
     36134 TIP3     5806     TIP3     H2       HT       0.417000       1.00800           0
     36135 TIP3     5807     TIP3     OH2      OT      -0.834000       15.9994           0
     36136 TIP3     5807     TIP3     H1       HT       0.417000       1.00800           0
     36137 TIP3     5807     TIP3     H2       HT       0.417000       1.00800           0
     36138 TIP3     5808     TIP3     OH2      OT      -0.834000       15.9994           0
     36139 TIP3     5808     TIP3     H1       HT       0.417000       1.00800           0
     36140 TIP3     5808     TIP3     H2       HT       0.417000       1.00800           0
     36141 TIP3     5809     TIP3     OH2      OT      -0.834000       15.9994           0
     36142 TIP3     5809     TIP3     H1       HT       0.417000       1.00800           0
     36143 TIP3     5809     TIP3     H2       HT       0.417000       1.00800           0
     36144 TIP3     5810     TIP3     OH2      OT      -0.834000       15.9994           0
     36145 TIP3     5810     TIP3     H1       HT       0.417000       1.00800           0
     36146 TIP3     5810     TIP3     H2       HT       0.417000       1.00800           0
     36147 TIP3     5811     TIP3     OH2      OT      -0.834000       15.9994           0
     36148 TIP3     5811     TIP3     H1       HT       0.417000       1.00800           0
     36149 TIP3     5811     TIP3     H2       HT       0.417000       1.00800           0
     36150 TIP3     5812     TIP3     OH2      OT      -0.834000       15.9994           0
     36151 TIP3     5812     TIP3     H1       HT       0.417000       1.00800           0
     36152 TIP3     5812     TIP3     H2       HT       0.417000       1.00800           0
     36153 TIP3     5813     TIP3     OH2      OT      -0.834000       15.9994           0
     36154 TIP3     5813     TIP3     H1       HT       0.417000       1.00800           0
     36155 TIP3     5813     TIP3     H2       HT       0.417000       1.00800           0
     36156 TIP3     5814     TIP3     OH2      OT      -0.834000       15.9994           0
     36157 TIP3     5814     TIP3     H1       HT       0.417000       1.00800           0
     36158 TIP3     5814     TIP3     H2       HT       0.417000       1.00800           0
     36159 TIP3     5815     TIP3     OH2      OT      -0.834000       15.9994           0
     36160 TIP3     5815     TIP3     H1       HT       0.417000       1.00800           0
     36161 TIP3     5815     TIP3     H2       HT       0.417000       1.00800           0
     36162 TIP3     5816     TIP3     OH2      OT      -0.834000       15.9994           0
     36163 TIP3     5816     TIP3     H1       HT       0.417000       1.00800           0
     36164 TIP3     5816     TIP3     H2       HT       0.417000       1.00800           0
     36165 TIP3     5817     TIP3     OH2      OT      -0.834000       15.9994           0
     36166 TIP3     5817     TIP3     H1       HT       0.417000       1.00800           0
     36167 TIP3     5817     TIP3     H2       HT       0.417000       1.00800           0
     36168 TIP3     5818     TIP3     OH2      OT      -0.834000       15.9994           0
     36169 TIP3     5818     TIP3     H1       HT       0.417000       1.00800           0
     36170 TIP3     5818     TIP3     H2       HT       0.417000       1.00800           0
     36171 TIP3     5819     TIP3     OH2      OT      -0.834000       15.9994           0
     36172 TIP3     5819     TIP3     H1       HT       0.417000       1.00800           0
     36173 TIP3     5819     TIP3     H2       HT       0.417000       1.00800           0
     36174 TIP3     5820     TIP3     OH2      OT      -0.834000       15.9994           0
     36175 TIP3     5820     TIP3     H1       HT       0.417000       1.00800           0
     36176 TIP3     5820     TIP3     H2       HT       0.417000       1.00800           0
     36177 TIP3     5821     TIP3     OH2      OT      -0.834000       15.9994           0
     36178 TIP3     5821     TIP3     H1       HT       0.417000       1.00800           0
     36179 TIP3     5821     TIP3     H2       HT       0.417000       1.00800           0
     36180 TIP3     5822     TIP3     OH2      OT      -0.834000       15.9994           0
     36181 TIP3     5822     TIP3     H1       HT       0.417000       1.00800           0
     36182 TIP3     5822     TIP3     H2       HT       0.417000       1.00800           0
     36183 TIP3     5823     TIP3     OH2      OT      -0.834000       15.9994           0
     36184 TIP3     5823     TIP3     H1       HT       0.417000       1.00800           0
     36185 TIP3     5823     TIP3     H2       HT       0.417000       1.00800           0
     36186 TIP3     5824     TIP3     OH2      OT      -0.834000       15.9994           0
     36187 TIP3     5824     TIP3     H1       HT       0.417000       1.00800           0
     36188 TIP3     5824     TIP3     H2       HT       0.417000       1.00800           0
     36189 TIP3     5825     TIP3     OH2      OT      -0.834000       15.9994           0
     36190 TIP3     5825     TIP3     H1       HT       0.417000       1.00800           0
     36191 TIP3     5825     TIP3     H2       HT       0.417000       1.00800           0
     36192 TIP3     5826     TIP3     OH2      OT      -0.834000       15.9994           0
     36193 TIP3     5826     TIP3     H1       HT       0.417000       1.00800           0
     36194 TIP3     5826     TIP3     H2       HT       0.417000       1.00800           0
     36195 TIP3     5827     TIP3     OH2      OT      -0.834000       15.9994           0
     36196 TIP3     5827     TIP3     H1       HT       0.417000       1.00800           0
     36197 TIP3     5827     TIP3     H2       HT       0.417000       1.00800           0
     36198 TIP3     5828     TIP3     OH2      OT      -0.834000       15.9994           0
     36199 TIP3     5828     TIP3     H1       HT       0.417000       1.00800           0
     36200 TIP3     5828     TIP3     H2       HT       0.417000       1.00800           0
     36201 TIP3     5829     TIP3     OH2      OT      -0.834000       15.9994           0
     36202 TIP3     5829     TIP3     H1       HT       0.417000       1.00800           0
     36203 TIP3     5829     TIP3     H2       HT       0.417000       1.00800           0
     36204 TIP3     5830     TIP3     OH2      OT      -0.834000       15.9994           0
     36205 TIP3     5830     TIP3     H1       HT       0.417000       1.00800           0
     36206 TIP3     5830     TIP3     H2       HT       0.417000       1.00800           0
     36207 TIP3     5831     TIP3     OH2      OT      -0.834000       15.9994           0
     36208 TIP3     5831     TIP3     H1       HT       0.417000       1.00800           0
     36209 TIP3     5831     TIP3     H2       HT       0.417000       1.00800           0
     36210 TIP3     5832     TIP3     OH2      OT      -0.834000       15.9994           0
     36211 TIP3     5832     TIP3     H1       HT       0.417000       1.00800           0
     36212 TIP3     5832     TIP3     H2       HT       0.417000       1.00800           0
     36213 TIP3     5833     TIP3     OH2      OT      -0.834000       15.9994           0
     36214 TIP3     5833     TIP3     H1       HT       0.417000       1.00800           0
     36215 TIP3     5833     TIP3     H2       HT       0.417000       1.00800           0
     36216 TIP3     5834     TIP3     OH2      OT      -0.834000       15.9994           0
     36217 TIP3     5834     TIP3     H1       HT       0.417000       1.00800           0
     36218 TIP3     5834     TIP3     H2       HT       0.417000       1.00800           0
     36219 TIP3     5835     TIP3     OH2      OT      -0.834000       15.9994           0
     36220 TIP3     5835     TIP3     H1       HT       0.417000       1.00800           0
     36221 TIP3     5835     TIP3     H2       HT       0.417000       1.00800           0
     36222 TIP3     5836     TIP3     OH2      OT      -0.834000       15.9994           0
     36223 TIP3     5836     TIP3     H1       HT       0.417000       1.00800           0
     36224 TIP3     5836     TIP3     H2       HT       0.417000       1.00800           0
     36225 TIP3     5837     TIP3     OH2      OT      -0.834000       15.9994           0
     36226 TIP3     5837     TIP3     H1       HT       0.417000       1.00800           0
     36227 TIP3     5837     TIP3     H2       HT       0.417000       1.00800           0
     36228 TIP3     5838     TIP3     OH2      OT      -0.834000       15.9994           0
     36229 TIP3     5838     TIP3     H1       HT       0.417000       1.00800           0
     36230 TIP3     5838     TIP3     H2       HT       0.417000       1.00800           0
     36231 TIP3     5839     TIP3     OH2      OT      -0.834000       15.9994           0
     36232 TIP3     5839     TIP3     H1       HT       0.417000       1.00800           0
     36233 TIP3     5839     TIP3     H2       HT       0.417000       1.00800           0
     36234 TIP3     5840     TIP3     OH2      OT      -0.834000       15.9994           0
     36235 TIP3     5840     TIP3     H1       HT       0.417000       1.00800           0
     36236 TIP3     5840     TIP3     H2       HT       0.417000       1.00800           0
     36237 TIP3     5841     TIP3     OH2      OT      -0.834000       15.9994           0
     36238 TIP3     5841     TIP3     H1       HT       0.417000       1.00800           0
     36239 TIP3     5841     TIP3     H2       HT       0.417000       1.00800           0
     36240 TIP3     5842     TIP3     OH2      OT      -0.834000       15.9994           0
     36241 TIP3     5842     TIP3     H1       HT       0.417000       1.00800           0
     36242 TIP3     5842     TIP3     H2       HT       0.417000       1.00800           0
     36243 TIP3     5843     TIP3     OH2      OT      -0.834000       15.9994           0
     36244 TIP3     5843     TIP3     H1       HT       0.417000       1.00800           0
     36245 TIP3     5843     TIP3     H2       HT       0.417000       1.00800           0
     36246 TIP3     5844     TIP3     OH2      OT      -0.834000       15.9994           0
     36247 TIP3     5844     TIP3     H1       HT       0.417000       1.00800           0
     36248 TIP3     5844     TIP3     H2       HT       0.417000       1.00800           0
     36249 TIP3     5845     TIP3     OH2      OT      -0.834000       15.9994           0
     36250 TIP3     5845     TIP3     H1       HT       0.417000       1.00800           0
     36251 TIP3     5845     TIP3     H2       HT       0.417000       1.00800           0
     36252 TIP3     5846     TIP3     OH2      OT      -0.834000       15.9994           0
     36253 TIP3     5846     TIP3     H1       HT       0.417000       1.00800           0
     36254 TIP3     5846     TIP3     H2       HT       0.417000       1.00800           0
     36255 TIP3     5847     TIP3     OH2      OT      -0.834000       15.9994           0
     36256 TIP3     5847     TIP3     H1       HT       0.417000       1.00800           0
     36257 TIP3     5847     TIP3     H2       HT       0.417000       1.00800           0
     36258 TIP3     5848     TIP3     OH2      OT      -0.834000       15.9994           0
     36259 TIP3     5848     TIP3     H1       HT       0.417000       1.00800           0
     36260 TIP3     5848     TIP3     H2       HT       0.417000       1.00800           0
     36261 TIP3     5849     TIP3     OH2      OT      -0.834000       15.9994           0
     36262 TIP3     5849     TIP3     H1       HT       0.417000       1.00800           0
     36263 TIP3     5849     TIP3     H2       HT       0.417000       1.00800           0
     36264 TIP3     5850     TIP3     OH2      OT      -0.834000       15.9994           0
     36265 TIP3     5850     TIP3     H1       HT       0.417000       1.00800           0
     36266 TIP3     5850     TIP3     H2       HT       0.417000       1.00800           0
     36267 TIP3     5851     TIP3     OH2      OT      -0.834000       15.9994           0
     36268 TIP3     5851     TIP3     H1       HT       0.417000       1.00800           0
     36269 TIP3     5851     TIP3     H2       HT       0.417000       1.00800           0
     36270 TIP3     5852     TIP3     OH2      OT      -0.834000       15.9994           0
     36271 TIP3     5852     TIP3     H1       HT       0.417000       1.00800           0
     36272 TIP3     5852     TIP3     H2       HT       0.417000       1.00800           0
     36273 TIP3     5853     TIP3     OH2      OT      -0.834000       15.9994           0
     36274 TIP3     5853     TIP3     H1       HT       0.417000       1.00800           0
     36275 TIP3     5853     TIP3     H2       HT       0.417000       1.00800           0
     36276 TIP3     5854     TIP3     OH2      OT      -0.834000       15.9994           0
     36277 TIP3     5854     TIP3     H1       HT       0.417000       1.00800           0
     36278 TIP3     5854     TIP3     H2       HT       0.417000       1.00800           0
     36279 TIP3     5855     TIP3     OH2      OT      -0.834000       15.9994           0
     36280 TIP3     5855     TIP3     H1       HT       0.417000       1.00800           0
     36281 TIP3     5855     TIP3     H2       HT       0.417000       1.00800           0
     36282 TIP3     5856     TIP3     OH2      OT      -0.834000       15.9994           0
     36283 TIP3     5856     TIP3     H1       HT       0.417000       1.00800           0
     36284 TIP3     5856     TIP3     H2       HT       0.417000       1.00800           0
     36285 TIP3     5857     TIP3     OH2      OT      -0.834000       15.9994           0
     36286 TIP3     5857     TIP3     H1       HT       0.417000       1.00800           0
     36287 TIP3     5857     TIP3     H2       HT       0.417000       1.00800           0
     36288 TIP3     5858     TIP3     OH2      OT      -0.834000       15.9994           0
     36289 TIP3     5858     TIP3     H1       HT       0.417000       1.00800           0
     36290 TIP3     5858     TIP3     H2       HT       0.417000       1.00800           0
     36291 TIP3     5859     TIP3     OH2      OT      -0.834000       15.9994           0
     36292 TIP3     5859     TIP3     H1       HT       0.417000       1.00800           0
     36293 TIP3     5859     TIP3     H2       HT       0.417000       1.00800           0
     36294 TIP3     5860     TIP3     OH2      OT      -0.834000       15.9994           0
     36295 TIP3     5860     TIP3     H1       HT       0.417000       1.00800           0
     36296 TIP3     5860     TIP3     H2       HT       0.417000       1.00800           0
     36297 TIP3     5861     TIP3     OH2      OT      -0.834000       15.9994           0
     36298 TIP3     5861     TIP3     H1       HT       0.417000       1.00800           0
     36299 TIP3     5861     TIP3     H2       HT       0.417000       1.00800           0
     36300 TIP3     5862     TIP3     OH2      OT      -0.834000       15.9994           0
     36301 TIP3     5862     TIP3     H1       HT       0.417000       1.00800           0
     36302 TIP3     5862     TIP3     H2       HT       0.417000       1.00800           0
     36303 TIP3     5863     TIP3     OH2      OT      -0.834000       15.9994           0
     36304 TIP3     5863     TIP3     H1       HT       0.417000       1.00800           0
     36305 TIP3     5863     TIP3     H2       HT       0.417000       1.00800           0
     36306 TIP3     5864     TIP3     OH2      OT      -0.834000       15.9994           0
     36307 TIP3     5864     TIP3     H1       HT       0.417000       1.00800           0
     36308 TIP3     5864     TIP3     H2       HT       0.417000       1.00800           0
     36309 TIP3     5865     TIP3     OH2      OT      -0.834000       15.9994           0
     36310 TIP3     5865     TIP3     H1       HT       0.417000       1.00800           0
     36311 TIP3     5865     TIP3     H2       HT       0.417000       1.00800           0
     36312 TIP3     5866     TIP3     OH2      OT      -0.834000       15.9994           0
     36313 TIP3     5866     TIP3     H1       HT       0.417000       1.00800           0
     36314 TIP3     5866     TIP3     H2       HT       0.417000       1.00800           0
     36315 TIP3     5867     TIP3     OH2      OT      -0.834000       15.9994           0
     36316 TIP3     5867     TIP3     H1       HT       0.417000       1.00800           0
     36317 TIP3     5867     TIP3     H2       HT       0.417000       1.00800           0
     36318 TIP3     5868     TIP3     OH2      OT      -0.834000       15.9994           0
     36319 TIP3     5868     TIP3     H1       HT       0.417000       1.00800           0
     36320 TIP3     5868     TIP3     H2       HT       0.417000       1.00800           0
     36321 TIP3     5869     TIP3     OH2      OT      -0.834000       15.9994           0
     36322 TIP3     5869     TIP3     H1       HT       0.417000       1.00800           0
     36323 TIP3     5869     TIP3     H2       HT       0.417000       1.00800           0
     36324 TIP3     5870     TIP3     OH2      OT      -0.834000       15.9994           0
     36325 TIP3     5870     TIP3     H1       HT       0.417000       1.00800           0
     36326 TIP3     5870     TIP3     H2       HT       0.417000       1.00800           0
     36327 TIP3     5871     TIP3     OH2      OT      -0.834000       15.9994           0
     36328 TIP3     5871     TIP3     H1       HT       0.417000       1.00800           0
     36329 TIP3     5871     TIP3     H2       HT       0.417000       1.00800           0
     36330 TIP3     5872     TIP3     OH2      OT      -0.834000       15.9994           0
     36331 TIP3     5872     TIP3     H1       HT       0.417000       1.00800           0
     36332 TIP3     5872     TIP3     H2       HT       0.417000       1.00800           0
     36333 TIP3     5873     TIP3     OH2      OT      -0.834000       15.9994           0
     36334 TIP3     5873     TIP3     H1       HT       0.417000       1.00800           0
     36335 TIP3     5873     TIP3     H2       HT       0.417000       1.00800           0
     36336 TIP3     5874     TIP3     OH2      OT      -0.834000       15.9994           0
     36337 TIP3     5874     TIP3     H1       HT       0.417000       1.00800           0
     36338 TIP3     5874     TIP3     H2       HT       0.417000       1.00800           0
     36339 TIP3     5875     TIP3     OH2      OT      -0.834000       15.9994           0
     36340 TIP3     5875     TIP3     H1       HT       0.417000       1.00800           0
     36341 TIP3     5875     TIP3     H2       HT       0.417000       1.00800           0
     36342 TIP3     5876     TIP3     OH2      OT      -0.834000       15.9994           0
     36343 TIP3     5876     TIP3     H1       HT       0.417000       1.00800           0
     36344 TIP3     5876     TIP3     H2       HT       0.417000       1.00800           0
     36345 TIP3     5877     TIP3     OH2      OT      -0.834000       15.9994           0
     36346 TIP3     5877     TIP3     H1       HT       0.417000       1.00800           0
     36347 TIP3     5877     TIP3     H2       HT       0.417000       1.00800           0
     36348 TIP3     5878     TIP3     OH2      OT      -0.834000       15.9994           0
     36349 TIP3     5878     TIP3     H1       HT       0.417000       1.00800           0
     36350 TIP3     5878     TIP3     H2       HT       0.417000       1.00800           0
     36351 TIP3     5879     TIP3     OH2      OT      -0.834000       15.9994           0
     36352 TIP3     5879     TIP3     H1       HT       0.417000       1.00800           0
     36353 TIP3     5879     TIP3     H2       HT       0.417000       1.00800           0
     36354 TIP3     5880     TIP3     OH2      OT      -0.834000       15.9994           0
     36355 TIP3     5880     TIP3     H1       HT       0.417000       1.00800           0
     36356 TIP3     5880     TIP3     H2       HT       0.417000       1.00800           0
     36357 TIP3     5881     TIP3     OH2      OT      -0.834000       15.9994           0
     36358 TIP3     5881     TIP3     H1       HT       0.417000       1.00800           0
     36359 TIP3     5881     TIP3     H2       HT       0.417000       1.00800           0
     36360 TIP3     5882     TIP3     OH2      OT      -0.834000       15.9994           0
     36361 TIP3     5882     TIP3     H1       HT       0.417000       1.00800           0
     36362 TIP3     5882     TIP3     H2       HT       0.417000       1.00800           0
     36363 TIP3     5883     TIP3     OH2      OT      -0.834000       15.9994           0
     36364 TIP3     5883     TIP3     H1       HT       0.417000       1.00800           0
     36365 TIP3     5883     TIP3     H2       HT       0.417000       1.00800           0
     36366 TIP3     5884     TIP3     OH2      OT      -0.834000       15.9994           0
     36367 TIP3     5884     TIP3     H1       HT       0.417000       1.00800           0
     36368 TIP3     5884     TIP3     H2       HT       0.417000       1.00800           0
     36369 TIP3     5885     TIP3     OH2      OT      -0.834000       15.9994           0
     36370 TIP3     5885     TIP3     H1       HT       0.417000       1.00800           0
     36371 TIP3     5885     TIP3     H2       HT       0.417000       1.00800           0
     36372 TIP3     5886     TIP3     OH2      OT      -0.834000       15.9994           0
     36373 TIP3     5886     TIP3     H1       HT       0.417000       1.00800           0
     36374 TIP3     5886     TIP3     H2       HT       0.417000       1.00800           0
     36375 TIP3     5887     TIP3     OH2      OT      -0.834000       15.9994           0
     36376 TIP3     5887     TIP3     H1       HT       0.417000       1.00800           0
     36377 TIP3     5887     TIP3     H2       HT       0.417000       1.00800           0
     36378 TIP3     5888     TIP3     OH2      OT      -0.834000       15.9994           0
     36379 TIP3     5888     TIP3     H1       HT       0.417000       1.00800           0
     36380 TIP3     5888     TIP3     H2       HT       0.417000       1.00800           0
     36381 TIP3     5889     TIP3     OH2      OT      -0.834000       15.9994           0
     36382 TIP3     5889     TIP3     H1       HT       0.417000       1.00800           0
     36383 TIP3     5889     TIP3     H2       HT       0.417000       1.00800           0
     36384 TIP3     5890     TIP3     OH2      OT      -0.834000       15.9994           0
     36385 TIP3     5890     TIP3     H1       HT       0.417000       1.00800           0
     36386 TIP3     5890     TIP3     H2       HT       0.417000       1.00800           0
     36387 TIP3     5891     TIP3     OH2      OT      -0.834000       15.9994           0
     36388 TIP3     5891     TIP3     H1       HT       0.417000       1.00800           0
     36389 TIP3     5891     TIP3     H2       HT       0.417000       1.00800           0
     36390 TIP3     5892     TIP3     OH2      OT      -0.834000       15.9994           0
     36391 TIP3     5892     TIP3     H1       HT       0.417000       1.00800           0
     36392 TIP3     5892     TIP3     H2       HT       0.417000       1.00800           0
     36393 TIP3     5893     TIP3     OH2      OT      -0.834000       15.9994           0
     36394 TIP3     5893     TIP3     H1       HT       0.417000       1.00800           0
     36395 TIP3     5893     TIP3     H2       HT       0.417000       1.00800           0
     36396 TIP3     5894     TIP3     OH2      OT      -0.834000       15.9994           0
     36397 TIP3     5894     TIP3     H1       HT       0.417000       1.00800           0
     36398 TIP3     5894     TIP3     H2       HT       0.417000       1.00800           0
     36399 TIP3     5895     TIP3     OH2      OT      -0.834000       15.9994           0
     36400 TIP3     5895     TIP3     H1       HT       0.417000       1.00800           0
     36401 TIP3     5895     TIP3     H2       HT       0.417000       1.00800           0
     36402 TIP3     5896     TIP3     OH2      OT      -0.834000       15.9994           0
     36403 TIP3     5896     TIP3     H1       HT       0.417000       1.00800           0
     36404 TIP3     5896     TIP3     H2       HT       0.417000       1.00800           0
     36405 TIP3     5897     TIP3     OH2      OT      -0.834000       15.9994           0
     36406 TIP3     5897     TIP3     H1       HT       0.417000       1.00800           0
     36407 TIP3     5897     TIP3     H2       HT       0.417000       1.00800           0
     36408 TIP3     5898     TIP3     OH2      OT      -0.834000       15.9994           0
     36409 TIP3     5898     TIP3     H1       HT       0.417000       1.00800           0
     36410 TIP3     5898     TIP3     H2       HT       0.417000       1.00800           0
     36411 TIP3     5899     TIP3     OH2      OT      -0.834000       15.9994           0
     36412 TIP3     5899     TIP3     H1       HT       0.417000       1.00800           0
     36413 TIP3     5899     TIP3     H2       HT       0.417000       1.00800           0
     36414 TIP3     5900     TIP3     OH2      OT      -0.834000       15.9994           0
     36415 TIP3     5900     TIP3     H1       HT       0.417000       1.00800           0
     36416 TIP3     5900     TIP3     H2       HT       0.417000       1.00800           0
     36417 TIP3     5901     TIP3     OH2      OT      -0.834000       15.9994           0
     36418 TIP3     5901     TIP3     H1       HT       0.417000       1.00800           0
     36419 TIP3     5901     TIP3     H2       HT       0.417000       1.00800           0
     36420 TIP3     5902     TIP3     OH2      OT      -0.834000       15.9994           0
     36421 TIP3     5902     TIP3     H1       HT       0.417000       1.00800           0
     36422 TIP3     5902     TIP3     H2       HT       0.417000       1.00800           0
     36423 TIP3     5903     TIP3     OH2      OT      -0.834000       15.9994           0
     36424 TIP3     5903     TIP3     H1       HT       0.417000       1.00800           0
     36425 TIP3     5903     TIP3     H2       HT       0.417000       1.00800           0
     36426 TIP3     5904     TIP3     OH2      OT      -0.834000       15.9994           0
     36427 TIP3     5904     TIP3     H1       HT       0.417000       1.00800           0
     36428 TIP3     5904     TIP3     H2       HT       0.417000       1.00800           0
     36429 TIP3     5905     TIP3     OH2      OT      -0.834000       15.9994           0
     36430 TIP3     5905     TIP3     H1       HT       0.417000       1.00800           0
     36431 TIP3     5905     TIP3     H2       HT       0.417000       1.00800           0
     36432 TIP3     5906     TIP3     OH2      OT      -0.834000       15.9994           0
     36433 TIP3     5906     TIP3     H1       HT       0.417000       1.00800           0
     36434 TIP3     5906     TIP3     H2       HT       0.417000       1.00800           0
     36435 TIP3     5907     TIP3     OH2      OT      -0.834000       15.9994           0
     36436 TIP3     5907     TIP3     H1       HT       0.417000       1.00800           0
     36437 TIP3     5907     TIP3     H2       HT       0.417000       1.00800           0
     36438 TIP3     5908     TIP3     OH2      OT      -0.834000       15.9994           0
     36439 TIP3     5908     TIP3     H1       HT       0.417000       1.00800           0
     36440 TIP3     5908     TIP3     H2       HT       0.417000       1.00800           0
     36441 TIP3     5909     TIP3     OH2      OT      -0.834000       15.9994           0
     36442 TIP3     5909     TIP3     H1       HT       0.417000       1.00800           0
     36443 TIP3     5909     TIP3     H2       HT       0.417000       1.00800           0
     36444 TIP3     5910     TIP3     OH2      OT      -0.834000       15.9994           0
     36445 TIP3     5910     TIP3     H1       HT       0.417000       1.00800           0
     36446 TIP3     5910     TIP3     H2       HT       0.417000       1.00800           0
     36447 TIP3     5911     TIP3     OH2      OT      -0.834000       15.9994           0
     36448 TIP3     5911     TIP3     H1       HT       0.417000       1.00800           0
     36449 TIP3     5911     TIP3     H2       HT       0.417000       1.00800           0
     36450 TIP3     5912     TIP3     OH2      OT      -0.834000       15.9994           0
     36451 TIP3     5912     TIP3     H1       HT       0.417000       1.00800           0
     36452 TIP3     5912     TIP3     H2       HT       0.417000       1.00800           0
     36453 TIP3     5913     TIP3     OH2      OT      -0.834000       15.9994           0
     36454 TIP3     5913     TIP3     H1       HT       0.417000       1.00800           0
     36455 TIP3     5913     TIP3     H2       HT       0.417000       1.00800           0
     36456 TIP3     5914     TIP3     OH2      OT      -0.834000       15.9994           0
     36457 TIP3     5914     TIP3     H1       HT       0.417000       1.00800           0
     36458 TIP3     5914     TIP3     H2       HT       0.417000       1.00800           0
     36459 TIP3     5915     TIP3     OH2      OT      -0.834000       15.9994           0
     36460 TIP3     5915     TIP3     H1       HT       0.417000       1.00800           0
     36461 TIP3     5915     TIP3     H2       HT       0.417000       1.00800           0
     36462 TIP3     5916     TIP3     OH2      OT      -0.834000       15.9994           0
     36463 TIP3     5916     TIP3     H1       HT       0.417000       1.00800           0
     36464 TIP3     5916     TIP3     H2       HT       0.417000       1.00800           0
     36465 TIP3     5917     TIP3     OH2      OT      -0.834000       15.9994           0
     36466 TIP3     5917     TIP3     H1       HT       0.417000       1.00800           0
     36467 TIP3     5917     TIP3     H2       HT       0.417000       1.00800           0
     36468 TIP3     5918     TIP3     OH2      OT      -0.834000       15.9994           0
     36469 TIP3     5918     TIP3     H1       HT       0.417000       1.00800           0
     36470 TIP3     5918     TIP3     H2       HT       0.417000       1.00800           0
     36471 TIP3     5919     TIP3     OH2      OT      -0.834000       15.9994           0
     36472 TIP3     5919     TIP3     H1       HT       0.417000       1.00800           0
     36473 TIP3     5919     TIP3     H2       HT       0.417000       1.00800           0
     36474 TIP3     5920     TIP3     OH2      OT      -0.834000       15.9994           0
     36475 TIP3     5920     TIP3     H1       HT       0.417000       1.00800           0
     36476 TIP3     5920     TIP3     H2       HT       0.417000       1.00800           0
     36477 TIP3     5921     TIP3     OH2      OT      -0.834000       15.9994           0
     36478 TIP3     5921     TIP3     H1       HT       0.417000       1.00800           0
     36479 TIP3     5921     TIP3     H2       HT       0.417000       1.00800           0
     36480 TIP3     5922     TIP3     OH2      OT      -0.834000       15.9994           0
     36481 TIP3     5922     TIP3     H1       HT       0.417000       1.00800           0
     36482 TIP3     5922     TIP3     H2       HT       0.417000       1.00800           0
     36483 TIP3     5923     TIP3     OH2      OT      -0.834000       15.9994           0
     36484 TIP3     5923     TIP3     H1       HT       0.417000       1.00800           0
     36485 TIP3     5923     TIP3     H2       HT       0.417000       1.00800           0
     36486 TIP3     5924     TIP3     OH2      OT      -0.834000       15.9994           0
     36487 TIP3     5924     TIP3     H1       HT       0.417000       1.00800           0
     36488 TIP3     5924     TIP3     H2       HT       0.417000       1.00800           0
     36489 TIP3     5925     TIP3     OH2      OT      -0.834000       15.9994           0
     36490 TIP3     5925     TIP3     H1       HT       0.417000       1.00800           0
     36491 TIP3     5925     TIP3     H2       HT       0.417000       1.00800           0
     36492 TIP3     5926     TIP3     OH2      OT      -0.834000       15.9994           0
     36493 TIP3     5926     TIP3     H1       HT       0.417000       1.00800           0
     36494 TIP3     5926     TIP3     H2       HT       0.417000       1.00800           0
     36495 TIP3     5927     TIP3     OH2      OT      -0.834000       15.9994           0
     36496 TIP3     5927     TIP3     H1       HT       0.417000       1.00800           0
     36497 TIP3     5927     TIP3     H2       HT       0.417000       1.00800           0
     36498 TIP3     5928     TIP3     OH2      OT      -0.834000       15.9994           0
     36499 TIP3     5928     TIP3     H1       HT       0.417000       1.00800           0
     36500 TIP3     5928     TIP3     H2       HT       0.417000       1.00800           0
     36501 TIP3     5929     TIP3     OH2      OT      -0.834000       15.9994           0
     36502 TIP3     5929     TIP3     H1       HT       0.417000       1.00800           0
     36503 TIP3     5929     TIP3     H2       HT       0.417000       1.00800           0
     36504 TIP3     5930     TIP3     OH2      OT      -0.834000       15.9994           0
     36505 TIP3     5930     TIP3     H1       HT       0.417000       1.00800           0
     36506 TIP3     5930     TIP3     H2       HT       0.417000       1.00800           0
     36507 TIP3     5931     TIP3     OH2      OT      -0.834000       15.9994           0
     36508 TIP3     5931     TIP3     H1       HT       0.417000       1.00800           0
     36509 TIP3     5931     TIP3     H2       HT       0.417000       1.00800           0
     36510 TIP3     5932     TIP3     OH2      OT      -0.834000       15.9994           0
     36511 TIP3     5932     TIP3     H1       HT       0.417000       1.00800           0
     36512 TIP3     5932     TIP3     H2       HT       0.417000       1.00800           0
     36513 TIP3     5933     TIP3     OH2      OT      -0.834000       15.9994           0
     36514 TIP3     5933     TIP3     H1       HT       0.417000       1.00800           0
     36515 TIP3     5933     TIP3     H2       HT       0.417000       1.00800           0
     36516 TIP3     5934     TIP3     OH2      OT      -0.834000       15.9994           0
     36517 TIP3     5934     TIP3     H1       HT       0.417000       1.00800           0
     36518 TIP3     5934     TIP3     H2       HT       0.417000       1.00800           0
     36519 TIP3     5935     TIP3     OH2      OT      -0.834000       15.9994           0
     36520 TIP3     5935     TIP3     H1       HT       0.417000       1.00800           0
     36521 TIP3     5935     TIP3     H2       HT       0.417000       1.00800           0
     36522 TIP3     5936     TIP3     OH2      OT      -0.834000       15.9994           0
     36523 TIP3     5936     TIP3     H1       HT       0.417000       1.00800           0
     36524 TIP3     5936     TIP3     H2       HT       0.417000       1.00800           0
     36525 TIP3     5937     TIP3     OH2      OT      -0.834000       15.9994           0
     36526 TIP3     5937     TIP3     H1       HT       0.417000       1.00800           0
     36527 TIP3     5937     TIP3     H2       HT       0.417000       1.00800           0
     36528 TIP3     5938     TIP3     OH2      OT      -0.834000       15.9994           0
     36529 TIP3     5938     TIP3     H1       HT       0.417000       1.00800           0
     36530 TIP3     5938     TIP3     H2       HT       0.417000       1.00800           0
     36531 TIP3     5939     TIP3     OH2      OT      -0.834000       15.9994           0
     36532 TIP3     5939     TIP3     H1       HT       0.417000       1.00800           0
     36533 TIP3     5939     TIP3     H2       HT       0.417000       1.00800           0
     36534 TIP3     5940     TIP3     OH2      OT      -0.834000       15.9994           0
     36535 TIP3     5940     TIP3     H1       HT       0.417000       1.00800           0
     36536 TIP3     5940     TIP3     H2       HT       0.417000       1.00800           0
     36537 TIP3     5941     TIP3     OH2      OT      -0.834000       15.9994           0
     36538 TIP3     5941     TIP3     H1       HT       0.417000       1.00800           0
     36539 TIP3     5941     TIP3     H2       HT       0.417000       1.00800           0
     36540 TIP3     5942     TIP3     OH2      OT      -0.834000       15.9994           0
     36541 TIP3     5942     TIP3     H1       HT       0.417000       1.00800           0
     36542 TIP3     5942     TIP3     H2       HT       0.417000       1.00800           0
     36543 TIP3     5943     TIP3     OH2      OT      -0.834000       15.9994           0
     36544 TIP3     5943     TIP3     H1       HT       0.417000       1.00800           0
     36545 TIP3     5943     TIP3     H2       HT       0.417000       1.00800           0
     36546 TIP3     5944     TIP3     OH2      OT      -0.834000       15.9994           0
     36547 TIP3     5944     TIP3     H1       HT       0.417000       1.00800           0
     36548 TIP3     5944     TIP3     H2       HT       0.417000       1.00800           0
     36549 TIP3     5945     TIP3     OH2      OT      -0.834000       15.9994           0
     36550 TIP3     5945     TIP3     H1       HT       0.417000       1.00800           0
     36551 TIP3     5945     TIP3     H2       HT       0.417000       1.00800           0
     36552 TIP3     5946     TIP3     OH2      OT      -0.834000       15.9994           0
     36553 TIP3     5946     TIP3     H1       HT       0.417000       1.00800           0
     36554 TIP3     5946     TIP3     H2       HT       0.417000       1.00800           0
     36555 TIP3     5947     TIP3     OH2      OT      -0.834000       15.9994           0
     36556 TIP3     5947     TIP3     H1       HT       0.417000       1.00800           0
     36557 TIP3     5947     TIP3     H2       HT       0.417000       1.00800           0
     36558 TIP3     5948     TIP3     OH2      OT      -0.834000       15.9994           0
     36559 TIP3     5948     TIP3     H1       HT       0.417000       1.00800           0
     36560 TIP3     5948     TIP3     H2       HT       0.417000       1.00800           0
     36561 TIP3     5949     TIP3     OH2      OT      -0.834000       15.9994           0
     36562 TIP3     5949     TIP3     H1       HT       0.417000       1.00800           0
     36563 TIP3     5949     TIP3     H2       HT       0.417000       1.00800           0
     36564 TIP3     5950     TIP3     OH2      OT      -0.834000       15.9994           0
     36565 TIP3     5950     TIP3     H1       HT       0.417000       1.00800           0
     36566 TIP3     5950     TIP3     H2       HT       0.417000       1.00800           0
     36567 TIP3     5951     TIP3     OH2      OT      -0.834000       15.9994           0
     36568 TIP3     5951     TIP3     H1       HT       0.417000       1.00800           0
     36569 TIP3     5951     TIP3     H2       HT       0.417000       1.00800           0
     36570 TIP3     5952     TIP3     OH2      OT      -0.834000       15.9994           0
     36571 TIP3     5952     TIP3     H1       HT       0.417000       1.00800           0
     36572 TIP3     5952     TIP3     H2       HT       0.417000       1.00800           0
     36573 TIP3     5953     TIP3     OH2      OT      -0.834000       15.9994           0
     36574 TIP3     5953     TIP3     H1       HT       0.417000       1.00800           0
     36575 TIP3     5953     TIP3     H2       HT       0.417000       1.00800           0
     36576 TIP3     5954     TIP3     OH2      OT      -0.834000       15.9994           0
     36577 TIP3     5954     TIP3     H1       HT       0.417000       1.00800           0
     36578 TIP3     5954     TIP3     H2       HT       0.417000       1.00800           0
     36579 TIP3     5955     TIP3     OH2      OT      -0.834000       15.9994           0
     36580 TIP3     5955     TIP3     H1       HT       0.417000       1.00800           0
     36581 TIP3     5955     TIP3     H2       HT       0.417000       1.00800           0
     36582 TIP3     5956     TIP3     OH2      OT      -0.834000       15.9994           0
     36583 TIP3     5956     TIP3     H1       HT       0.417000       1.00800           0
     36584 TIP3     5956     TIP3     H2       HT       0.417000       1.00800           0
     36585 TIP3     5957     TIP3     OH2      OT      -0.834000       15.9994           0
     36586 TIP3     5957     TIP3     H1       HT       0.417000       1.00800           0
     36587 TIP3     5957     TIP3     H2       HT       0.417000       1.00800           0
     36588 TIP3     5958     TIP3     OH2      OT      -0.834000       15.9994           0
     36589 TIP3     5958     TIP3     H1       HT       0.417000       1.00800           0
     36590 TIP3     5958     TIP3     H2       HT       0.417000       1.00800           0
     36591 TIP3     5959     TIP3     OH2      OT      -0.834000       15.9994           0
     36592 TIP3     5959     TIP3     H1       HT       0.417000       1.00800           0
     36593 TIP3     5959     TIP3     H2       HT       0.417000       1.00800           0
     36594 TIP3     5960     TIP3     OH2      OT      -0.834000       15.9994           0
     36595 TIP3     5960     TIP3     H1       HT       0.417000       1.00800           0
     36596 TIP3     5960     TIP3     H2       HT       0.417000       1.00800           0
     36597 TIP3     5961     TIP3     OH2      OT      -0.834000       15.9994           0
     36598 TIP3     5961     TIP3     H1       HT       0.417000       1.00800           0
     36599 TIP3     5961     TIP3     H2       HT       0.417000       1.00800           0
     36600 TIP3     5962     TIP3     OH2      OT      -0.834000       15.9994           0
     36601 TIP3     5962     TIP3     H1       HT       0.417000       1.00800           0
     36602 TIP3     5962     TIP3     H2       HT       0.417000       1.00800           0
     36603 TIP3     5963     TIP3     OH2      OT      -0.834000       15.9994           0
     36604 TIP3     5963     TIP3     H1       HT       0.417000       1.00800           0
     36605 TIP3     5963     TIP3     H2       HT       0.417000       1.00800           0
     36606 TIP3     5964     TIP3     OH2      OT      -0.834000       15.9994           0
     36607 TIP3     5964     TIP3     H1       HT       0.417000       1.00800           0
     36608 TIP3     5964     TIP3     H2       HT       0.417000       1.00800           0
     36609 TIP3     5965     TIP3     OH2      OT      -0.834000       15.9994           0
     36610 TIP3     5965     TIP3     H1       HT       0.417000       1.00800           0
     36611 TIP3     5965     TIP3     H2       HT       0.417000       1.00800           0
     36612 TIP3     5966     TIP3     OH2      OT      -0.834000       15.9994           0
     36613 TIP3     5966     TIP3     H1       HT       0.417000       1.00800           0
     36614 TIP3     5966     TIP3     H2       HT       0.417000       1.00800           0
     36615 TIP3     5967     TIP3     OH2      OT      -0.834000       15.9994           0
     36616 TIP3     5967     TIP3     H1       HT       0.417000       1.00800           0
     36617 TIP3     5967     TIP3     H2       HT       0.417000       1.00800           0
     36618 TIP3     5968     TIP3     OH2      OT      -0.834000       15.9994           0
     36619 TIP3     5968     TIP3     H1       HT       0.417000       1.00800           0
     36620 TIP3     5968     TIP3     H2       HT       0.417000       1.00800           0
     36621 TIP3     5969     TIP3     OH2      OT      -0.834000       15.9994           0
     36622 TIP3     5969     TIP3     H1       HT       0.417000       1.00800           0
     36623 TIP3     5969     TIP3     H2       HT       0.417000       1.00800           0
     36624 TIP3     5970     TIP3     OH2      OT      -0.834000       15.9994           0
     36625 TIP3     5970     TIP3     H1       HT       0.417000       1.00800           0
     36626 TIP3     5970     TIP3     H2       HT       0.417000       1.00800           0
     36627 TIP3     5971     TIP3     OH2      OT      -0.834000       15.9994           0
     36628 TIP3     5971     TIP3     H1       HT       0.417000       1.00800           0
     36629 TIP3     5971     TIP3     H2       HT       0.417000       1.00800           0
     36630 TIP3     5972     TIP3     OH2      OT      -0.834000       15.9994           0
     36631 TIP3     5972     TIP3     H1       HT       0.417000       1.00800           0
     36632 TIP3     5972     TIP3     H2       HT       0.417000       1.00800           0
     36633 TIP3     5973     TIP3     OH2      OT      -0.834000       15.9994           0
     36634 TIP3     5973     TIP3     H1       HT       0.417000       1.00800           0
     36635 TIP3     5973     TIP3     H2       HT       0.417000       1.00800           0
     36636 TIP3     5974     TIP3     OH2      OT      -0.834000       15.9994           0
     36637 TIP3     5974     TIP3     H1       HT       0.417000       1.00800           0
     36638 TIP3     5974     TIP3     H2       HT       0.417000       1.00800           0
     36639 TIP3     5975     TIP3     OH2      OT      -0.834000       15.9994           0
     36640 TIP3     5975     TIP3     H1       HT       0.417000       1.00800           0
     36641 TIP3     5975     TIP3     H2       HT       0.417000       1.00800           0
     36642 TIP3     5976     TIP3     OH2      OT      -0.834000       15.9994           0
     36643 TIP3     5976     TIP3     H1       HT       0.417000       1.00800           0
     36644 TIP3     5976     TIP3     H2       HT       0.417000       1.00800           0
     36645 TIP3     5977     TIP3     OH2      OT      -0.834000       15.9994           0
     36646 TIP3     5977     TIP3     H1       HT       0.417000       1.00800           0
     36647 TIP3     5977     TIP3     H2       HT       0.417000       1.00800           0
     36648 TIP3     5978     TIP3     OH2      OT      -0.834000       15.9994           0
     36649 TIP3     5978     TIP3     H1       HT       0.417000       1.00800           0
     36650 TIP3     5978     TIP3     H2       HT       0.417000       1.00800           0
     36651 TIP3     5979     TIP3     OH2      OT      -0.834000       15.9994           0
     36652 TIP3     5979     TIP3     H1       HT       0.417000       1.00800           0
     36653 TIP3     5979     TIP3     H2       HT       0.417000       1.00800           0
     36654 TIP3     5980     TIP3     OH2      OT      -0.834000       15.9994           0
     36655 TIP3     5980     TIP3     H1       HT       0.417000       1.00800           0
     36656 TIP3     5980     TIP3     H2       HT       0.417000       1.00800           0
     36657 TIP3     5981     TIP3     OH2      OT      -0.834000       15.9994           0
     36658 TIP3     5981     TIP3     H1       HT       0.417000       1.00800           0
     36659 TIP3     5981     TIP3     H2       HT       0.417000       1.00800           0
     36660 TIP3     5982     TIP3     OH2      OT      -0.834000       15.9994           0
     36661 TIP3     5982     TIP3     H1       HT       0.417000       1.00800           0
     36662 TIP3     5982     TIP3     H2       HT       0.417000       1.00800           0
     36663 TIP3     5983     TIP3     OH2      OT      -0.834000       15.9994           0
     36664 TIP3     5983     TIP3     H1       HT       0.417000       1.00800           0
     36665 TIP3     5983     TIP3     H2       HT       0.417000       1.00800           0
     36666 TIP3     5984     TIP3     OH2      OT      -0.834000       15.9994           0
     36667 TIP3     5984     TIP3     H1       HT       0.417000       1.00800           0
     36668 TIP3     5984     TIP3     H2       HT       0.417000       1.00800           0
     36669 TIP3     5985     TIP3     OH2      OT      -0.834000       15.9994           0
     36670 TIP3     5985     TIP3     H1       HT       0.417000       1.00800           0
     36671 TIP3     5985     TIP3     H2       HT       0.417000       1.00800           0
     36672 TIP3     5986     TIP3     OH2      OT      -0.834000       15.9994           0
     36673 TIP3     5986     TIP3     H1       HT       0.417000       1.00800           0
     36674 TIP3     5986     TIP3     H2       HT       0.417000       1.00800           0
     36675 TIP3     5987     TIP3     OH2      OT      -0.834000       15.9994           0
     36676 TIP3     5987     TIP3     H1       HT       0.417000       1.00800           0
     36677 TIP3     5987     TIP3     H2       HT       0.417000       1.00800           0
     36678 TIP3     5988     TIP3     OH2      OT      -0.834000       15.9994           0
     36679 TIP3     5988     TIP3     H1       HT       0.417000       1.00800           0
     36680 TIP3     5988     TIP3     H2       HT       0.417000       1.00800           0
     36681 TIP3     5989     TIP3     OH2      OT      -0.834000       15.9994           0
     36682 TIP3     5989     TIP3     H1       HT       0.417000       1.00800           0
     36683 TIP3     5989     TIP3     H2       HT       0.417000       1.00800           0
     36684 TIP3     5990     TIP3     OH2      OT      -0.834000       15.9994           0
     36685 TIP3     5990     TIP3     H1       HT       0.417000       1.00800           0
     36686 TIP3     5990     TIP3     H2       HT       0.417000       1.00800           0
     36687 TIP3     5991     TIP3     OH2      OT      -0.834000       15.9994           0
     36688 TIP3     5991     TIP3     H1       HT       0.417000       1.00800           0
     36689 TIP3     5991     TIP3     H2       HT       0.417000       1.00800           0
     36690 TIP3     5992     TIP3     OH2      OT      -0.834000       15.9994           0
     36691 TIP3     5992     TIP3     H1       HT       0.417000       1.00800           0
     36692 TIP3     5992     TIP3     H2       HT       0.417000       1.00800           0
     36693 TIP3     5993     TIP3     OH2      OT      -0.834000       15.9994           0
     36694 TIP3     5993     TIP3     H1       HT       0.417000       1.00800           0
     36695 TIP3     5993     TIP3     H2       HT       0.417000       1.00800           0
     36696 TIP3     5994     TIP3     OH2      OT      -0.834000       15.9994           0
     36697 TIP3     5994     TIP3     H1       HT       0.417000       1.00800           0
     36698 TIP3     5994     TIP3     H2       HT       0.417000       1.00800           0
     36699 TIP3     5995     TIP3     OH2      OT      -0.834000       15.9994           0
     36700 TIP3     5995     TIP3     H1       HT       0.417000       1.00800           0
     36701 TIP3     5995     TIP3     H2       HT       0.417000       1.00800           0
     36702 TIP3     5996     TIP3     OH2      OT      -0.834000       15.9994           0
     36703 TIP3     5996     TIP3     H1       HT       0.417000       1.00800           0
     36704 TIP3     5996     TIP3     H2       HT       0.417000       1.00800           0
     36705 TIP3     5997     TIP3     OH2      OT      -0.834000       15.9994           0
     36706 TIP3     5997     TIP3     H1       HT       0.417000       1.00800           0
     36707 TIP3     5997     TIP3     H2       HT       0.417000       1.00800           0
     36708 TIP3     5998     TIP3     OH2      OT      -0.834000       15.9994           0
     36709 TIP3     5998     TIP3     H1       HT       0.417000       1.00800           0
     36710 TIP3     5998     TIP3     H2       HT       0.417000       1.00800           0
     36711 TIP3     5999     TIP3     OH2      OT      -0.834000       15.9994           0
     36712 TIP3     5999     TIP3     H1       HT       0.417000       1.00800           0
     36713 TIP3     5999     TIP3     H2       HT       0.417000       1.00800           0
     36714 TIP3     6000     TIP3     OH2      OT      -0.834000       15.9994           0
     36715 TIP3     6000     TIP3     H1       HT       0.417000       1.00800           0
     36716 TIP3     6000     TIP3     H2       HT       0.417000       1.00800           0
     36717 TIP3     6001     TIP3     OH2      OT      -0.834000       15.9994           0
     36718 TIP3     6001     TIP3     H1       HT       0.417000       1.00800           0
     36719 TIP3     6001     TIP3     H2       HT       0.417000       1.00800           0
     36720 TIP3     6002     TIP3     OH2      OT      -0.834000       15.9994           0
     36721 TIP3     6002     TIP3     H1       HT       0.417000       1.00800           0
     36722 TIP3     6002     TIP3     H2       HT       0.417000       1.00800           0
     36723 TIP3     6003     TIP3     OH2      OT      -0.834000       15.9994           0
     36724 TIP3     6003     TIP3     H1       HT       0.417000       1.00800           0
     36725 TIP3     6003     TIP3     H2       HT       0.417000       1.00800           0
     36726 TIP3     6004     TIP3     OH2      OT      -0.834000       15.9994           0
     36727 TIP3     6004     TIP3     H1       HT       0.417000       1.00800           0
     36728 TIP3     6004     TIP3     H2       HT       0.417000       1.00800           0
     36729 TIP3     6005     TIP3     OH2      OT      -0.834000       15.9994           0
     36730 TIP3     6005     TIP3     H1       HT       0.417000       1.00800           0
     36731 TIP3     6005     TIP3     H2       HT       0.417000       1.00800           0
     36732 TIP3     6006     TIP3     OH2      OT      -0.834000       15.9994           0
     36733 TIP3     6006     TIP3     H1       HT       0.417000       1.00800           0
     36734 TIP3     6006     TIP3     H2       HT       0.417000       1.00800           0
     36735 TIP3     6007     TIP3     OH2      OT      -0.834000       15.9994           0
     36736 TIP3     6007     TIP3     H1       HT       0.417000       1.00800           0
     36737 TIP3     6007     TIP3     H2       HT       0.417000       1.00800           0
     36738 TIP3     6008     TIP3     OH2      OT      -0.834000       15.9994           0
     36739 TIP3     6008     TIP3     H1       HT       0.417000       1.00800           0
     36740 TIP3     6008     TIP3     H2       HT       0.417000       1.00800           0
     36741 TIP3     6009     TIP3     OH2      OT      -0.834000       15.9994           0
     36742 TIP3     6009     TIP3     H1       HT       0.417000       1.00800           0
     36743 TIP3     6009     TIP3     H2       HT       0.417000       1.00800           0
     36744 TIP3     6010     TIP3     OH2      OT      -0.834000       15.9994           0
     36745 TIP3     6010     TIP3     H1       HT       0.417000       1.00800           0
     36746 TIP3     6010     TIP3     H2       HT       0.417000       1.00800           0
     36747 TIP3     6011     TIP3     OH2      OT      -0.834000       15.9994           0
     36748 TIP3     6011     TIP3     H1       HT       0.417000       1.00800           0
     36749 TIP3     6011     TIP3     H2       HT       0.417000       1.00800           0
     36750 TIP3     6012     TIP3     OH2      OT      -0.834000       15.9994           0
     36751 TIP3     6012     TIP3     H1       HT       0.417000       1.00800           0
     36752 TIP3     6012     TIP3     H2       HT       0.417000       1.00800           0
     36753 TIP3     6013     TIP3     OH2      OT      -0.834000       15.9994           0
     36754 TIP3     6013     TIP3     H1       HT       0.417000       1.00800           0
     36755 TIP3     6013     TIP3     H2       HT       0.417000       1.00800           0
     36756 TIP3     6014     TIP3     OH2      OT      -0.834000       15.9994           0
     36757 TIP3     6014     TIP3     H1       HT       0.417000       1.00800           0
     36758 TIP3     6014     TIP3     H2       HT       0.417000       1.00800           0
     36759 TIP3     6015     TIP3     OH2      OT      -0.834000       15.9994           0
     36760 TIP3     6015     TIP3     H1       HT       0.417000       1.00800           0
     36761 TIP3     6015     TIP3     H2       HT       0.417000       1.00800           0
     36762 TIP3     6016     TIP3     OH2      OT      -0.834000       15.9994           0
     36763 TIP3     6016     TIP3     H1       HT       0.417000       1.00800           0
     36764 TIP3     6016     TIP3     H2       HT       0.417000       1.00800           0
     36765 TIP3     6017     TIP3     OH2      OT      -0.834000       15.9994           0
     36766 TIP3     6017     TIP3     H1       HT       0.417000       1.00800           0
     36767 TIP3     6017     TIP3     H2       HT       0.417000       1.00800           0
     36768 TIP3     6018     TIP3     OH2      OT      -0.834000       15.9994           0
     36769 TIP3     6018     TIP3     H1       HT       0.417000       1.00800           0
     36770 TIP3     6018     TIP3     H2       HT       0.417000       1.00800           0
     36771 TIP3     6019     TIP3     OH2      OT      -0.834000       15.9994           0
     36772 TIP3     6019     TIP3     H1       HT       0.417000       1.00800           0
     36773 TIP3     6019     TIP3     H2       HT       0.417000       1.00800           0
     36774 TIP3     6020     TIP3     OH2      OT      -0.834000       15.9994           0
     36775 TIP3     6020     TIP3     H1       HT       0.417000       1.00800           0
     36776 TIP3     6020     TIP3     H2       HT       0.417000       1.00800           0
     36777 TIP3     6021     TIP3     OH2      OT      -0.834000       15.9994           0
     36778 TIP3     6021     TIP3     H1       HT       0.417000       1.00800           0
     36779 TIP3     6021     TIP3     H2       HT       0.417000       1.00800           0
     36780 TIP3     6022     TIP3     OH2      OT      -0.834000       15.9994           0
     36781 TIP3     6022     TIP3     H1       HT       0.417000       1.00800           0
     36782 TIP3     6022     TIP3     H2       HT       0.417000       1.00800           0
     36783 TIP3     6023     TIP3     OH2      OT      -0.834000       15.9994           0
     36784 TIP3     6023     TIP3     H1       HT       0.417000       1.00800           0
     36785 TIP3     6023     TIP3     H2       HT       0.417000       1.00800           0
     36786 TIP3     6024     TIP3     OH2      OT      -0.834000       15.9994           0
     36787 TIP3     6024     TIP3     H1       HT       0.417000       1.00800           0
     36788 TIP3     6024     TIP3     H2       HT       0.417000       1.00800           0
     36789 TIP3     6025     TIP3     OH2      OT      -0.834000       15.9994           0
     36790 TIP3     6025     TIP3     H1       HT       0.417000       1.00800           0
     36791 TIP3     6025     TIP3     H2       HT       0.417000       1.00800           0
     36792 TIP3     6026     TIP3     OH2      OT      -0.834000       15.9994           0
     36793 TIP3     6026     TIP3     H1       HT       0.417000       1.00800           0
     36794 TIP3     6026     TIP3     H2       HT       0.417000       1.00800           0
     36795 TIP3     6027     TIP3     OH2      OT      -0.834000       15.9994           0
     36796 TIP3     6027     TIP3     H1       HT       0.417000       1.00800           0
     36797 TIP3     6027     TIP3     H2       HT       0.417000       1.00800           0
     36798 TIP3     6028     TIP3     OH2      OT      -0.834000       15.9994           0
     36799 TIP3     6028     TIP3     H1       HT       0.417000       1.00800           0
     36800 TIP3     6028     TIP3     H2       HT       0.417000       1.00800           0
     36801 TIP3     6029     TIP3     OH2      OT      -0.834000       15.9994           0
     36802 TIP3     6029     TIP3     H1       HT       0.417000       1.00800           0
     36803 TIP3     6029     TIP3     H2       HT       0.417000       1.00800           0
     36804 TIP3     6030     TIP3     OH2      OT      -0.834000       15.9994           0
     36805 TIP3     6030     TIP3     H1       HT       0.417000       1.00800           0
     36806 TIP3     6030     TIP3     H2       HT       0.417000       1.00800           0
     36807 TIP3     6031     TIP3     OH2      OT      -0.834000       15.9994           0
     36808 TIP3     6031     TIP3     H1       HT       0.417000       1.00800           0
     36809 TIP3     6031     TIP3     H2       HT       0.417000       1.00800           0
     36810 TIP3     6032     TIP3     OH2      OT      -0.834000       15.9994           0
     36811 TIP3     6032     TIP3     H1       HT       0.417000       1.00800           0
     36812 TIP3     6032     TIP3     H2       HT       0.417000       1.00800           0
     36813 TIP3     6033     TIP3     OH2      OT      -0.834000       15.9994           0
     36814 TIP3     6033     TIP3     H1       HT       0.417000       1.00800           0
     36815 TIP3     6033     TIP3     H2       HT       0.417000       1.00800           0
     36816 TIP3     6034     TIP3     OH2      OT      -0.834000       15.9994           0
     36817 TIP3     6034     TIP3     H1       HT       0.417000       1.00800           0
     36818 TIP3     6034     TIP3     H2       HT       0.417000       1.00800           0
     36819 TIP3     6035     TIP3     OH2      OT      -0.834000       15.9994           0
     36820 TIP3     6035     TIP3     H1       HT       0.417000       1.00800           0
     36821 TIP3     6035     TIP3     H2       HT       0.417000       1.00800           0
     36822 TIP3     6036     TIP3     OH2      OT      -0.834000       15.9994           0
     36823 TIP3     6036     TIP3     H1       HT       0.417000       1.00800           0
     36824 TIP3     6036     TIP3     H2       HT       0.417000       1.00800           0
     36825 TIP3     6037     TIP3     OH2      OT      -0.834000       15.9994           0
     36826 TIP3     6037     TIP3     H1       HT       0.417000       1.00800           0
     36827 TIP3     6037     TIP3     H2       HT       0.417000       1.00800           0
     36828 TIP3     6038     TIP3     OH2      OT      -0.834000       15.9994           0
     36829 TIP3     6038     TIP3     H1       HT       0.417000       1.00800           0
     36830 TIP3     6038     TIP3     H2       HT       0.417000       1.00800           0
     36831 TIP3     6039     TIP3     OH2      OT      -0.834000       15.9994           0
     36832 TIP3     6039     TIP3     H1       HT       0.417000       1.00800           0
     36833 TIP3     6039     TIP3     H2       HT       0.417000       1.00800           0
     36834 TIP3     6040     TIP3     OH2      OT      -0.834000       15.9994           0
     36835 TIP3     6040     TIP3     H1       HT       0.417000       1.00800           0
     36836 TIP3     6040     TIP3     H2       HT       0.417000       1.00800           0
     36837 TIP3     6041     TIP3     OH2      OT      -0.834000       15.9994           0
     36838 TIP3     6041     TIP3     H1       HT       0.417000       1.00800           0
     36839 TIP3     6041     TIP3     H2       HT       0.417000       1.00800           0
     36840 TIP3     6042     TIP3     OH2      OT      -0.834000       15.9994           0
     36841 TIP3     6042     TIP3     H1       HT       0.417000       1.00800           0
     36842 TIP3     6042     TIP3     H2       HT       0.417000       1.00800           0
     36843 TIP3     6043     TIP3     OH2      OT      -0.834000       15.9994           0
     36844 TIP3     6043     TIP3     H1       HT       0.417000       1.00800           0
     36845 TIP3     6043     TIP3     H2       HT       0.417000       1.00800           0
     36846 TIP3     6044     TIP3     OH2      OT      -0.834000       15.9994           0
     36847 TIP3     6044     TIP3     H1       HT       0.417000       1.00800           0
     36848 TIP3     6044     TIP3     H2       HT       0.417000       1.00800           0
     36849 TIP3     6045     TIP3     OH2      OT      -0.834000       15.9994           0
     36850 TIP3     6045     TIP3     H1       HT       0.417000       1.00800           0
     36851 TIP3     6045     TIP3     H2       HT       0.417000       1.00800           0
     36852 TIP3     6046     TIP3     OH2      OT      -0.834000       15.9994           0
     36853 TIP3     6046     TIP3     H1       HT       0.417000       1.00800           0
     36854 TIP3     6046     TIP3     H2       HT       0.417000       1.00800           0
     36855 TIP3     6047     TIP3     OH2      OT      -0.834000       15.9994           0
     36856 TIP3     6047     TIP3     H1       HT       0.417000       1.00800           0
     36857 TIP3     6047     TIP3     H2       HT       0.417000       1.00800           0
     36858 TIP3     6048     TIP3     OH2      OT      -0.834000       15.9994           0
     36859 TIP3     6048     TIP3     H1       HT       0.417000       1.00800           0
     36860 TIP3     6048     TIP3     H2       HT       0.417000       1.00800           0
     36861 TIP3     6049     TIP3     OH2      OT      -0.834000       15.9994           0
     36862 TIP3     6049     TIP3     H1       HT       0.417000       1.00800           0
     36863 TIP3     6049     TIP3     H2       HT       0.417000       1.00800           0
     36864 TIP3     6050     TIP3     OH2      OT      -0.834000       15.9994           0
     36865 TIP3     6050     TIP3     H1       HT       0.417000       1.00800           0
     36866 TIP3     6050     TIP3     H2       HT       0.417000       1.00800           0
     36867 TIP3     6051     TIP3     OH2      OT      -0.834000       15.9994           0
     36868 TIP3     6051     TIP3     H1       HT       0.417000       1.00800           0
     36869 TIP3     6051     TIP3     H2       HT       0.417000       1.00800           0
     36870 TIP3     6052     TIP3     OH2      OT      -0.834000       15.9994           0
     36871 TIP3     6052     TIP3     H1       HT       0.417000       1.00800           0
     36872 TIP3     6052     TIP3     H2       HT       0.417000       1.00800           0
     36873 TIP3     6053     TIP3     OH2      OT      -0.834000       15.9994           0
     36874 TIP3     6053     TIP3     H1       HT       0.417000       1.00800           0
     36875 TIP3     6053     TIP3     H2       HT       0.417000       1.00800           0
     36876 TIP3     6054     TIP3     OH2      OT      -0.834000       15.9994           0
     36877 TIP3     6054     TIP3     H1       HT       0.417000       1.00800           0
     36878 TIP3     6054     TIP3     H2       HT       0.417000       1.00800           0
     36879 TIP3     6055     TIP3     OH2      OT      -0.834000       15.9994           0
     36880 TIP3     6055     TIP3     H1       HT       0.417000       1.00800           0
     36881 TIP3     6055     TIP3     H2       HT       0.417000       1.00800           0
     36882 TIP3     6056     TIP3     OH2      OT      -0.834000       15.9994           0
     36883 TIP3     6056     TIP3     H1       HT       0.417000       1.00800           0
     36884 TIP3     6056     TIP3     H2       HT       0.417000       1.00800           0
     36885 TIP3     6057     TIP3     OH2      OT      -0.834000       15.9994           0
     36886 TIP3     6057     TIP3     H1       HT       0.417000       1.00800           0
     36887 TIP3     6057     TIP3     H2       HT       0.417000       1.00800           0
     36888 TIP3     6058     TIP3     OH2      OT      -0.834000       15.9994           0
     36889 TIP3     6058     TIP3     H1       HT       0.417000       1.00800           0
     36890 TIP3     6058     TIP3     H2       HT       0.417000       1.00800           0
     36891 TIP3     6059     TIP3     OH2      OT      -0.834000       15.9994           0
     36892 TIP3     6059     TIP3     H1       HT       0.417000       1.00800           0
     36893 TIP3     6059     TIP3     H2       HT       0.417000       1.00800           0
     36894 TIP3     6060     TIP3     OH2      OT      -0.834000       15.9994           0
     36895 TIP3     6060     TIP3     H1       HT       0.417000       1.00800           0
     36896 TIP3     6060     TIP3     H2       HT       0.417000       1.00800           0
     36897 TIP3     6061     TIP3     OH2      OT      -0.834000       15.9994           0
     36898 TIP3     6061     TIP3     H1       HT       0.417000       1.00800           0
     36899 TIP3     6061     TIP3     H2       HT       0.417000       1.00800           0
     36900 TIP3     6062     TIP3     OH2      OT      -0.834000       15.9994           0
     36901 TIP3     6062     TIP3     H1       HT       0.417000       1.00800           0
     36902 TIP3     6062     TIP3     H2       HT       0.417000       1.00800           0
     36903 TIP3     6063     TIP3     OH2      OT      -0.834000       15.9994           0
     36904 TIP3     6063     TIP3     H1       HT       0.417000       1.00800           0
     36905 TIP3     6063     TIP3     H2       HT       0.417000       1.00800           0
     36906 TIP3     6064     TIP3     OH2      OT      -0.834000       15.9994           0
     36907 TIP3     6064     TIP3     H1       HT       0.417000       1.00800           0
     36908 TIP3     6064     TIP3     H2       HT       0.417000       1.00800           0
     36909 TIP3     6065     TIP3     OH2      OT      -0.834000       15.9994           0
     36910 TIP3     6065     TIP3     H1       HT       0.417000       1.00800           0
     36911 TIP3     6065     TIP3     H2       HT       0.417000       1.00800           0
     36912 TIP3     6066     TIP3     OH2      OT      -0.834000       15.9994           0
     36913 TIP3     6066     TIP3     H1       HT       0.417000       1.00800           0
     36914 TIP3     6066     TIP3     H2       HT       0.417000       1.00800           0
     36915 TIP3     6067     TIP3     OH2      OT      -0.834000       15.9994           0
     36916 TIP3     6067     TIP3     H1       HT       0.417000       1.00800           0
     36917 TIP3     6067     TIP3     H2       HT       0.417000       1.00800           0
     36918 TIP3     6068     TIP3     OH2      OT      -0.834000       15.9994           0
     36919 TIP3     6068     TIP3     H1       HT       0.417000       1.00800           0
     36920 TIP3     6068     TIP3     H2       HT       0.417000       1.00800           0
     36921 TIP3     6069     TIP3     OH2      OT      -0.834000       15.9994           0
     36922 TIP3     6069     TIP3     H1       HT       0.417000       1.00800           0
     36923 TIP3     6069     TIP3     H2       HT       0.417000       1.00800           0
     36924 TIP3     6070     TIP3     OH2      OT      -0.834000       15.9994           0
     36925 TIP3     6070     TIP3     H1       HT       0.417000       1.00800           0
     36926 TIP3     6070     TIP3     H2       HT       0.417000       1.00800           0
     36927 TIP3     6071     TIP3     OH2      OT      -0.834000       15.9994           0
     36928 TIP3     6071     TIP3     H1       HT       0.417000       1.00800           0
     36929 TIP3     6071     TIP3     H2       HT       0.417000       1.00800           0
     36930 TIP3     6072     TIP3     OH2      OT      -0.834000       15.9994           0
     36931 TIP3     6072     TIP3     H1       HT       0.417000       1.00800           0
     36932 TIP3     6072     TIP3     H2       HT       0.417000       1.00800           0
     36933 TIP3     6073     TIP3     OH2      OT      -0.834000       15.9994           0
     36934 TIP3     6073     TIP3     H1       HT       0.417000       1.00800           0
     36935 TIP3     6073     TIP3     H2       HT       0.417000       1.00800           0
     36936 TIP3     6074     TIP3     OH2      OT      -0.834000       15.9994           0
     36937 TIP3     6074     TIP3     H1       HT       0.417000       1.00800           0
     36938 TIP3     6074     TIP3     H2       HT       0.417000       1.00800           0
     36939 TIP3     6075     TIP3     OH2      OT      -0.834000       15.9994           0
     36940 TIP3     6075     TIP3     H1       HT       0.417000       1.00800           0
     36941 TIP3     6075     TIP3     H2       HT       0.417000       1.00800           0
     36942 TIP3     6076     TIP3     OH2      OT      -0.834000       15.9994           0
     36943 TIP3     6076     TIP3     H1       HT       0.417000       1.00800           0
     36944 TIP3     6076     TIP3     H2       HT       0.417000       1.00800           0
     36945 TIP3     6077     TIP3     OH2      OT      -0.834000       15.9994           0
     36946 TIP3     6077     TIP3     H1       HT       0.417000       1.00800           0
     36947 TIP3     6077     TIP3     H2       HT       0.417000       1.00800           0
     36948 TIP3     6078     TIP3     OH2      OT      -0.834000       15.9994           0
     36949 TIP3     6078     TIP3     H1       HT       0.417000       1.00800           0
     36950 TIP3     6078     TIP3     H2       HT       0.417000       1.00800           0
     36951 TIP3     6079     TIP3     OH2      OT      -0.834000       15.9994           0
     36952 TIP3     6079     TIP3     H1       HT       0.417000       1.00800           0
     36953 TIP3     6079     TIP3     H2       HT       0.417000       1.00800           0
     36954 TIP3     6080     TIP3     OH2      OT      -0.834000       15.9994           0
     36955 TIP3     6080     TIP3     H1       HT       0.417000       1.00800           0
     36956 TIP3     6080     TIP3     H2       HT       0.417000       1.00800           0
     36957 TIP3     6081     TIP3     OH2      OT      -0.834000       15.9994           0
     36958 TIP3     6081     TIP3     H1       HT       0.417000       1.00800           0
     36959 TIP3     6081     TIP3     H2       HT       0.417000       1.00800           0
     36960 TIP3     6082     TIP3     OH2      OT      -0.834000       15.9994           0
     36961 TIP3     6082     TIP3     H1       HT       0.417000       1.00800           0
     36962 TIP3     6082     TIP3     H2       HT       0.417000       1.00800           0
     36963 TIP3     6083     TIP3     OH2      OT      -0.834000       15.9994           0
     36964 TIP3     6083     TIP3     H1       HT       0.417000       1.00800           0
     36965 TIP3     6083     TIP3     H2       HT       0.417000       1.00800           0
     36966 TIP3     6084     TIP3     OH2      OT      -0.834000       15.9994           0
     36967 TIP3     6084     TIP3     H1       HT       0.417000       1.00800           0
     36968 TIP3     6084     TIP3     H2       HT       0.417000       1.00800           0
     36969 TIP3     6085     TIP3     OH2      OT      -0.834000       15.9994           0
     36970 TIP3     6085     TIP3     H1       HT       0.417000       1.00800           0
     36971 TIP3     6085     TIP3     H2       HT       0.417000       1.00800           0
     36972 TIP3     6086     TIP3     OH2      OT      -0.834000       15.9994           0
     36973 TIP3     6086     TIP3     H1       HT       0.417000       1.00800           0
     36974 TIP3     6086     TIP3     H2       HT       0.417000       1.00800           0
     36975 TIP3     6087     TIP3     OH2      OT      -0.834000       15.9994           0
     36976 TIP3     6087     TIP3     H1       HT       0.417000       1.00800           0
     36977 TIP3     6087     TIP3     H2       HT       0.417000       1.00800           0
     36978 TIP3     6088     TIP3     OH2      OT      -0.834000       15.9994           0
     36979 TIP3     6088     TIP3     H1       HT       0.417000       1.00800           0
     36980 TIP3     6088     TIP3     H2       HT       0.417000       1.00800           0
     36981 TIP3     6089     TIP3     OH2      OT      -0.834000       15.9994           0
     36982 TIP3     6089     TIP3     H1       HT       0.417000       1.00800           0
     36983 TIP3     6089     TIP3     H2       HT       0.417000       1.00800           0
     36984 TIP3     6090     TIP3     OH2      OT      -0.834000       15.9994           0
     36985 TIP3     6090     TIP3     H1       HT       0.417000       1.00800           0
     36986 TIP3     6090     TIP3     H2       HT       0.417000       1.00800           0
     36987 TIP3     6091     TIP3     OH2      OT      -0.834000       15.9994           0
     36988 TIP3     6091     TIP3     H1       HT       0.417000       1.00800           0
     36989 TIP3     6091     TIP3     H2       HT       0.417000       1.00800           0
     36990 TIP3     6092     TIP3     OH2      OT      -0.834000       15.9994           0
     36991 TIP3     6092     TIP3     H1       HT       0.417000       1.00800           0
     36992 TIP3     6092     TIP3     H2       HT       0.417000       1.00800           0
     36993 TIP3     6093     TIP3     OH2      OT      -0.834000       15.9994           0
     36994 TIP3     6093     TIP3     H1       HT       0.417000       1.00800           0
     36995 TIP3     6093     TIP3     H2       HT       0.417000       1.00800           0
     36996 TIP3     6094     TIP3     OH2      OT      -0.834000       15.9994           0
     36997 TIP3     6094     TIP3     H1       HT       0.417000       1.00800           0
     36998 TIP3     6094     TIP3     H2       HT       0.417000       1.00800           0
     36999 TIP3     6095     TIP3     OH2      OT      -0.834000       15.9994           0
     37000 TIP3     6095     TIP3     H1       HT       0.417000       1.00800           0
     37001 TIP3     6095     TIP3     H2       HT       0.417000       1.00800           0
     37002 TIP3     6096     TIP3     OH2      OT      -0.834000       15.9994           0
     37003 TIP3     6096     TIP3     H1       HT       0.417000       1.00800           0
     37004 TIP3     6096     TIP3     H2       HT       0.417000       1.00800           0
     37005 TIP3     6097     TIP3     OH2      OT      -0.834000       15.9994           0
     37006 TIP3     6097     TIP3     H1       HT       0.417000       1.00800           0
     37007 TIP3     6097     TIP3     H2       HT       0.417000       1.00800           0
     37008 TIP3     6098     TIP3     OH2      OT      -0.834000       15.9994           0
     37009 TIP3     6098     TIP3     H1       HT       0.417000       1.00800           0
     37010 TIP3     6098     TIP3     H2       HT       0.417000       1.00800           0
     37011 TIP3     6099     TIP3     OH2      OT      -0.834000       15.9994           0
     37012 TIP3     6099     TIP3     H1       HT       0.417000       1.00800           0
     37013 TIP3     6099     TIP3     H2       HT       0.417000       1.00800           0
     37014 TIP3     6100     TIP3     OH2      OT      -0.834000       15.9994           0
     37015 TIP3     6100     TIP3     H1       HT       0.417000       1.00800           0
     37016 TIP3     6100     TIP3     H2       HT       0.417000       1.00800           0
     37017 TIP3     6101     TIP3     OH2      OT      -0.834000       15.9994           0
     37018 TIP3     6101     TIP3     H1       HT       0.417000       1.00800           0
     37019 TIP3     6101     TIP3     H2       HT       0.417000       1.00800           0
     37020 TIP3     6102     TIP3     OH2      OT      -0.834000       15.9994           0
     37021 TIP3     6102     TIP3     H1       HT       0.417000       1.00800           0
     37022 TIP3     6102     TIP3     H2       HT       0.417000       1.00800           0
     37023 TIP3     6103     TIP3     OH2      OT      -0.834000       15.9994           0
     37024 TIP3     6103     TIP3     H1       HT       0.417000       1.00800           0
     37025 TIP3     6103     TIP3     H2       HT       0.417000       1.00800           0
     37026 TIP3     6104     TIP3     OH2      OT      -0.834000       15.9994           0
     37027 TIP3     6104     TIP3     H1       HT       0.417000       1.00800           0
     37028 TIP3     6104     TIP3     H2       HT       0.417000       1.00800           0
     37029 TIP3     6105     TIP3     OH2      OT      -0.834000       15.9994           0
     37030 TIP3     6105     TIP3     H1       HT       0.417000       1.00800           0
     37031 TIP3     6105     TIP3     H2       HT       0.417000       1.00800           0
     37032 TIP3     6106     TIP3     OH2      OT      -0.834000       15.9994           0
     37033 TIP3     6106     TIP3     H1       HT       0.417000       1.00800           0
     37034 TIP3     6106     TIP3     H2       HT       0.417000       1.00800           0
     37035 TIP3     6107     TIP3     OH2      OT      -0.834000       15.9994           0
     37036 TIP3     6107     TIP3     H1       HT       0.417000       1.00800           0
     37037 TIP3     6107     TIP3     H2       HT       0.417000       1.00800           0
     37038 TIP3     6108     TIP3     OH2      OT      -0.834000       15.9994           0
     37039 TIP3     6108     TIP3     H1       HT       0.417000       1.00800           0
     37040 TIP3     6108     TIP3     H2       HT       0.417000       1.00800           0
     37041 TIP3     6109     TIP3     OH2      OT      -0.834000       15.9994           0
     37042 TIP3     6109     TIP3     H1       HT       0.417000       1.00800           0
     37043 TIP3     6109     TIP3     H2       HT       0.417000       1.00800           0
     37044 TIP3     6110     TIP3     OH2      OT      -0.834000       15.9994           0
     37045 TIP3     6110     TIP3     H1       HT       0.417000       1.00800           0
     37046 TIP3     6110     TIP3     H2       HT       0.417000       1.00800           0
     37047 TIP3     6111     TIP3     OH2      OT      -0.834000       15.9994           0
     37048 TIP3     6111     TIP3     H1       HT       0.417000       1.00800           0
     37049 TIP3     6111     TIP3     H2       HT       0.417000       1.00800           0
     37050 TIP3     6112     TIP3     OH2      OT      -0.834000       15.9994           0
     37051 TIP3     6112     TIP3     H1       HT       0.417000       1.00800           0
     37052 TIP3     6112     TIP3     H2       HT       0.417000       1.00800           0
     37053 TIP3     6113     TIP3     OH2      OT      -0.834000       15.9994           0
     37054 TIP3     6113     TIP3     H1       HT       0.417000       1.00800           0
     37055 TIP3     6113     TIP3     H2       HT       0.417000       1.00800           0
     37056 TIP3     6114     TIP3     OH2      OT      -0.834000       15.9994           0
     37057 TIP3     6114     TIP3     H1       HT       0.417000       1.00800           0
     37058 TIP3     6114     TIP3     H2       HT       0.417000       1.00800           0
     37059 TIP3     6115     TIP3     OH2      OT      -0.834000       15.9994           0
     37060 TIP3     6115     TIP3     H1       HT       0.417000       1.00800           0
     37061 TIP3     6115     TIP3     H2       HT       0.417000       1.00800           0
     37062 TIP3     6116     TIP3     OH2      OT      -0.834000       15.9994           0
     37063 TIP3     6116     TIP3     H1       HT       0.417000       1.00800           0
     37064 TIP3     6116     TIP3     H2       HT       0.417000       1.00800           0
     37065 TIP3     6117     TIP3     OH2      OT      -0.834000       15.9994           0
     37066 TIP3     6117     TIP3     H1       HT       0.417000       1.00800           0
     37067 TIP3     6117     TIP3     H2       HT       0.417000       1.00800           0
     37068 TIP3     6118     TIP3     OH2      OT      -0.834000       15.9994           0
     37069 TIP3     6118     TIP3     H1       HT       0.417000       1.00800           0
     37070 TIP3     6118     TIP3     H2       HT       0.417000       1.00800           0
     37071 TIP3     6119     TIP3     OH2      OT      -0.834000       15.9994           0
     37072 TIP3     6119     TIP3     H1       HT       0.417000       1.00800           0
     37073 TIP3     6119     TIP3     H2       HT       0.417000       1.00800           0
     37074 TIP3     6120     TIP3     OH2      OT      -0.834000       15.9994           0
     37075 TIP3     6120     TIP3     H1       HT       0.417000       1.00800           0
     37076 TIP3     6120     TIP3     H2       HT       0.417000       1.00800           0
     37077 TIP3     6121     TIP3     OH2      OT      -0.834000       15.9994           0
     37078 TIP3     6121     TIP3     H1       HT       0.417000       1.00800           0
     37079 TIP3     6121     TIP3     H2       HT       0.417000       1.00800           0
     37080 TIP3     6122     TIP3     OH2      OT      -0.834000       15.9994           0
     37081 TIP3     6122     TIP3     H1       HT       0.417000       1.00800           0
     37082 TIP3     6122     TIP3     H2       HT       0.417000       1.00800           0
     37083 TIP3     6123     TIP3     OH2      OT      -0.834000       15.9994           0
     37084 TIP3     6123     TIP3     H1       HT       0.417000       1.00800           0
     37085 TIP3     6123     TIP3     H2       HT       0.417000       1.00800           0
     37086 TIP3     6124     TIP3     OH2      OT      -0.834000       15.9994           0
     37087 TIP3     6124     TIP3     H1       HT       0.417000       1.00800           0
     37088 TIP3     6124     TIP3     H2       HT       0.417000       1.00800           0
     37089 TIP3     6125     TIP3     OH2      OT      -0.834000       15.9994           0
     37090 TIP3     6125     TIP3     H1       HT       0.417000       1.00800           0
     37091 TIP3     6125     TIP3     H2       HT       0.417000       1.00800           0
     37092 TIP3     6126     TIP3     OH2      OT      -0.834000       15.9994           0
     37093 TIP3     6126     TIP3     H1       HT       0.417000       1.00800           0
     37094 TIP3     6126     TIP3     H2       HT       0.417000       1.00800           0
     37095 TIP3     6127     TIP3     OH2      OT      -0.834000       15.9994           0
     37096 TIP3     6127     TIP3     H1       HT       0.417000       1.00800           0
     37097 TIP3     6127     TIP3     H2       HT       0.417000       1.00800           0
     37098 TIP3     6128     TIP3     OH2      OT      -0.834000       15.9994           0
     37099 TIP3     6128     TIP3     H1       HT       0.417000       1.00800           0
     37100 TIP3     6128     TIP3     H2       HT       0.417000       1.00800           0
     37101 TIP3     6129     TIP3     OH2      OT      -0.834000       15.9994           0
     37102 TIP3     6129     TIP3     H1       HT       0.417000       1.00800           0
     37103 TIP3     6129     TIP3     H2       HT       0.417000       1.00800           0
     37104 TIP3     6130     TIP3     OH2      OT      -0.834000       15.9994           0
     37105 TIP3     6130     TIP3     H1       HT       0.417000       1.00800           0
     37106 TIP3     6130     TIP3     H2       HT       0.417000       1.00800           0
     37107 TIP3     6131     TIP3     OH2      OT      -0.834000       15.9994           0
     37108 TIP3     6131     TIP3     H1       HT       0.417000       1.00800           0
     37109 TIP3     6131     TIP3     H2       HT       0.417000       1.00800           0
     37110 TIP3     6132     TIP3     OH2      OT      -0.834000       15.9994           0
     37111 TIP3     6132     TIP3     H1       HT       0.417000       1.00800           0
     37112 TIP3     6132     TIP3     H2       HT       0.417000       1.00800           0
     37113 TIP3     6133     TIP3     OH2      OT      -0.834000       15.9994           0
     37114 TIP3     6133     TIP3     H1       HT       0.417000       1.00800           0
     37115 TIP3     6133     TIP3     H2       HT       0.417000       1.00800           0
     37116 TIP3     6134     TIP3     OH2      OT      -0.834000       15.9994           0
     37117 TIP3     6134     TIP3     H1       HT       0.417000       1.00800           0
     37118 TIP3     6134     TIP3     H2       HT       0.417000       1.00800           0
     37119 TIP3     6135     TIP3     OH2      OT      -0.834000       15.9994           0
     37120 TIP3     6135     TIP3     H1       HT       0.417000       1.00800           0
     37121 TIP3     6135     TIP3     H2       HT       0.417000       1.00800           0
     37122 TIP3     6136     TIP3     OH2      OT      -0.834000       15.9994           0
     37123 TIP3     6136     TIP3     H1       HT       0.417000       1.00800           0
     37124 TIP3     6136     TIP3     H2       HT       0.417000       1.00800           0
     37125 TIP3     6137     TIP3     OH2      OT      -0.834000       15.9994           0
     37126 TIP3     6137     TIP3     H1       HT       0.417000       1.00800           0
     37127 TIP3     6137     TIP3     H2       HT       0.417000       1.00800           0
     37128 TIP3     6138     TIP3     OH2      OT      -0.834000       15.9994           0
     37129 TIP3     6138     TIP3     H1       HT       0.417000       1.00800           0
     37130 TIP3     6138     TIP3     H2       HT       0.417000       1.00800           0
     37131 TIP3     6139     TIP3     OH2      OT      -0.834000       15.9994           0
     37132 TIP3     6139     TIP3     H1       HT       0.417000       1.00800           0
     37133 TIP3     6139     TIP3     H2       HT       0.417000       1.00800           0
     37134 TIP3     6140     TIP3     OH2      OT      -0.834000       15.9994           0
     37135 TIP3     6140     TIP3     H1       HT       0.417000       1.00800           0
     37136 TIP3     6140     TIP3     H2       HT       0.417000       1.00800           0
     37137 TIP3     6141     TIP3     OH2      OT      -0.834000       15.9994           0
     37138 TIP3     6141     TIP3     H1       HT       0.417000       1.00800           0
     37139 TIP3     6141     TIP3     H2       HT       0.417000       1.00800           0
     37140 TIP3     6142     TIP3     OH2      OT      -0.834000       15.9994           0
     37141 TIP3     6142     TIP3     H1       HT       0.417000       1.00800           0
     37142 TIP3     6142     TIP3     H2       HT       0.417000       1.00800           0
     37143 TIP3     6143     TIP3     OH2      OT      -0.834000       15.9994           0
     37144 TIP3     6143     TIP3     H1       HT       0.417000       1.00800           0
     37145 TIP3     6143     TIP3     H2       HT       0.417000       1.00800           0
     37146 TIP3     6144     TIP3     OH2      OT      -0.834000       15.9994           0
     37147 TIP3     6144     TIP3     H1       HT       0.417000       1.00800           0
     37148 TIP3     6144     TIP3     H2       HT       0.417000       1.00800           0
     37149 TIP3     6145     TIP3     OH2      OT      -0.834000       15.9994           0
     37150 TIP3     6145     TIP3     H1       HT       0.417000       1.00800           0
     37151 TIP3     6145     TIP3     H2       HT       0.417000       1.00800           0
     37152 TIP3     6146     TIP3     OH2      OT      -0.834000       15.9994           0
     37153 TIP3     6146     TIP3     H1       HT       0.417000       1.00800           0
     37154 TIP3     6146     TIP3     H2       HT       0.417000       1.00800           0
     37155 TIP3     6147     TIP3     OH2      OT      -0.834000       15.9994           0
     37156 TIP3     6147     TIP3     H1       HT       0.417000       1.00800           0
     37157 TIP3     6147     TIP3     H2       HT       0.417000       1.00800           0
     37158 TIP3     6148     TIP3     OH2      OT      -0.834000       15.9994           0
     37159 TIP3     6148     TIP3     H1       HT       0.417000       1.00800           0
     37160 TIP3     6148     TIP3     H2       HT       0.417000       1.00800           0
     37161 TIP3     6149     TIP3     OH2      OT      -0.834000       15.9994           0
     37162 TIP3     6149     TIP3     H1       HT       0.417000       1.00800           0
     37163 TIP3     6149     TIP3     H2       HT       0.417000       1.00800           0
     37164 TIP3     6150     TIP3     OH2      OT      -0.834000       15.9994           0
     37165 TIP3     6150     TIP3     H1       HT       0.417000       1.00800           0
     37166 TIP3     6150     TIP3     H2       HT       0.417000       1.00800           0
     37167 TIP3     6151     TIP3     OH2      OT      -0.834000       15.9994           0
     37168 TIP3     6151     TIP3     H1       HT       0.417000       1.00800           0
     37169 TIP3     6151     TIP3     H2       HT       0.417000       1.00800           0
     37170 TIP3     6152     TIP3     OH2      OT      -0.834000       15.9994           0
     37171 TIP3     6152     TIP3     H1       HT       0.417000       1.00800           0
     37172 TIP3     6152     TIP3     H2       HT       0.417000       1.00800           0
     37173 TIP3     6153     TIP3     OH2      OT      -0.834000       15.9994           0
     37174 TIP3     6153     TIP3     H1       HT       0.417000       1.00800           0
     37175 TIP3     6153     TIP3     H2       HT       0.417000       1.00800           0
     37176 TIP3     6154     TIP3     OH2      OT      -0.834000       15.9994           0
     37177 TIP3     6154     TIP3     H1       HT       0.417000       1.00800           0
     37178 TIP3     6154     TIP3     H2       HT       0.417000       1.00800           0
     37179 TIP3     6155     TIP3     OH2      OT      -0.834000       15.9994           0
     37180 TIP3     6155     TIP3     H1       HT       0.417000       1.00800           0
     37181 TIP3     6155     TIP3     H2       HT       0.417000       1.00800           0
     37182 TIP3     6156     TIP3     OH2      OT      -0.834000       15.9994           0
     37183 TIP3     6156     TIP3     H1       HT       0.417000       1.00800           0
     37184 TIP3     6156     TIP3     H2       HT       0.417000       1.00800           0
     37185 TIP3     6157     TIP3     OH2      OT      -0.834000       15.9994           0
     37186 TIP3     6157     TIP3     H1       HT       0.417000       1.00800           0
     37187 TIP3     6157     TIP3     H2       HT       0.417000       1.00800           0
     37188 TIP3     6158     TIP3     OH2      OT      -0.834000       15.9994           0
     37189 TIP3     6158     TIP3     H1       HT       0.417000       1.00800           0
     37190 TIP3     6158     TIP3     H2       HT       0.417000       1.00800           0
     37191 TIP3     6159     TIP3     OH2      OT      -0.834000       15.9994           0
     37192 TIP3     6159     TIP3     H1       HT       0.417000       1.00800           0
     37193 TIP3     6159     TIP3     H2       HT       0.417000       1.00800           0
     37194 TIP3     6160     TIP3     OH2      OT      -0.834000       15.9994           0
     37195 TIP3     6160     TIP3     H1       HT       0.417000       1.00800           0
     37196 TIP3     6160     TIP3     H2       HT       0.417000       1.00800           0
     37197 TIP3     6161     TIP3     OH2      OT      -0.834000       15.9994           0
     37198 TIP3     6161     TIP3     H1       HT       0.417000       1.00800           0
     37199 TIP3     6161     TIP3     H2       HT       0.417000       1.00800           0
     37200 TIP3     6162     TIP3     OH2      OT      -0.834000       15.9994           0
     37201 TIP3     6162     TIP3     H1       HT       0.417000       1.00800           0
     37202 TIP3     6162     TIP3     H2       HT       0.417000       1.00800           0
     37203 TIP3     6163     TIP3     OH2      OT      -0.834000       15.9994           0
     37204 TIP3     6163     TIP3     H1       HT       0.417000       1.00800           0
     37205 TIP3     6163     TIP3     H2       HT       0.417000       1.00800           0
     37206 TIP3     6164     TIP3     OH2      OT      -0.834000       15.9994           0
     37207 TIP3     6164     TIP3     H1       HT       0.417000       1.00800           0
     37208 TIP3     6164     TIP3     H2       HT       0.417000       1.00800           0
     37209 TIP3     6165     TIP3     OH2      OT      -0.834000       15.9994           0
     37210 TIP3     6165     TIP3     H1       HT       0.417000       1.00800           0
     37211 TIP3     6165     TIP3     H2       HT       0.417000       1.00800           0
     37212 TIP3     6166     TIP3     OH2      OT      -0.834000       15.9994           0
     37213 TIP3     6166     TIP3     H1       HT       0.417000       1.00800           0
     37214 TIP3     6166     TIP3     H2       HT       0.417000       1.00800           0
     37215 TIP3     6167     TIP3     OH2      OT      -0.834000       15.9994           0
     37216 TIP3     6167     TIP3     H1       HT       0.417000       1.00800           0
     37217 TIP3     6167     TIP3     H2       HT       0.417000       1.00800           0
     37218 TIP3     6168     TIP3     OH2      OT      -0.834000       15.9994           0
     37219 TIP3     6168     TIP3     H1       HT       0.417000       1.00800           0
     37220 TIP3     6168     TIP3     H2       HT       0.417000       1.00800           0
     37221 TIP3     6169     TIP3     OH2      OT      -0.834000       15.9994           0
     37222 TIP3     6169     TIP3     H1       HT       0.417000       1.00800           0
     37223 TIP3     6169     TIP3     H2       HT       0.417000       1.00800           0
     37224 TIP3     6170     TIP3     OH2      OT      -0.834000       15.9994           0
     37225 TIP3     6170     TIP3     H1       HT       0.417000       1.00800           0
     37226 TIP3     6170     TIP3     H2       HT       0.417000       1.00800           0
     37227 TIP3     6171     TIP3     OH2      OT      -0.834000       15.9994           0
     37228 TIP3     6171     TIP3     H1       HT       0.417000       1.00800           0
     37229 TIP3     6171     TIP3     H2       HT       0.417000       1.00800           0
     37230 TIP3     6172     TIP3     OH2      OT      -0.834000       15.9994           0
     37231 TIP3     6172     TIP3     H1       HT       0.417000       1.00800           0
     37232 TIP3     6172     TIP3     H2       HT       0.417000       1.00800           0
     37233 TIP3     6173     TIP3     OH2      OT      -0.834000       15.9994           0
     37234 TIP3     6173     TIP3     H1       HT       0.417000       1.00800           0
     37235 TIP3     6173     TIP3     H2       HT       0.417000       1.00800           0
     37236 TIP3     6174     TIP3     OH2      OT      -0.834000       15.9994           0
     37237 TIP3     6174     TIP3     H1       HT       0.417000       1.00800           0
     37238 TIP3     6174     TIP3     H2       HT       0.417000       1.00800           0
     37239 TIP3     6175     TIP3     OH2      OT      -0.834000       15.9994           0
     37240 TIP3     6175     TIP3     H1       HT       0.417000       1.00800           0
     37241 TIP3     6175     TIP3     H2       HT       0.417000       1.00800           0
     37242 TIP3     6176     TIP3     OH2      OT      -0.834000       15.9994           0
     37243 TIP3     6176     TIP3     H1       HT       0.417000       1.00800           0
     37244 TIP3     6176     TIP3     H2       HT       0.417000       1.00800           0
     37245 TIP3     6177     TIP3     OH2      OT      -0.834000       15.9994           0
     37246 TIP3     6177     TIP3     H1       HT       0.417000       1.00800           0
     37247 TIP3     6177     TIP3     H2       HT       0.417000       1.00800           0
     37248 TIP3     6178     TIP3     OH2      OT      -0.834000       15.9994           0
     37249 TIP3     6178     TIP3     H1       HT       0.417000       1.00800           0
     37250 TIP3     6178     TIP3     H2       HT       0.417000       1.00800           0
     37251 TIP3     6179     TIP3     OH2      OT      -0.834000       15.9994           0
     37252 TIP3     6179     TIP3     H1       HT       0.417000       1.00800           0
     37253 TIP3     6179     TIP3     H2       HT       0.417000       1.00800           0
     37254 TIP3     6180     TIP3     OH2      OT      -0.834000       15.9994           0
     37255 TIP3     6180     TIP3     H1       HT       0.417000       1.00800           0
     37256 TIP3     6180     TIP3     H2       HT       0.417000       1.00800           0
     37257 TIP3     6181     TIP3     OH2      OT      -0.834000       15.9994           0
     37258 TIP3     6181     TIP3     H1       HT       0.417000       1.00800           0
     37259 TIP3     6181     TIP3     H2       HT       0.417000       1.00800           0
     37260 TIP3     6182     TIP3     OH2      OT      -0.834000       15.9994           0
     37261 TIP3     6182     TIP3     H1       HT       0.417000       1.00800           0
     37262 TIP3     6182     TIP3     H2       HT       0.417000       1.00800           0
     37263 TIP3     6183     TIP3     OH2      OT      -0.834000       15.9994           0
     37264 TIP3     6183     TIP3     H1       HT       0.417000       1.00800           0
     37265 TIP3     6183     TIP3     H2       HT       0.417000       1.00800           0
     37266 TIP3     6184     TIP3     OH2      OT      -0.834000       15.9994           0
     37267 TIP3     6184     TIP3     H1       HT       0.417000       1.00800           0
     37268 TIP3     6184     TIP3     H2       HT       0.417000       1.00800           0
     37269 TIP3     6185     TIP3     OH2      OT      -0.834000       15.9994           0
     37270 TIP3     6185     TIP3     H1       HT       0.417000       1.00800           0
     37271 TIP3     6185     TIP3     H2       HT       0.417000       1.00800           0
     37272 TIP3     6186     TIP3     OH2      OT      -0.834000       15.9994           0
     37273 TIP3     6186     TIP3     H1       HT       0.417000       1.00800           0
     37274 TIP3     6186     TIP3     H2       HT       0.417000       1.00800           0
     37275 TIP3     6187     TIP3     OH2      OT      -0.834000       15.9994           0
     37276 TIP3     6187     TIP3     H1       HT       0.417000       1.00800           0
     37277 TIP3     6187     TIP3     H2       HT       0.417000       1.00800           0
     37278 TIP3     6188     TIP3     OH2      OT      -0.834000       15.9994           0
     37279 TIP3     6188     TIP3     H1       HT       0.417000       1.00800           0
     37280 TIP3     6188     TIP3     H2       HT       0.417000       1.00800           0
     37281 TIP3     6189     TIP3     OH2      OT      -0.834000       15.9994           0
     37282 TIP3     6189     TIP3     H1       HT       0.417000       1.00800           0
     37283 TIP3     6189     TIP3     H2       HT       0.417000       1.00800           0
     37284 TIP3     6190     TIP3     OH2      OT      -0.834000       15.9994           0
     37285 TIP3     6190     TIP3     H1       HT       0.417000       1.00800           0
     37286 TIP3     6190     TIP3     H2       HT       0.417000       1.00800           0
     37287 TIP3     6191     TIP3     OH2      OT      -0.834000       15.9994           0
     37288 TIP3     6191     TIP3     H1       HT       0.417000       1.00800           0
     37289 TIP3     6191     TIP3     H2       HT       0.417000       1.00800           0
     37290 TIP3     6192     TIP3     OH2      OT      -0.834000       15.9994           0
     37291 TIP3     6192     TIP3     H1       HT       0.417000       1.00800           0
     37292 TIP3     6192     TIP3     H2       HT       0.417000       1.00800           0
     37293 TIP3     6193     TIP3     OH2      OT      -0.834000       15.9994           0
     37294 TIP3     6193     TIP3     H1       HT       0.417000       1.00800           0
     37295 TIP3     6193     TIP3     H2       HT       0.417000       1.00800           0
     37296 TIP3     6194     TIP3     OH2      OT      -0.834000       15.9994           0
     37297 TIP3     6194     TIP3     H1       HT       0.417000       1.00800           0
     37298 TIP3     6194     TIP3     H2       HT       0.417000       1.00800           0
     37299 TIP3     6195     TIP3     OH2      OT      -0.834000       15.9994           0
     37300 TIP3     6195     TIP3     H1       HT       0.417000       1.00800           0
     37301 TIP3     6195     TIP3     H2       HT       0.417000       1.00800           0
     37302 TIP3     6196     TIP3     OH2      OT      -0.834000       15.9994           0
     37303 TIP3     6196     TIP3     H1       HT       0.417000       1.00800           0
     37304 TIP3     6196     TIP3     H2       HT       0.417000       1.00800           0
     37305 TIP3     6197     TIP3     OH2      OT      -0.834000       15.9994           0
     37306 TIP3     6197     TIP3     H1       HT       0.417000       1.00800           0
     37307 TIP3     6197     TIP3     H2       HT       0.417000       1.00800           0
     37308 TIP3     6198     TIP3     OH2      OT      -0.834000       15.9994           0
     37309 TIP3     6198     TIP3     H1       HT       0.417000       1.00800           0
     37310 TIP3     6198     TIP3     H2       HT       0.417000       1.00800           0
     37311 TIP3     6199     TIP3     OH2      OT      -0.834000       15.9994           0
     37312 TIP3     6199     TIP3     H1       HT       0.417000       1.00800           0
     37313 TIP3     6199     TIP3     H2       HT       0.417000       1.00800           0
     37314 TIP3     6200     TIP3     OH2      OT      -0.834000       15.9994           0
     37315 TIP3     6200     TIP3     H1       HT       0.417000       1.00800           0
     37316 TIP3     6200     TIP3     H2       HT       0.417000       1.00800           0
     37317 TIP3     6201     TIP3     OH2      OT      -0.834000       15.9994           0
     37318 TIP3     6201     TIP3     H1       HT       0.417000       1.00800           0
     37319 TIP3     6201     TIP3     H2       HT       0.417000       1.00800           0
     37320 TIP3     6202     TIP3     OH2      OT      -0.834000       15.9994           0
     37321 TIP3     6202     TIP3     H1       HT       0.417000       1.00800           0
     37322 TIP3     6202     TIP3     H2       HT       0.417000       1.00800           0
     37323 TIP3     6203     TIP3     OH2      OT      -0.834000       15.9994           0
     37324 TIP3     6203     TIP3     H1       HT       0.417000       1.00800           0
     37325 TIP3     6203     TIP3     H2       HT       0.417000       1.00800           0
     37326 TIP3     6204     TIP3     OH2      OT      -0.834000       15.9994           0
     37327 TIP3     6204     TIP3     H1       HT       0.417000       1.00800           0
     37328 TIP3     6204     TIP3     H2       HT       0.417000       1.00800           0
     37329 TIP3     6205     TIP3     OH2      OT      -0.834000       15.9994           0
     37330 TIP3     6205     TIP3     H1       HT       0.417000       1.00800           0
     37331 TIP3     6205     TIP3     H2       HT       0.417000       1.00800           0
     37332 TIP3     6206     TIP3     OH2      OT      -0.834000       15.9994           0
     37333 TIP3     6206     TIP3     H1       HT       0.417000       1.00800           0
     37334 TIP3     6206     TIP3     H2       HT       0.417000       1.00800           0
     37335 TIP3     6207     TIP3     OH2      OT      -0.834000       15.9994           0
     37336 TIP3     6207     TIP3     H1       HT       0.417000       1.00800           0
     37337 TIP3     6207     TIP3     H2       HT       0.417000       1.00800           0
     37338 TIP3     6208     TIP3     OH2      OT      -0.834000       15.9994           0
     37339 TIP3     6208     TIP3     H1       HT       0.417000       1.00800           0
     37340 TIP3     6208     TIP3     H2       HT       0.417000       1.00800           0
     37341 TIP3     6209     TIP3     OH2      OT      -0.834000       15.9994           0
     37342 TIP3     6209     TIP3     H1       HT       0.417000       1.00800           0
     37343 TIP3     6209     TIP3     H2       HT       0.417000       1.00800           0
     37344 TIP3     6210     TIP3     OH2      OT      -0.834000       15.9994           0
     37345 TIP3     6210     TIP3     H1       HT       0.417000       1.00800           0
     37346 TIP3     6210     TIP3     H2       HT       0.417000       1.00800           0
     37347 TIP3     6211     TIP3     OH2      OT      -0.834000       15.9994           0
     37348 TIP3     6211     TIP3     H1       HT       0.417000       1.00800           0
     37349 TIP3     6211     TIP3     H2       HT       0.417000       1.00800           0
     37350 TIP3     6212     TIP3     OH2      OT      -0.834000       15.9994           0
     37351 TIP3     6212     TIP3     H1       HT       0.417000       1.00800           0
     37352 TIP3     6212     TIP3     H2       HT       0.417000       1.00800           0
     37353 TIP3     6213     TIP3     OH2      OT      -0.834000       15.9994           0
     37354 TIP3     6213     TIP3     H1       HT       0.417000       1.00800           0
     37355 TIP3     6213     TIP3     H2       HT       0.417000       1.00800           0
     37356 TIP3     6214     TIP3     OH2      OT      -0.834000       15.9994           0
     37357 TIP3     6214     TIP3     H1       HT       0.417000       1.00800           0
     37358 TIP3     6214     TIP3     H2       HT       0.417000       1.00800           0
     37359 TIP3     6215     TIP3     OH2      OT      -0.834000       15.9994           0
     37360 TIP3     6215     TIP3     H1       HT       0.417000       1.00800           0
     37361 TIP3     6215     TIP3     H2       HT       0.417000       1.00800           0
     37362 TIP3     6216     TIP3     OH2      OT      -0.834000       15.9994           0
     37363 TIP3     6216     TIP3     H1       HT       0.417000       1.00800           0
     37364 TIP3     6216     TIP3     H2       HT       0.417000       1.00800           0
     37365 TIP3     6217     TIP3     OH2      OT      -0.834000       15.9994           0
     37366 TIP3     6217     TIP3     H1       HT       0.417000       1.00800           0
     37367 TIP3     6217     TIP3     H2       HT       0.417000       1.00800           0
     37368 TIP3     6218     TIP3     OH2      OT      -0.834000       15.9994           0
     37369 TIP3     6218     TIP3     H1       HT       0.417000       1.00800           0
     37370 TIP3     6218     TIP3     H2       HT       0.417000       1.00800           0
     37371 TIP3     6219     TIP3     OH2      OT      -0.834000       15.9994           0
     37372 TIP3     6219     TIP3     H1       HT       0.417000       1.00800           0
     37373 TIP3     6219     TIP3     H2       HT       0.417000       1.00800           0
     37374 TIP3     6220     TIP3     OH2      OT      -0.834000       15.9994           0
     37375 TIP3     6220     TIP3     H1       HT       0.417000       1.00800           0
     37376 TIP3     6220     TIP3     H2       HT       0.417000       1.00800           0
     37377 TIP3     6221     TIP3     OH2      OT      -0.834000       15.9994           0
     37378 TIP3     6221     TIP3     H1       HT       0.417000       1.00800           0
     37379 TIP3     6221     TIP3     H2       HT       0.417000       1.00800           0
     37380 TIP3     6222     TIP3     OH2      OT      -0.834000       15.9994           0
     37381 TIP3     6222     TIP3     H1       HT       0.417000       1.00800           0
     37382 TIP3     6222     TIP3     H2       HT       0.417000       1.00800           0
     37383 TIP3     6223     TIP3     OH2      OT      -0.834000       15.9994           0
     37384 TIP3     6223     TIP3     H1       HT       0.417000       1.00800           0
     37385 TIP3     6223     TIP3     H2       HT       0.417000       1.00800           0
     37386 TIP3     6224     TIP3     OH2      OT      -0.834000       15.9994           0
     37387 TIP3     6224     TIP3     H1       HT       0.417000       1.00800           0
     37388 TIP3     6224     TIP3     H2       HT       0.417000       1.00800           0
     37389 TIP3     6225     TIP3     OH2      OT      -0.834000       15.9994           0
     37390 TIP3     6225     TIP3     H1       HT       0.417000       1.00800           0
     37391 TIP3     6225     TIP3     H2       HT       0.417000       1.00800           0
     37392 TIP3     6226     TIP3     OH2      OT      -0.834000       15.9994           0
     37393 TIP3     6226     TIP3     H1       HT       0.417000       1.00800           0
     37394 TIP3     6226     TIP3     H2       HT       0.417000       1.00800           0
     37395 TIP3     6227     TIP3     OH2      OT      -0.834000       15.9994           0
     37396 TIP3     6227     TIP3     H1       HT       0.417000       1.00800           0
     37397 TIP3     6227     TIP3     H2       HT       0.417000       1.00800           0
     37398 TIP3     6228     TIP3     OH2      OT      -0.834000       15.9994           0
     37399 TIP3     6228     TIP3     H1       HT       0.417000       1.00800           0
     37400 TIP3     6228     TIP3     H2       HT       0.417000       1.00800           0
     37401 TIP3     6229     TIP3     OH2      OT      -0.834000       15.9994           0
     37402 TIP3     6229     TIP3     H1       HT       0.417000       1.00800           0
     37403 TIP3     6229     TIP3     H2       HT       0.417000       1.00800           0
     37404 TIP3     6230     TIP3     OH2      OT      -0.834000       15.9994           0
     37405 TIP3     6230     TIP3     H1       HT       0.417000       1.00800           0
     37406 TIP3     6230     TIP3     H2       HT       0.417000       1.00800           0
     37407 TIP3     6231     TIP3     OH2      OT      -0.834000       15.9994           0
     37408 TIP3     6231     TIP3     H1       HT       0.417000       1.00800           0
     37409 TIP3     6231     TIP3     H2       HT       0.417000       1.00800           0
     37410 TIP3     6232     TIP3     OH2      OT      -0.834000       15.9994           0
     37411 TIP3     6232     TIP3     H1       HT       0.417000       1.00800           0
     37412 TIP3     6232     TIP3     H2       HT       0.417000       1.00800           0
     37413 TIP3     6233     TIP3     OH2      OT      -0.834000       15.9994           0
     37414 TIP3     6233     TIP3     H1       HT       0.417000       1.00800           0
     37415 TIP3     6233     TIP3     H2       HT       0.417000       1.00800           0
     37416 TIP3     6234     TIP3     OH2      OT      -0.834000       15.9994           0
     37417 TIP3     6234     TIP3     H1       HT       0.417000       1.00800           0
     37418 TIP3     6234     TIP3     H2       HT       0.417000       1.00800           0
     37419 TIP3     6235     TIP3     OH2      OT      -0.834000       15.9994           0
     37420 TIP3     6235     TIP3     H1       HT       0.417000       1.00800           0
     37421 TIP3     6235     TIP3     H2       HT       0.417000       1.00800           0
     37422 TIP3     6236     TIP3     OH2      OT      -0.834000       15.9994           0
     37423 TIP3     6236     TIP3     H1       HT       0.417000       1.00800           0
     37424 TIP3     6236     TIP3     H2       HT       0.417000       1.00800           0
     37425 TIP3     6237     TIP3     OH2      OT      -0.834000       15.9994           0
     37426 TIP3     6237     TIP3     H1       HT       0.417000       1.00800           0
     37427 TIP3     6237     TIP3     H2       HT       0.417000       1.00800           0
     37428 TIP3     6238     TIP3     OH2      OT      -0.834000       15.9994           0
     37429 TIP3     6238     TIP3     H1       HT       0.417000       1.00800           0
     37430 TIP3     6238     TIP3     H2       HT       0.417000       1.00800           0
     37431 TIP3     6239     TIP3     OH2      OT      -0.834000       15.9994           0
     37432 TIP3     6239     TIP3     H1       HT       0.417000       1.00800           0
     37433 TIP3     6239     TIP3     H2       HT       0.417000       1.00800           0
     37434 TIP3     6240     TIP3     OH2      OT      -0.834000       15.9994           0
     37435 TIP3     6240     TIP3     H1       HT       0.417000       1.00800           0
     37436 TIP3     6240     TIP3     H2       HT       0.417000       1.00800           0
     37437 TIP3     6241     TIP3     OH2      OT      -0.834000       15.9994           0
     37438 TIP3     6241     TIP3     H1       HT       0.417000       1.00800           0
     37439 TIP3     6241     TIP3     H2       HT       0.417000       1.00800           0
     37440 TIP3     6242     TIP3     OH2      OT      -0.834000       15.9994           0
     37441 TIP3     6242     TIP3     H1       HT       0.417000       1.00800           0
     37442 TIP3     6242     TIP3     H2       HT       0.417000       1.00800           0
     37443 TIP3     6243     TIP3     OH2      OT      -0.834000       15.9994           0
     37444 TIP3     6243     TIP3     H1       HT       0.417000       1.00800           0
     37445 TIP3     6243     TIP3     H2       HT       0.417000       1.00800           0
     37446 TIP3     6244     TIP3     OH2      OT      -0.834000       15.9994           0
     37447 TIP3     6244     TIP3     H1       HT       0.417000       1.00800           0
     37448 TIP3     6244     TIP3     H2       HT       0.417000       1.00800           0
     37449 TIP3     6245     TIP3     OH2      OT      -0.834000       15.9994           0
     37450 TIP3     6245     TIP3     H1       HT       0.417000       1.00800           0
     37451 TIP3     6245     TIP3     H2       HT       0.417000       1.00800           0
     37452 TIP3     6246     TIP3     OH2      OT      -0.834000       15.9994           0
     37453 TIP3     6246     TIP3     H1       HT       0.417000       1.00800           0
     37454 TIP3     6246     TIP3     H2       HT       0.417000       1.00800           0
     37455 TIP3     6247     TIP3     OH2      OT      -0.834000       15.9994           0
     37456 TIP3     6247     TIP3     H1       HT       0.417000       1.00800           0
     37457 TIP3     6247     TIP3     H2       HT       0.417000       1.00800           0
     37458 TIP3     6248     TIP3     OH2      OT      -0.834000       15.9994           0
     37459 TIP3     6248     TIP3     H1       HT       0.417000       1.00800           0
     37460 TIP3     6248     TIP3     H2       HT       0.417000       1.00800           0
     37461 TIP3     6249     TIP3     OH2      OT      -0.834000       15.9994           0
     37462 TIP3     6249     TIP3     H1       HT       0.417000       1.00800           0
     37463 TIP3     6249     TIP3     H2       HT       0.417000       1.00800           0
     37464 TIP3     6250     TIP3     OH2      OT      -0.834000       15.9994           0
     37465 TIP3     6250     TIP3     H1       HT       0.417000       1.00800           0
     37466 TIP3     6250     TIP3     H2       HT       0.417000       1.00800           0
     37467 TIP3     6251     TIP3     OH2      OT      -0.834000       15.9994           0
     37468 TIP3     6251     TIP3     H1       HT       0.417000       1.00800           0
     37469 TIP3     6251     TIP3     H2       HT       0.417000       1.00800           0
     37470 TIP3     6252     TIP3     OH2      OT      -0.834000       15.9994           0
     37471 TIP3     6252     TIP3     H1       HT       0.417000       1.00800           0
     37472 TIP3     6252     TIP3     H2       HT       0.417000       1.00800           0
     37473 TIP3     6253     TIP3     OH2      OT      -0.834000       15.9994           0
     37474 TIP3     6253     TIP3     H1       HT       0.417000       1.00800           0
     37475 TIP3     6253     TIP3     H2       HT       0.417000       1.00800           0
     37476 TIP3     6254     TIP3     OH2      OT      -0.834000       15.9994           0
     37477 TIP3     6254     TIP3     H1       HT       0.417000       1.00800           0
     37478 TIP3     6254     TIP3     H2       HT       0.417000       1.00800           0
     37479 TIP3     6255     TIP3     OH2      OT      -0.834000       15.9994           0
     37480 TIP3     6255     TIP3     H1       HT       0.417000       1.00800           0
     37481 TIP3     6255     TIP3     H2       HT       0.417000       1.00800           0
     37482 TIP3     6256     TIP3     OH2      OT      -0.834000       15.9994           0
     37483 TIP3     6256     TIP3     H1       HT       0.417000       1.00800           0
     37484 TIP3     6256     TIP3     H2       HT       0.417000       1.00800           0
     37485 TIP3     6257     TIP3     OH2      OT      -0.834000       15.9994           0
     37486 TIP3     6257     TIP3     H1       HT       0.417000       1.00800           0
     37487 TIP3     6257     TIP3     H2       HT       0.417000       1.00800           0
     37488 TIP3     6258     TIP3     OH2      OT      -0.834000       15.9994           0
     37489 TIP3     6258     TIP3     H1       HT       0.417000       1.00800           0
     37490 TIP3     6258     TIP3     H2       HT       0.417000       1.00800           0
     37491 TIP3     6259     TIP3     OH2      OT      -0.834000       15.9994           0
     37492 TIP3     6259     TIP3     H1       HT       0.417000       1.00800           0
     37493 TIP3     6259     TIP3     H2       HT       0.417000       1.00800           0
     37494 TIP3     6260     TIP3     OH2      OT      -0.834000       15.9994           0
     37495 TIP3     6260     TIP3     H1       HT       0.417000       1.00800           0
     37496 TIP3     6260     TIP3     H2       HT       0.417000       1.00800           0
     37497 TIP3     6261     TIP3     OH2      OT      -0.834000       15.9994           0
     37498 TIP3     6261     TIP3     H1       HT       0.417000       1.00800           0
     37499 TIP3     6261     TIP3     H2       HT       0.417000       1.00800           0
     37500 TIP3     6262     TIP3     OH2      OT      -0.834000       15.9994           0
     37501 TIP3     6262     TIP3     H1       HT       0.417000       1.00800           0
     37502 TIP3     6262     TIP3     H2       HT       0.417000       1.00800           0
     37503 TIP3     6263     TIP3     OH2      OT      -0.834000       15.9994           0
     37504 TIP3     6263     TIP3     H1       HT       0.417000       1.00800           0
     37505 TIP3     6263     TIP3     H2       HT       0.417000       1.00800           0
     37506 TIP3     6264     TIP3     OH2      OT      -0.834000       15.9994           0
     37507 TIP3     6264     TIP3     H1       HT       0.417000       1.00800           0
     37508 TIP3     6264     TIP3     H2       HT       0.417000       1.00800           0
     37509 TIP3     6265     TIP3     OH2      OT      -0.834000       15.9994           0
     37510 TIP3     6265     TIP3     H1       HT       0.417000       1.00800           0
     37511 TIP3     6265     TIP3     H2       HT       0.417000       1.00800           0
     37512 TIP3     6266     TIP3     OH2      OT      -0.834000       15.9994           0
     37513 TIP3     6266     TIP3     H1       HT       0.417000       1.00800           0
     37514 TIP3     6266     TIP3     H2       HT       0.417000       1.00800           0
     37515 TIP3     6267     TIP3     OH2      OT      -0.834000       15.9994           0
     37516 TIP3     6267     TIP3     H1       HT       0.417000       1.00800           0
     37517 TIP3     6267     TIP3     H2       HT       0.417000       1.00800           0
     37518 TIP3     6268     TIP3     OH2      OT      -0.834000       15.9994           0
     37519 TIP3     6268     TIP3     H1       HT       0.417000       1.00800           0
     37520 TIP3     6268     TIP3     H2       HT       0.417000       1.00800           0
     37521 TIP3     6269     TIP3     OH2      OT      -0.834000       15.9994           0
     37522 TIP3     6269     TIP3     H1       HT       0.417000       1.00800           0
     37523 TIP3     6269     TIP3     H2       HT       0.417000       1.00800           0
     37524 TIP3     6270     TIP3     OH2      OT      -0.834000       15.9994           0
     37525 TIP3     6270     TIP3     H1       HT       0.417000       1.00800           0
     37526 TIP3     6270     TIP3     H2       HT       0.417000       1.00800           0
     37527 TIP3     6271     TIP3     OH2      OT      -0.834000       15.9994           0
     37528 TIP3     6271     TIP3     H1       HT       0.417000       1.00800           0
     37529 TIP3     6271     TIP3     H2       HT       0.417000       1.00800           0
     37530 TIP3     6272     TIP3     OH2      OT      -0.834000       15.9994           0
     37531 TIP3     6272     TIP3     H1       HT       0.417000       1.00800           0
     37532 TIP3     6272     TIP3     H2       HT       0.417000       1.00800           0
     37533 TIP3     6273     TIP3     OH2      OT      -0.834000       15.9994           0
     37534 TIP3     6273     TIP3     H1       HT       0.417000       1.00800           0
     37535 TIP3     6273     TIP3     H2       HT       0.417000       1.00800           0
     37536 TIP3     6274     TIP3     OH2      OT      -0.834000       15.9994           0
     37537 TIP3     6274     TIP3     H1       HT       0.417000       1.00800           0
     37538 TIP3     6274     TIP3     H2       HT       0.417000       1.00800           0
     37539 TIP3     6275     TIP3     OH2      OT      -0.834000       15.9994           0
     37540 TIP3     6275     TIP3     H1       HT       0.417000       1.00800           0
     37541 TIP3     6275     TIP3     H2       HT       0.417000       1.00800           0
     37542 TIP3     6276     TIP3     OH2      OT      -0.834000       15.9994           0
     37543 TIP3     6276     TIP3     H1       HT       0.417000       1.00800           0
     37544 TIP3     6276     TIP3     H2       HT       0.417000       1.00800           0
     37545 TIP3     6277     TIP3     OH2      OT      -0.834000       15.9994           0
     37546 TIP3     6277     TIP3     H1       HT       0.417000       1.00800           0
     37547 TIP3     6277     TIP3     H2       HT       0.417000       1.00800           0
     37548 TIP3     6278     TIP3     OH2      OT      -0.834000       15.9994           0
     37549 TIP3     6278     TIP3     H1       HT       0.417000       1.00800           0
     37550 TIP3     6278     TIP3     H2       HT       0.417000       1.00800           0
     37551 TIP3     6279     TIP3     OH2      OT      -0.834000       15.9994           0
     37552 TIP3     6279     TIP3     H1       HT       0.417000       1.00800           0
     37553 TIP3     6279     TIP3     H2       HT       0.417000       1.00800           0
     37554 TIP3     6280     TIP3     OH2      OT      -0.834000       15.9994           0
     37555 TIP3     6280     TIP3     H1       HT       0.417000       1.00800           0
     37556 TIP3     6280     TIP3     H2       HT       0.417000       1.00800           0
     37557 TIP3     6281     TIP3     OH2      OT      -0.834000       15.9994           0
     37558 TIP3     6281     TIP3     H1       HT       0.417000       1.00800           0
     37559 TIP3     6281     TIP3     H2       HT       0.417000       1.00800           0
     37560 TIP3     6282     TIP3     OH2      OT      -0.834000       15.9994           0
     37561 TIP3     6282     TIP3     H1       HT       0.417000       1.00800           0
     37562 TIP3     6282     TIP3     H2       HT       0.417000       1.00800           0
     37563 TIP3     6283     TIP3     OH2      OT      -0.834000       15.9994           0
     37564 TIP3     6283     TIP3     H1       HT       0.417000       1.00800           0
     37565 TIP3     6283     TIP3     H2       HT       0.417000       1.00800           0
     37566 TIP3     6284     TIP3     OH2      OT      -0.834000       15.9994           0
     37567 TIP3     6284     TIP3     H1       HT       0.417000       1.00800           0
     37568 TIP3     6284     TIP3     H2       HT       0.417000       1.00800           0
     37569 TIP3     6285     TIP3     OH2      OT      -0.834000       15.9994           0
     37570 TIP3     6285     TIP3     H1       HT       0.417000       1.00800           0
     37571 TIP3     6285     TIP3     H2       HT       0.417000       1.00800           0
     37572 TIP3     6286     TIP3     OH2      OT      -0.834000       15.9994           0
     37573 TIP3     6286     TIP3     H1       HT       0.417000       1.00800           0
     37574 TIP3     6286     TIP3     H2       HT       0.417000       1.00800           0
     37575 TIP3     6287     TIP3     OH2      OT      -0.834000       15.9994           0
     37576 TIP3     6287     TIP3     H1       HT       0.417000       1.00800           0
     37577 TIP3     6287     TIP3     H2       HT       0.417000       1.00800           0
     37578 TIP3     6288     TIP3     OH2      OT      -0.834000       15.9994           0
     37579 TIP3     6288     TIP3     H1       HT       0.417000       1.00800           0
     37580 TIP3     6288     TIP3     H2       HT       0.417000       1.00800           0
     37581 TIP3     6289     TIP3     OH2      OT      -0.834000       15.9994           0
     37582 TIP3     6289     TIP3     H1       HT       0.417000       1.00800           0
     37583 TIP3     6289     TIP3     H2       HT       0.417000       1.00800           0
     37584 TIP3     6290     TIP3     OH2      OT      -0.834000       15.9994           0
     37585 TIP3     6290     TIP3     H1       HT       0.417000       1.00800           0
     37586 TIP3     6290     TIP3     H2       HT       0.417000       1.00800           0
     37587 TIP3     6291     TIP3     OH2      OT      -0.834000       15.9994           0
     37588 TIP3     6291     TIP3     H1       HT       0.417000       1.00800           0
     37589 TIP3     6291     TIP3     H2       HT       0.417000       1.00800           0
     37590 TIP3     6292     TIP3     OH2      OT      -0.834000       15.9994           0
     37591 TIP3     6292     TIP3     H1       HT       0.417000       1.00800           0
     37592 TIP3     6292     TIP3     H2       HT       0.417000       1.00800           0
     37593 TIP3     6293     TIP3     OH2      OT      -0.834000       15.9994           0
     37594 TIP3     6293     TIP3     H1       HT       0.417000       1.00800           0
     37595 TIP3     6293     TIP3     H2       HT       0.417000       1.00800           0
     37596 TIP3     6294     TIP3     OH2      OT      -0.834000       15.9994           0
     37597 TIP3     6294     TIP3     H1       HT       0.417000       1.00800           0
     37598 TIP3     6294     TIP3     H2       HT       0.417000       1.00800           0
     37599 TIP3     6295     TIP3     OH2      OT      -0.834000       15.9994           0
     37600 TIP3     6295     TIP3     H1       HT       0.417000       1.00800           0
     37601 TIP3     6295     TIP3     H2       HT       0.417000       1.00800           0
     37602 TIP3     6296     TIP3     OH2      OT      -0.834000       15.9994           0
     37603 TIP3     6296     TIP3     H1       HT       0.417000       1.00800           0
     37604 TIP3     6296     TIP3     H2       HT       0.417000       1.00800           0
     37605 TIP3     6297     TIP3     OH2      OT      -0.834000       15.9994           0
     37606 TIP3     6297     TIP3     H1       HT       0.417000       1.00800           0
     37607 TIP3     6297     TIP3     H2       HT       0.417000       1.00800           0
     37608 TIP3     6298     TIP3     OH2      OT      -0.834000       15.9994           0
     37609 TIP3     6298     TIP3     H1       HT       0.417000       1.00800           0
     37610 TIP3     6298     TIP3     H2       HT       0.417000       1.00800           0
     37611 TIP3     6299     TIP3     OH2      OT      -0.834000       15.9994           0
     37612 TIP3     6299     TIP3     H1       HT       0.417000       1.00800           0
     37613 TIP3     6299     TIP3     H2       HT       0.417000       1.00800           0
     37614 TIP3     6300     TIP3     OH2      OT      -0.834000       15.9994           0
     37615 TIP3     6300     TIP3     H1       HT       0.417000       1.00800           0
     37616 TIP3     6300     TIP3     H2       HT       0.417000       1.00800           0
     37617 TIP3     6301     TIP3     OH2      OT      -0.834000       15.9994           0
     37618 TIP3     6301     TIP3     H1       HT       0.417000       1.00800           0
     37619 TIP3     6301     TIP3     H2       HT       0.417000       1.00800           0
     37620 TIP3     6302     TIP3     OH2      OT      -0.834000       15.9994           0
     37621 TIP3     6302     TIP3     H1       HT       0.417000       1.00800           0
     37622 TIP3     6302     TIP3     H2       HT       0.417000       1.00800           0
     37623 TIP3     6303     TIP3     OH2      OT      -0.834000       15.9994           0
     37624 TIP3     6303     TIP3     H1       HT       0.417000       1.00800           0
     37625 TIP3     6303     TIP3     H2       HT       0.417000       1.00800           0
     37626 TIP3     6304     TIP3     OH2      OT      -0.834000       15.9994           0
     37627 TIP3     6304     TIP3     H1       HT       0.417000       1.00800           0
     37628 TIP3     6304     TIP3     H2       HT       0.417000       1.00800           0
     37629 TIP3     6305     TIP3     OH2      OT      -0.834000       15.9994           0
     37630 TIP3     6305     TIP3     H1       HT       0.417000       1.00800           0
     37631 TIP3     6305     TIP3     H2       HT       0.417000       1.00800           0
     37632 TIP3     6306     TIP3     OH2      OT      -0.834000       15.9994           0
     37633 TIP3     6306     TIP3     H1       HT       0.417000       1.00800           0
     37634 TIP3     6306     TIP3     H2       HT       0.417000       1.00800           0
     37635 TIP3     6307     TIP3     OH2      OT      -0.834000       15.9994           0
     37636 TIP3     6307     TIP3     H1       HT       0.417000       1.00800           0
     37637 TIP3     6307     TIP3     H2       HT       0.417000       1.00800           0
     37638 TIP3     6308     TIP3     OH2      OT      -0.834000       15.9994           0
     37639 TIP3     6308     TIP3     H1       HT       0.417000       1.00800           0
     37640 TIP3     6308     TIP3     H2       HT       0.417000       1.00800           0
     37641 TIP3     6309     TIP3     OH2      OT      -0.834000       15.9994           0
     37642 TIP3     6309     TIP3     H1       HT       0.417000       1.00800           0
     37643 TIP3     6309     TIP3     H2       HT       0.417000       1.00800           0
     37644 TIP3     6310     TIP3     OH2      OT      -0.834000       15.9994           0
     37645 TIP3     6310     TIP3     H1       HT       0.417000       1.00800           0
     37646 TIP3     6310     TIP3     H2       HT       0.417000       1.00800           0
     37647 TIP3     6311     TIP3     OH2      OT      -0.834000       15.9994           0
     37648 TIP3     6311     TIP3     H1       HT       0.417000       1.00800           0
     37649 TIP3     6311     TIP3     H2       HT       0.417000       1.00800           0
     37650 TIP3     6312     TIP3     OH2      OT      -0.834000       15.9994           0
     37651 TIP3     6312     TIP3     H1       HT       0.417000       1.00800           0
     37652 TIP3     6312     TIP3     H2       HT       0.417000       1.00800           0
     37653 TIP3     6313     TIP3     OH2      OT      -0.834000       15.9994           0
     37654 TIP3     6313     TIP3     H1       HT       0.417000       1.00800           0
     37655 TIP3     6313     TIP3     H2       HT       0.417000       1.00800           0
     37656 TIP3     6314     TIP3     OH2      OT      -0.834000       15.9994           0
     37657 TIP3     6314     TIP3     H1       HT       0.417000       1.00800           0
     37658 TIP3     6314     TIP3     H2       HT       0.417000       1.00800           0
     37659 TIP3     6315     TIP3     OH2      OT      -0.834000       15.9994           0
     37660 TIP3     6315     TIP3     H1       HT       0.417000       1.00800           0
     37661 TIP3     6315     TIP3     H2       HT       0.417000       1.00800           0
     37662 TIP3     6316     TIP3     OH2      OT      -0.834000       15.9994           0
     37663 TIP3     6316     TIP3     H1       HT       0.417000       1.00800           0
     37664 TIP3     6316     TIP3     H2       HT       0.417000       1.00800           0
     37665 TIP3     6317     TIP3     OH2      OT      -0.834000       15.9994           0
     37666 TIP3     6317     TIP3     H1       HT       0.417000       1.00800           0
     37667 TIP3     6317     TIP3     H2       HT       0.417000       1.00800           0
     37668 TIP3     6318     TIP3     OH2      OT      -0.834000       15.9994           0
     37669 TIP3     6318     TIP3     H1       HT       0.417000       1.00800           0
     37670 TIP3     6318     TIP3     H2       HT       0.417000       1.00800           0
     37671 TIP3     6319     TIP3     OH2      OT      -0.834000       15.9994           0
     37672 TIP3     6319     TIP3     H1       HT       0.417000       1.00800           0
     37673 TIP3     6319     TIP3     H2       HT       0.417000       1.00800           0
     37674 TIP3     6320     TIP3     OH2      OT      -0.834000       15.9994           0
     37675 TIP3     6320     TIP3     H1       HT       0.417000       1.00800           0
     37676 TIP3     6320     TIP3     H2       HT       0.417000       1.00800           0
     37677 TIP3     6321     TIP3     OH2      OT      -0.834000       15.9994           0
     37678 TIP3     6321     TIP3     H1       HT       0.417000       1.00800           0
     37679 TIP3     6321     TIP3     H2       HT       0.417000       1.00800           0
     37680 TIP3     6322     TIP3     OH2      OT      -0.834000       15.9994           0
     37681 TIP3     6322     TIP3     H1       HT       0.417000       1.00800           0
     37682 TIP3     6322     TIP3     H2       HT       0.417000       1.00800           0
     37683 TIP3     6323     TIP3     OH2      OT      -0.834000       15.9994           0
     37684 TIP3     6323     TIP3     H1       HT       0.417000       1.00800           0
     37685 TIP3     6323     TIP3     H2       HT       0.417000       1.00800           0
     37686 TIP3     6324     TIP3     OH2      OT      -0.834000       15.9994           0
     37687 TIP3     6324     TIP3     H1       HT       0.417000       1.00800           0
     37688 TIP3     6324     TIP3     H2       HT       0.417000       1.00800           0
     37689 TIP3     6325     TIP3     OH2      OT      -0.834000       15.9994           0
     37690 TIP3     6325     TIP3     H1       HT       0.417000       1.00800           0
     37691 TIP3     6325     TIP3     H2       HT       0.417000       1.00800           0
     37692 TIP3     6326     TIP3     OH2      OT      -0.834000       15.9994           0
     37693 TIP3     6326     TIP3     H1       HT       0.417000       1.00800           0
     37694 TIP3     6326     TIP3     H2       HT       0.417000       1.00800           0
     37695 TIP3     6327     TIP3     OH2      OT      -0.834000       15.9994           0
     37696 TIP3     6327     TIP3     H1       HT       0.417000       1.00800           0
     37697 TIP3     6327     TIP3     H2       HT       0.417000       1.00800           0
     37698 TIP3     6328     TIP3     OH2      OT      -0.834000       15.9994           0
     37699 TIP3     6328     TIP3     H1       HT       0.417000       1.00800           0
     37700 TIP3     6328     TIP3     H2       HT       0.417000       1.00800           0
     37701 TIP3     6329     TIP3     OH2      OT      -0.834000       15.9994           0
     37702 TIP3     6329     TIP3     H1       HT       0.417000       1.00800           0
     37703 TIP3     6329     TIP3     H2       HT       0.417000       1.00800           0
     37704 TIP3     6330     TIP3     OH2      OT      -0.834000       15.9994           0
     37705 TIP3     6330     TIP3     H1       HT       0.417000       1.00800           0
     37706 TIP3     6330     TIP3     H2       HT       0.417000       1.00800           0
     37707 TIP3     6331     TIP3     OH2      OT      -0.834000       15.9994           0
     37708 TIP3     6331     TIP3     H1       HT       0.417000       1.00800           0
     37709 TIP3     6331     TIP3     H2       HT       0.417000       1.00800           0
     37710 TIP3     6332     TIP3     OH2      OT      -0.834000       15.9994           0
     37711 TIP3     6332     TIP3     H1       HT       0.417000       1.00800           0
     37712 TIP3     6332     TIP3     H2       HT       0.417000       1.00800           0
     37713 TIP3     6333     TIP3     OH2      OT      -0.834000       15.9994           0
     37714 TIP3     6333     TIP3     H1       HT       0.417000       1.00800           0
     37715 TIP3     6333     TIP3     H2       HT       0.417000       1.00800           0
     37716 TIP3     6334     TIP3     OH2      OT      -0.834000       15.9994           0
     37717 TIP3     6334     TIP3     H1       HT       0.417000       1.00800           0
     37718 TIP3     6334     TIP3     H2       HT       0.417000       1.00800           0
     37719 TIP3     6335     TIP3     OH2      OT      -0.834000       15.9994           0
     37720 TIP3     6335     TIP3     H1       HT       0.417000       1.00800           0
     37721 TIP3     6335     TIP3     H2       HT       0.417000       1.00800           0
     37722 TIP3     6336     TIP3     OH2      OT      -0.834000       15.9994           0
     37723 TIP3     6336     TIP3     H1       HT       0.417000       1.00800           0
     37724 TIP3     6336     TIP3     H2       HT       0.417000       1.00800           0
     37725 TIP3     6337     TIP3     OH2      OT      -0.834000       15.9994           0
     37726 TIP3     6337     TIP3     H1       HT       0.417000       1.00800           0
     37727 TIP3     6337     TIP3     H2       HT       0.417000       1.00800           0
     37728 TIP3     6338     TIP3     OH2      OT      -0.834000       15.9994           0
     37729 TIP3     6338     TIP3     H1       HT       0.417000       1.00800           0
     37730 TIP3     6338     TIP3     H2       HT       0.417000       1.00800           0
     37731 TIP3     6339     TIP3     OH2      OT      -0.834000       15.9994           0
     37732 TIP3     6339     TIP3     H1       HT       0.417000       1.00800           0
     37733 TIP3     6339     TIP3     H2       HT       0.417000       1.00800           0
     37734 TIP3     6340     TIP3     OH2      OT      -0.834000       15.9994           0
     37735 TIP3     6340     TIP3     H1       HT       0.417000       1.00800           0
     37736 TIP3     6340     TIP3     H2       HT       0.417000       1.00800           0
     37737 TIP3     6341     TIP3     OH2      OT      -0.834000       15.9994           0
     37738 TIP3     6341     TIP3     H1       HT       0.417000       1.00800           0
     37739 TIP3     6341     TIP3     H2       HT       0.417000       1.00800           0
     37740 TIP3     6342     TIP3     OH2      OT      -0.834000       15.9994           0
     37741 TIP3     6342     TIP3     H1       HT       0.417000       1.00800           0
     37742 TIP3     6342     TIP3     H2       HT       0.417000       1.00800           0
     37743 TIP3     6343     TIP3     OH2      OT      -0.834000       15.9994           0
     37744 TIP3     6343     TIP3     H1       HT       0.417000       1.00800           0
     37745 TIP3     6343     TIP3     H2       HT       0.417000       1.00800           0
     37746 TIP3     6344     TIP3     OH2      OT      -0.834000       15.9994           0
     37747 TIP3     6344     TIP3     H1       HT       0.417000       1.00800           0
     37748 TIP3     6344     TIP3     H2       HT       0.417000       1.00800           0
     37749 TIP3     6345     TIP3     OH2      OT      -0.834000       15.9994           0
     37750 TIP3     6345     TIP3     H1       HT       0.417000       1.00800           0
     37751 TIP3     6345     TIP3     H2       HT       0.417000       1.00800           0
     37752 TIP3     6346     TIP3     OH2      OT      -0.834000       15.9994           0
     37753 TIP3     6346     TIP3     H1       HT       0.417000       1.00800           0
     37754 TIP3     6346     TIP3     H2       HT       0.417000       1.00800           0
     37755 TIP3     6347     TIP3     OH2      OT      -0.834000       15.9994           0
     37756 TIP3     6347     TIP3     H1       HT       0.417000       1.00800           0
     37757 TIP3     6347     TIP3     H2       HT       0.417000       1.00800           0
     37758 TIP3     6348     TIP3     OH2      OT      -0.834000       15.9994           0
     37759 TIP3     6348     TIP3     H1       HT       0.417000       1.00800           0
     37760 TIP3     6348     TIP3     H2       HT       0.417000       1.00800           0
     37761 TIP3     6349     TIP3     OH2      OT      -0.834000       15.9994           0
     37762 TIP3     6349     TIP3     H1       HT       0.417000       1.00800           0
     37763 TIP3     6349     TIP3     H2       HT       0.417000       1.00800           0
     37764 TIP3     6350     TIP3     OH2      OT      -0.834000       15.9994           0
     37765 TIP3     6350     TIP3     H1       HT       0.417000       1.00800           0
     37766 TIP3     6350     TIP3     H2       HT       0.417000       1.00800           0
     37767 TIP3     6351     TIP3     OH2      OT      -0.834000       15.9994           0
     37768 TIP3     6351     TIP3     H1       HT       0.417000       1.00800           0
     37769 TIP3     6351     TIP3     H2       HT       0.417000       1.00800           0
     37770 TIP3     6352     TIP3     OH2      OT      -0.834000       15.9994           0
     37771 TIP3     6352     TIP3     H1       HT       0.417000       1.00800           0
     37772 TIP3     6352     TIP3     H2       HT       0.417000       1.00800           0
     37773 TIP3     6353     TIP3     OH2      OT      -0.834000       15.9994           0
     37774 TIP3     6353     TIP3     H1       HT       0.417000       1.00800           0
     37775 TIP3     6353     TIP3     H2       HT       0.417000       1.00800           0
     37776 TIP3     6354     TIP3     OH2      OT      -0.834000       15.9994           0
     37777 TIP3     6354     TIP3     H1       HT       0.417000       1.00800           0
     37778 TIP3     6354     TIP3     H2       HT       0.417000       1.00800           0
     37779 TIP3     6355     TIP3     OH2      OT      -0.834000       15.9994           0
     37780 TIP3     6355     TIP3     H1       HT       0.417000       1.00800           0
     37781 TIP3     6355     TIP3     H2       HT       0.417000       1.00800           0
     37782 TIP3     6356     TIP3     OH2      OT      -0.834000       15.9994           0
     37783 TIP3     6356     TIP3     H1       HT       0.417000       1.00800           0
     37784 TIP3     6356     TIP3     H2       HT       0.417000       1.00800           0
     37785 TIP3     6357     TIP3     OH2      OT      -0.834000       15.9994           0
     37786 TIP3     6357     TIP3     H1       HT       0.417000       1.00800           0
     37787 TIP3     6357     TIP3     H2       HT       0.417000       1.00800           0
     37788 TIP3     6358     TIP3     OH2      OT      -0.834000       15.9994           0
     37789 TIP3     6358     TIP3     H1       HT       0.417000       1.00800           0
     37790 TIP3     6358     TIP3     H2       HT       0.417000       1.00800           0
     37791 TIP3     6359     TIP3     OH2      OT      -0.834000       15.9994           0
     37792 TIP3     6359     TIP3     H1       HT       0.417000       1.00800           0
     37793 TIP3     6359     TIP3     H2       HT       0.417000       1.00800           0
     37794 TIP3     6360     TIP3     OH2      OT      -0.834000       15.9994           0
     37795 TIP3     6360     TIP3     H1       HT       0.417000       1.00800           0
     37796 TIP3     6360     TIP3     H2       HT       0.417000       1.00800           0
     37797 TIP3     6361     TIP3     OH2      OT      -0.834000       15.9994           0
     37798 TIP3     6361     TIP3     H1       HT       0.417000       1.00800           0
     37799 TIP3     6361     TIP3     H2       HT       0.417000       1.00800           0
     37800 TIP3     6362     TIP3     OH2      OT      -0.834000       15.9994           0
     37801 TIP3     6362     TIP3     H1       HT       0.417000       1.00800           0
     37802 TIP3     6362     TIP3     H2       HT       0.417000       1.00800           0
     37803 TIP3     6363     TIP3     OH2      OT      -0.834000       15.9994           0
     37804 TIP3     6363     TIP3     H1       HT       0.417000       1.00800           0
     37805 TIP3     6363     TIP3     H2       HT       0.417000       1.00800           0
     37806 TIP3     6364     TIP3     OH2      OT      -0.834000       15.9994           0
     37807 TIP3     6364     TIP3     H1       HT       0.417000       1.00800           0
     37808 TIP3     6364     TIP3     H2       HT       0.417000       1.00800           0
     37809 TIP3     6365     TIP3     OH2      OT      -0.834000       15.9994           0
     37810 TIP3     6365     TIP3     H1       HT       0.417000       1.00800           0
     37811 TIP3     6365     TIP3     H2       HT       0.417000       1.00800           0
     37812 TIP3     6366     TIP3     OH2      OT      -0.834000       15.9994           0
     37813 TIP3     6366     TIP3     H1       HT       0.417000       1.00800           0
     37814 TIP3     6366     TIP3     H2       HT       0.417000       1.00800           0
     37815 TIP3     6367     TIP3     OH2      OT      -0.834000       15.9994           0
     37816 TIP3     6367     TIP3     H1       HT       0.417000       1.00800           0
     37817 TIP3     6367     TIP3     H2       HT       0.417000       1.00800           0
     37818 TIP3     6368     TIP3     OH2      OT      -0.834000       15.9994           0
     37819 TIP3     6368     TIP3     H1       HT       0.417000       1.00800           0
     37820 TIP3     6368     TIP3     H2       HT       0.417000       1.00800           0
     37821 TIP3     6369     TIP3     OH2      OT      -0.834000       15.9994           0
     37822 TIP3     6369     TIP3     H1       HT       0.417000       1.00800           0
     37823 TIP3     6369     TIP3     H2       HT       0.417000       1.00800           0
     37824 TIP3     6370     TIP3     OH2      OT      -0.834000       15.9994           0
     37825 TIP3     6370     TIP3     H1       HT       0.417000       1.00800           0
     37826 TIP3     6370     TIP3     H2       HT       0.417000       1.00800           0
     37827 TIP3     6371     TIP3     OH2      OT      -0.834000       15.9994           0
     37828 TIP3     6371     TIP3     H1       HT       0.417000       1.00800           0
     37829 TIP3     6371     TIP3     H2       HT       0.417000       1.00800           0
     37830 TIP3     6372     TIP3     OH2      OT      -0.834000       15.9994           0
     37831 TIP3     6372     TIP3     H1       HT       0.417000       1.00800           0
     37832 TIP3     6372     TIP3     H2       HT       0.417000       1.00800           0
     37833 TIP3     6373     TIP3     OH2      OT      -0.834000       15.9994           0
     37834 TIP3     6373     TIP3     H1       HT       0.417000       1.00800           0
     37835 TIP3     6373     TIP3     H2       HT       0.417000       1.00800           0
     37836 TIP3     6374     TIP3     OH2      OT      -0.834000       15.9994           0
     37837 TIP3     6374     TIP3     H1       HT       0.417000       1.00800           0
     37838 TIP3     6374     TIP3     H2       HT       0.417000       1.00800           0
     37839 TIP3     6375     TIP3     OH2      OT      -0.834000       15.9994           0
     37840 TIP3     6375     TIP3     H1       HT       0.417000       1.00800           0
     37841 TIP3     6375     TIP3     H2       HT       0.417000       1.00800           0
     37842 TIP3     6376     TIP3     OH2      OT      -0.834000       15.9994           0
     37843 TIP3     6376     TIP3     H1       HT       0.417000       1.00800           0
     37844 TIP3     6376     TIP3     H2       HT       0.417000       1.00800           0
     37845 TIP3     6377     TIP3     OH2      OT      -0.834000       15.9994           0
     37846 TIP3     6377     TIP3     H1       HT       0.417000       1.00800           0
     37847 TIP3     6377     TIP3     H2       HT       0.417000       1.00800           0
     37848 TIP3     6378     TIP3     OH2      OT      -0.834000       15.9994           0
     37849 TIP3     6378     TIP3     H1       HT       0.417000       1.00800           0
     37850 TIP3     6378     TIP3     H2       HT       0.417000       1.00800           0
     37851 TIP3     6379     TIP3     OH2      OT      -0.834000       15.9994           0
     37852 TIP3     6379     TIP3     H1       HT       0.417000       1.00800           0
     37853 TIP3     6379     TIP3     H2       HT       0.417000       1.00800           0
     37854 TIP3     6380     TIP3     OH2      OT      -0.834000       15.9994           0
     37855 TIP3     6380     TIP3     H1       HT       0.417000       1.00800           0
     37856 TIP3     6380     TIP3     H2       HT       0.417000       1.00800           0
     37857 TIP3     6381     TIP3     OH2      OT      -0.834000       15.9994           0
     37858 TIP3     6381     TIP3     H1       HT       0.417000       1.00800           0
     37859 TIP3     6381     TIP3     H2       HT       0.417000       1.00800           0
     37860 TIP3     6382     TIP3     OH2      OT      -0.834000       15.9994           0
     37861 TIP3     6382     TIP3     H1       HT       0.417000       1.00800           0
     37862 TIP3     6382     TIP3     H2       HT       0.417000       1.00800           0
     37863 TIP3     6383     TIP3     OH2      OT      -0.834000       15.9994           0
     37864 TIP3     6383     TIP3     H1       HT       0.417000       1.00800           0
     37865 TIP3     6383     TIP3     H2       HT       0.417000       1.00800           0
     37866 TIP3     6384     TIP3     OH2      OT      -0.834000       15.9994           0
     37867 TIP3     6384     TIP3     H1       HT       0.417000       1.00800           0
     37868 TIP3     6384     TIP3     H2       HT       0.417000       1.00800           0
     37869 TIP3     6385     TIP3     OH2      OT      -0.834000       15.9994           0
     37870 TIP3     6385     TIP3     H1       HT       0.417000       1.00800           0
     37871 TIP3     6385     TIP3     H2       HT       0.417000       1.00800           0
     37872 TIP3     6386     TIP3     OH2      OT      -0.834000       15.9994           0
     37873 TIP3     6386     TIP3     H1       HT       0.417000       1.00800           0
     37874 TIP3     6386     TIP3     H2       HT       0.417000       1.00800           0
     37875 TIP3     6387     TIP3     OH2      OT      -0.834000       15.9994           0
     37876 TIP3     6387     TIP3     H1       HT       0.417000       1.00800           0
     37877 TIP3     6387     TIP3     H2       HT       0.417000       1.00800           0
     37878 TIP3     6388     TIP3     OH2      OT      -0.834000       15.9994           0
     37879 TIP3     6388     TIP3     H1       HT       0.417000       1.00800           0
     37880 TIP3     6388     TIP3     H2       HT       0.417000       1.00800           0
     37881 TIP3     6389     TIP3     OH2      OT      -0.834000       15.9994           0
     37882 TIP3     6389     TIP3     H1       HT       0.417000       1.00800           0
     37883 TIP3     6389     TIP3     H2       HT       0.417000       1.00800           0
     37884 TIP3     6390     TIP3     OH2      OT      -0.834000       15.9994           0
     37885 TIP3     6390     TIP3     H1       HT       0.417000       1.00800           0
     37886 TIP3     6390     TIP3     H2       HT       0.417000       1.00800           0
     37887 TIP3     6391     TIP3     OH2      OT      -0.834000       15.9994           0
     37888 TIP3     6391     TIP3     H1       HT       0.417000       1.00800           0
     37889 TIP3     6391     TIP3     H2       HT       0.417000       1.00800           0
     37890 TIP3     6392     TIP3     OH2      OT      -0.834000       15.9994           0
     37891 TIP3     6392     TIP3     H1       HT       0.417000       1.00800           0
     37892 TIP3     6392     TIP3     H2       HT       0.417000       1.00800           0
     37893 TIP3     6393     TIP3     OH2      OT      -0.834000       15.9994           0
     37894 TIP3     6393     TIP3     H1       HT       0.417000       1.00800           0
     37895 TIP3     6393     TIP3     H2       HT       0.417000       1.00800           0
     37896 TIP3     6394     TIP3     OH2      OT      -0.834000       15.9994           0
     37897 TIP3     6394     TIP3     H1       HT       0.417000       1.00800           0
     37898 TIP3     6394     TIP3     H2       HT       0.417000       1.00800           0
     37899 TIP3     6395     TIP3     OH2      OT      -0.834000       15.9994           0
     37900 TIP3     6395     TIP3     H1       HT       0.417000       1.00800           0
     37901 TIP3     6395     TIP3     H2       HT       0.417000       1.00800           0
     37902 TIP3     6396     TIP3     OH2      OT      -0.834000       15.9994           0
     37903 TIP3     6396     TIP3     H1       HT       0.417000       1.00800           0
     37904 TIP3     6396     TIP3     H2       HT       0.417000       1.00800           0
     37905 TIP3     6397     TIP3     OH2      OT      -0.834000       15.9994           0
     37906 TIP3     6397     TIP3     H1       HT       0.417000       1.00800           0
     37907 TIP3     6397     TIP3     H2       HT       0.417000       1.00800           0
     37908 TIP3     6398     TIP3     OH2      OT      -0.834000       15.9994           0
     37909 TIP3     6398     TIP3     H1       HT       0.417000       1.00800           0
     37910 TIP3     6398     TIP3     H2       HT       0.417000       1.00800           0
     37911 TIP3     6399     TIP3     OH2      OT      -0.834000       15.9994           0
     37912 TIP3     6399     TIP3     H1       HT       0.417000       1.00800           0
     37913 TIP3     6399     TIP3     H2       HT       0.417000       1.00800           0
     37914 TIP3     6400     TIP3     OH2      OT      -0.834000       15.9994           0
     37915 TIP3     6400     TIP3     H1       HT       0.417000       1.00800           0
     37916 TIP3     6400     TIP3     H2       HT       0.417000       1.00800           0
     37917 TIP3     6401     TIP3     OH2      OT      -0.834000       15.9994           0
     37918 TIP3     6401     TIP3     H1       HT       0.417000       1.00800           0
     37919 TIP3     6401     TIP3     H2       HT       0.417000       1.00800           0
     37920 TIP3     6402     TIP3     OH2      OT      -0.834000       15.9994           0
     37921 TIP3     6402     TIP3     H1       HT       0.417000       1.00800           0
     37922 TIP3     6402     TIP3     H2       HT       0.417000       1.00800           0
     37923 TIP3     6403     TIP3     OH2      OT      -0.834000       15.9994           0
     37924 TIP3     6403     TIP3     H1       HT       0.417000       1.00800           0
     37925 TIP3     6403     TIP3     H2       HT       0.417000       1.00800           0
     37926 TIP3     6404     TIP3     OH2      OT      -0.834000       15.9994           0
     37927 TIP3     6404     TIP3     H1       HT       0.417000       1.00800           0
     37928 TIP3     6404     TIP3     H2       HT       0.417000       1.00800           0
     37929 TIP3     6405     TIP3     OH2      OT      -0.834000       15.9994           0
     37930 TIP3     6405     TIP3     H1       HT       0.417000       1.00800           0
     37931 TIP3     6405     TIP3     H2       HT       0.417000       1.00800           0
     37932 TIP3     6406     TIP3     OH2      OT      -0.834000       15.9994           0
     37933 TIP3     6406     TIP3     H1       HT       0.417000       1.00800           0
     37934 TIP3     6406     TIP3     H2       HT       0.417000       1.00800           0
     37935 TIP3     6407     TIP3     OH2      OT      -0.834000       15.9994           0
     37936 TIP3     6407     TIP3     H1       HT       0.417000       1.00800           0
     37937 TIP3     6407     TIP3     H2       HT       0.417000       1.00800           0
     37938 TIP3     6408     TIP3     OH2      OT      -0.834000       15.9994           0
     37939 TIP3     6408     TIP3     H1       HT       0.417000       1.00800           0
     37940 TIP3     6408     TIP3     H2       HT       0.417000       1.00800           0
     37941 TIP3     6409     TIP3     OH2      OT      -0.834000       15.9994           0
     37942 TIP3     6409     TIP3     H1       HT       0.417000       1.00800           0
     37943 TIP3     6409     TIP3     H2       HT       0.417000       1.00800           0
     37944 TIP3     6410     TIP3     OH2      OT      -0.834000       15.9994           0
     37945 TIP3     6410     TIP3     H1       HT       0.417000       1.00800           0
     37946 TIP3     6410     TIP3     H2       HT       0.417000       1.00800           0
     37947 TIP3     6411     TIP3     OH2      OT      -0.834000       15.9994           0
     37948 TIP3     6411     TIP3     H1       HT       0.417000       1.00800           0
     37949 TIP3     6411     TIP3     H2       HT       0.417000       1.00800           0
     37950 TIP3     6412     TIP3     OH2      OT      -0.834000       15.9994           0
     37951 TIP3     6412     TIP3     H1       HT       0.417000       1.00800           0
     37952 TIP3     6412     TIP3     H2       HT       0.417000       1.00800           0
     37953 TIP3     6413     TIP3     OH2      OT      -0.834000       15.9994           0
     37954 TIP3     6413     TIP3     H1       HT       0.417000       1.00800           0
     37955 TIP3     6413     TIP3     H2       HT       0.417000       1.00800           0
     37956 TIP3     6414     TIP3     OH2      OT      -0.834000       15.9994           0
     37957 TIP3     6414     TIP3     H1       HT       0.417000       1.00800           0
     37958 TIP3     6414     TIP3     H2       HT       0.417000       1.00800           0
     37959 TIP3     6415     TIP3     OH2      OT      -0.834000       15.9994           0
     37960 TIP3     6415     TIP3     H1       HT       0.417000       1.00800           0
     37961 TIP3     6415     TIP3     H2       HT       0.417000       1.00800           0
     37962 TIP3     6416     TIP3     OH2      OT      -0.834000       15.9994           0
     37963 TIP3     6416     TIP3     H1       HT       0.417000       1.00800           0
     37964 TIP3     6416     TIP3     H2       HT       0.417000       1.00800           0
     37965 TIP3     6417     TIP3     OH2      OT      -0.834000       15.9994           0
     37966 TIP3     6417     TIP3     H1       HT       0.417000       1.00800           0
     37967 TIP3     6417     TIP3     H2       HT       0.417000       1.00800           0
     37968 TIP3     6418     TIP3     OH2      OT      -0.834000       15.9994           0
     37969 TIP3     6418     TIP3     H1       HT       0.417000       1.00800           0
     37970 TIP3     6418     TIP3     H2       HT       0.417000       1.00800           0
     37971 TIP3     6419     TIP3     OH2      OT      -0.834000       15.9994           0
     37972 TIP3     6419     TIP3     H1       HT       0.417000       1.00800           0
     37973 TIP3     6419     TIP3     H2       HT       0.417000       1.00800           0
     37974 TIP3     6420     TIP3     OH2      OT      -0.834000       15.9994           0
     37975 TIP3     6420     TIP3     H1       HT       0.417000       1.00800           0
     37976 TIP3     6420     TIP3     H2       HT       0.417000       1.00800           0
     37977 TIP3     6421     TIP3     OH2      OT      -0.834000       15.9994           0
     37978 TIP3     6421     TIP3     H1       HT       0.417000       1.00800           0
     37979 TIP3     6421     TIP3     H2       HT       0.417000       1.00800           0
     37980 TIP3     6422     TIP3     OH2      OT      -0.834000       15.9994           0
     37981 TIP3     6422     TIP3     H1       HT       0.417000       1.00800           0
     37982 TIP3     6422     TIP3     H2       HT       0.417000       1.00800           0
     37983 TIP3     6423     TIP3     OH2      OT      -0.834000       15.9994           0
     37984 TIP3     6423     TIP3     H1       HT       0.417000       1.00800           0
     37985 TIP3     6423     TIP3     H2       HT       0.417000       1.00800           0
     37986 TIP3     6424     TIP3     OH2      OT      -0.834000       15.9994           0
     37987 TIP3     6424     TIP3     H1       HT       0.417000       1.00800           0
     37988 TIP3     6424     TIP3     H2       HT       0.417000       1.00800           0
     37989 TIP3     6425     TIP3     OH2      OT      -0.834000       15.9994           0
     37990 TIP3     6425     TIP3     H1       HT       0.417000       1.00800           0
     37991 TIP3     6425     TIP3     H2       HT       0.417000       1.00800           0
     37992 TIP3     6426     TIP3     OH2      OT      -0.834000       15.9994           0
     37993 TIP3     6426     TIP3     H1       HT       0.417000       1.00800           0
     37994 TIP3     6426     TIP3     H2       HT       0.417000       1.00800           0
     37995 TIP3     6427     TIP3     OH2      OT      -0.834000       15.9994           0
     37996 TIP3     6427     TIP3     H1       HT       0.417000       1.00800           0
     37997 TIP3     6427     TIP3     H2       HT       0.417000       1.00800           0
     37998 TIP3     6428     TIP3     OH2      OT      -0.834000       15.9994           0
     37999 TIP3     6428     TIP3     H1       HT       0.417000       1.00800           0
     38000 TIP3     6428     TIP3     H2       HT       0.417000       1.00800           0
     38001 TIP3     6429     TIP3     OH2      OT      -0.834000       15.9994           0
     38002 TIP3     6429     TIP3     H1       HT       0.417000       1.00800           0
     38003 TIP3     6429     TIP3     H2       HT       0.417000       1.00800           0
     38004 TIP3     6430     TIP3     OH2      OT      -0.834000       15.9994           0
     38005 TIP3     6430     TIP3     H1       HT       0.417000       1.00800           0
     38006 TIP3     6430     TIP3     H2       HT       0.417000       1.00800           0
     38007 TIP3     6431     TIP3     OH2      OT      -0.834000       15.9994           0
     38008 TIP3     6431     TIP3     H1       HT       0.417000       1.00800           0
     38009 TIP3     6431     TIP3     H2       HT       0.417000       1.00800           0
     38010 TIP3     6432     TIP3     OH2      OT      -0.834000       15.9994           0
     38011 TIP3     6432     TIP3     H1       HT       0.417000       1.00800           0
     38012 TIP3     6432     TIP3     H2       HT       0.417000       1.00800           0
     38013 TIP3     6433     TIP3     OH2      OT      -0.834000       15.9994           0
     38014 TIP3     6433     TIP3     H1       HT       0.417000       1.00800           0
     38015 TIP3     6433     TIP3     H2       HT       0.417000       1.00800           0
     38016 TIP3     6434     TIP3     OH2      OT      -0.834000       15.9994           0
     38017 TIP3     6434     TIP3     H1       HT       0.417000       1.00800           0
     38018 TIP3     6434     TIP3     H2       HT       0.417000       1.00800           0
     38019 TIP3     6435     TIP3     OH2      OT      -0.834000       15.9994           0
     38020 TIP3     6435     TIP3     H1       HT       0.417000       1.00800           0
     38021 TIP3     6435     TIP3     H2       HT       0.417000       1.00800           0
     38022 TIP3     6436     TIP3     OH2      OT      -0.834000       15.9994           0
     38023 TIP3     6436     TIP3     H1       HT       0.417000       1.00800           0
     38024 TIP3     6436     TIP3     H2       HT       0.417000       1.00800           0
     38025 TIP3     6437     TIP3     OH2      OT      -0.834000       15.9994           0
     38026 TIP3     6437     TIP3     H1       HT       0.417000       1.00800           0
     38027 TIP3     6437     TIP3     H2       HT       0.417000       1.00800           0
     38028 TIP3     6438     TIP3     OH2      OT      -0.834000       15.9994           0
     38029 TIP3     6438     TIP3     H1       HT       0.417000       1.00800           0
     38030 TIP3     6438     TIP3     H2       HT       0.417000       1.00800           0
     38031 TIP3     6439     TIP3     OH2      OT      -0.834000       15.9994           0
     38032 TIP3     6439     TIP3     H1       HT       0.417000       1.00800           0
     38033 TIP3     6439     TIP3     H2       HT       0.417000       1.00800           0
     38034 TIP3     6440     TIP3     OH2      OT      -0.834000       15.9994           0
     38035 TIP3     6440     TIP3     H1       HT       0.417000       1.00800           0
     38036 TIP3     6440     TIP3     H2       HT       0.417000       1.00800           0
     38037 TIP3     6441     TIP3     OH2      OT      -0.834000       15.9994           0
     38038 TIP3     6441     TIP3     H1       HT       0.417000       1.00800           0
     38039 TIP3     6441     TIP3     H2       HT       0.417000       1.00800           0
     38040 TIP3     6442     TIP3     OH2      OT      -0.834000       15.9994           0
     38041 TIP3     6442     TIP3     H1       HT       0.417000       1.00800           0
     38042 TIP3     6442     TIP3     H2       HT       0.417000       1.00800           0
     38043 TIP3     6443     TIP3     OH2      OT      -0.834000       15.9994           0
     38044 TIP3     6443     TIP3     H1       HT       0.417000       1.00800           0
     38045 TIP3     6443     TIP3     H2       HT       0.417000       1.00800           0
     38046 TIP3     6444     TIP3     OH2      OT      -0.834000       15.9994           0
     38047 TIP3     6444     TIP3     H1       HT       0.417000       1.00800           0
     38048 TIP3     6444     TIP3     H2       HT       0.417000       1.00800           0
     38049 TIP3     6445     TIP3     OH2      OT      -0.834000       15.9994           0
     38050 TIP3     6445     TIP3     H1       HT       0.417000       1.00800           0
     38051 TIP3     6445     TIP3     H2       HT       0.417000       1.00800           0
     38052 TIP3     6446     TIP3     OH2      OT      -0.834000       15.9994           0
     38053 TIP3     6446     TIP3     H1       HT       0.417000       1.00800           0
     38054 TIP3     6446     TIP3     H2       HT       0.417000       1.00800           0
     38055 TIP3     6447     TIP3     OH2      OT      -0.834000       15.9994           0
     38056 TIP3     6447     TIP3     H1       HT       0.417000       1.00800           0
     38057 TIP3     6447     TIP3     H2       HT       0.417000       1.00800           0
     38058 TIP3     6448     TIP3     OH2      OT      -0.834000       15.9994           0
     38059 TIP3     6448     TIP3     H1       HT       0.417000       1.00800           0
     38060 TIP3     6448     TIP3     H2       HT       0.417000       1.00800           0
     38061 TIP3     6449     TIP3     OH2      OT      -0.834000       15.9994           0
     38062 TIP3     6449     TIP3     H1       HT       0.417000       1.00800           0
     38063 TIP3     6449     TIP3     H2       HT       0.417000       1.00800           0
     38064 TIP3     6450     TIP3     OH2      OT      -0.834000       15.9994           0
     38065 TIP3     6450     TIP3     H1       HT       0.417000       1.00800           0
     38066 TIP3     6450     TIP3     H2       HT       0.417000       1.00800           0
     38067 TIP3     6451     TIP3     OH2      OT      -0.834000       15.9994           0
     38068 TIP3     6451     TIP3     H1       HT       0.417000       1.00800           0
     38069 TIP3     6451     TIP3     H2       HT       0.417000       1.00800           0
     38070 TIP3     6452     TIP3     OH2      OT      -0.834000       15.9994           0
     38071 TIP3     6452     TIP3     H1       HT       0.417000       1.00800           0
     38072 TIP3     6452     TIP3     H2       HT       0.417000       1.00800           0
     38073 TIP3     6453     TIP3     OH2      OT      -0.834000       15.9994           0
     38074 TIP3     6453     TIP3     H1       HT       0.417000       1.00800           0
     38075 TIP3     6453     TIP3     H2       HT       0.417000       1.00800           0
     38076 TIP3     6454     TIP3     OH2      OT      -0.834000       15.9994           0
     38077 TIP3     6454     TIP3     H1       HT       0.417000       1.00800           0
     38078 TIP3     6454     TIP3     H2       HT       0.417000       1.00800           0
     38079 TIP3     6455     TIP3     OH2      OT      -0.834000       15.9994           0
     38080 TIP3     6455     TIP3     H1       HT       0.417000       1.00800           0
     38081 TIP3     6455     TIP3     H2       HT       0.417000       1.00800           0
     38082 TIP3     6456     TIP3     OH2      OT      -0.834000       15.9994           0
     38083 TIP3     6456     TIP3     H1       HT       0.417000       1.00800           0
     38084 TIP3     6456     TIP3     H2       HT       0.417000       1.00800           0
     38085 TIP3     6457     TIP3     OH2      OT      -0.834000       15.9994           0
     38086 TIP3     6457     TIP3     H1       HT       0.417000       1.00800           0
     38087 TIP3     6457     TIP3     H2       HT       0.417000       1.00800           0
     38088 TIP3     6458     TIP3     OH2      OT      -0.834000       15.9994           0
     38089 TIP3     6458     TIP3     H1       HT       0.417000       1.00800           0
     38090 TIP3     6458     TIP3     H2       HT       0.417000       1.00800           0
     38091 TIP3     6459     TIP3     OH2      OT      -0.834000       15.9994           0
     38092 TIP3     6459     TIP3     H1       HT       0.417000       1.00800           0
     38093 TIP3     6459     TIP3     H2       HT       0.417000       1.00800           0
     38094 TIP3     6460     TIP3     OH2      OT      -0.834000       15.9994           0
     38095 TIP3     6460     TIP3     H1       HT       0.417000       1.00800           0
     38096 TIP3     6460     TIP3     H2       HT       0.417000       1.00800           0
     38097 TIP3     6461     TIP3     OH2      OT      -0.834000       15.9994           0
     38098 TIP3     6461     TIP3     H1       HT       0.417000       1.00800           0
     38099 TIP3     6461     TIP3     H2       HT       0.417000       1.00800           0
     38100 TIP3     6462     TIP3     OH2      OT      -0.834000       15.9994           0
     38101 TIP3     6462     TIP3     H1       HT       0.417000       1.00800           0
     38102 TIP3     6462     TIP3     H2       HT       0.417000       1.00800           0
     38103 TIP3     6463     TIP3     OH2      OT      -0.834000       15.9994           0
     38104 TIP3     6463     TIP3     H1       HT       0.417000       1.00800           0
     38105 TIP3     6463     TIP3     H2       HT       0.417000       1.00800           0
     38106 TIP3     6464     TIP3     OH2      OT      -0.834000       15.9994           0
     38107 TIP3     6464     TIP3     H1       HT       0.417000       1.00800           0
     38108 TIP3     6464     TIP3     H2       HT       0.417000       1.00800           0
     38109 TIP3     6465     TIP3     OH2      OT      -0.834000       15.9994           0
     38110 TIP3     6465     TIP3     H1       HT       0.417000       1.00800           0
     38111 TIP3     6465     TIP3     H2       HT       0.417000       1.00800           0
     38112 TIP3     6466     TIP3     OH2      OT      -0.834000       15.9994           0
     38113 TIP3     6466     TIP3     H1       HT       0.417000       1.00800           0
     38114 TIP3     6466     TIP3     H2       HT       0.417000       1.00800           0
     38115 TIP3     6467     TIP3     OH2      OT      -0.834000       15.9994           0
     38116 TIP3     6467     TIP3     H1       HT       0.417000       1.00800           0
     38117 TIP3     6467     TIP3     H2       HT       0.417000       1.00800           0
     38118 TIP3     6468     TIP3     OH2      OT      -0.834000       15.9994           0
     38119 TIP3     6468     TIP3     H1       HT       0.417000       1.00800           0
     38120 TIP3     6468     TIP3     H2       HT       0.417000       1.00800           0
     38121 TIP3     6469     TIP3     OH2      OT      -0.834000       15.9994           0
     38122 TIP3     6469     TIP3     H1       HT       0.417000       1.00800           0
     38123 TIP3     6469     TIP3     H2       HT       0.417000       1.00800           0
     38124 TIP3     6470     TIP3     OH2      OT      -0.834000       15.9994           0
     38125 TIP3     6470     TIP3     H1       HT       0.417000       1.00800           0
     38126 TIP3     6470     TIP3     H2       HT       0.417000       1.00800           0
     38127 TIP3     6471     TIP3     OH2      OT      -0.834000       15.9994           0
     38128 TIP3     6471     TIP3     H1       HT       0.417000       1.00800           0
     38129 TIP3     6471     TIP3     H2       HT       0.417000       1.00800           0
     38130 TIP3     6472     TIP3     OH2      OT      -0.834000       15.9994           0
     38131 TIP3     6472     TIP3     H1       HT       0.417000       1.00800           0
     38132 TIP3     6472     TIP3     H2       HT       0.417000       1.00800           0
     38133 TIP3     6473     TIP3     OH2      OT      -0.834000       15.9994           0
     38134 TIP3     6473     TIP3     H1       HT       0.417000       1.00800           0
     38135 TIP3     6473     TIP3     H2       HT       0.417000       1.00800           0
     38136 TIP3     6474     TIP3     OH2      OT      -0.834000       15.9994           0
     38137 TIP3     6474     TIP3     H1       HT       0.417000       1.00800           0
     38138 TIP3     6474     TIP3     H2       HT       0.417000       1.00800           0
     38139 TIP3     6475     TIP3     OH2      OT      -0.834000       15.9994           0
     38140 TIP3     6475     TIP3     H1       HT       0.417000       1.00800           0
     38141 TIP3     6475     TIP3     H2       HT       0.417000       1.00800           0
     38142 TIP3     6476     TIP3     OH2      OT      -0.834000       15.9994           0
     38143 TIP3     6476     TIP3     H1       HT       0.417000       1.00800           0
     38144 TIP3     6476     TIP3     H2       HT       0.417000       1.00800           0
     38145 TIP3     6477     TIP3     OH2      OT      -0.834000       15.9994           0
     38146 TIP3     6477     TIP3     H1       HT       0.417000       1.00800           0
     38147 TIP3     6477     TIP3     H2       HT       0.417000       1.00800           0
     38148 TIP3     6478     TIP3     OH2      OT      -0.834000       15.9994           0
     38149 TIP3     6478     TIP3     H1       HT       0.417000       1.00800           0
     38150 TIP3     6478     TIP3     H2       HT       0.417000       1.00800           0
     38151 TIP3     6479     TIP3     OH2      OT      -0.834000       15.9994           0
     38152 TIP3     6479     TIP3     H1       HT       0.417000       1.00800           0
     38153 TIP3     6479     TIP3     H2       HT       0.417000       1.00800           0
     38154 TIP3     6480     TIP3     OH2      OT      -0.834000       15.9994           0
     38155 TIP3     6480     TIP3     H1       HT       0.417000       1.00800           0
     38156 TIP3     6480     TIP3     H2       HT       0.417000       1.00800           0
     38157 TIP3     6481     TIP3     OH2      OT      -0.834000       15.9994           0
     38158 TIP3     6481     TIP3     H1       HT       0.417000       1.00800           0
     38159 TIP3     6481     TIP3     H2       HT       0.417000       1.00800           0
     38160 TIP3     6482     TIP3     OH2      OT      -0.834000       15.9994           0
     38161 TIP3     6482     TIP3     H1       HT       0.417000       1.00800           0
     38162 TIP3     6482     TIP3     H2       HT       0.417000       1.00800           0
     38163 TIP3     6483     TIP3     OH2      OT      -0.834000       15.9994           0
     38164 TIP3     6483     TIP3     H1       HT       0.417000       1.00800           0
     38165 TIP3     6483     TIP3     H2       HT       0.417000       1.00800           0
     38166 TIP3     6484     TIP3     OH2      OT      -0.834000       15.9994           0
     38167 TIP3     6484     TIP3     H1       HT       0.417000       1.00800           0
     38168 TIP3     6484     TIP3     H2       HT       0.417000       1.00800           0
     38169 TIP3     6485     TIP3     OH2      OT      -0.834000       15.9994           0
     38170 TIP3     6485     TIP3     H1       HT       0.417000       1.00800           0
     38171 TIP3     6485     TIP3     H2       HT       0.417000       1.00800           0
     38172 TIP3     6486     TIP3     OH2      OT      -0.834000       15.9994           0
     38173 TIP3     6486     TIP3     H1       HT       0.417000       1.00800           0
     38174 TIP3     6486     TIP3     H2       HT       0.417000       1.00800           0
     38175 TIP3     6487     TIP3     OH2      OT      -0.834000       15.9994           0
     38176 TIP3     6487     TIP3     H1       HT       0.417000       1.00800           0
     38177 TIP3     6487     TIP3     H2       HT       0.417000       1.00800           0
     38178 TIP3     6488     TIP3     OH2      OT      -0.834000       15.9994           0
     38179 TIP3     6488     TIP3     H1       HT       0.417000       1.00800           0
     38180 TIP3     6488     TIP3     H2       HT       0.417000       1.00800           0
     38181 TIP3     6489     TIP3     OH2      OT      -0.834000       15.9994           0
     38182 TIP3     6489     TIP3     H1       HT       0.417000       1.00800           0
     38183 TIP3     6489     TIP3     H2       HT       0.417000       1.00800           0
     38184 TIP3     6490     TIP3     OH2      OT      -0.834000       15.9994           0
     38185 TIP3     6490     TIP3     H1       HT       0.417000       1.00800           0
     38186 TIP3     6490     TIP3     H2       HT       0.417000       1.00800           0
     38187 TIP3     6491     TIP3     OH2      OT      -0.834000       15.9994           0
     38188 TIP3     6491     TIP3     H1       HT       0.417000       1.00800           0
     38189 TIP3     6491     TIP3     H2       HT       0.417000       1.00800           0
     38190 TIP3     6492     TIP3     OH2      OT      -0.834000       15.9994           0
     38191 TIP3     6492     TIP3     H1       HT       0.417000       1.00800           0
     38192 TIP3     6492     TIP3     H2       HT       0.417000       1.00800           0
     38193 TIP3     6493     TIP3     OH2      OT      -0.834000       15.9994           0
     38194 TIP3     6493     TIP3     H1       HT       0.417000       1.00800           0
     38195 TIP3     6493     TIP3     H2       HT       0.417000       1.00800           0
     38196 TIP3     6494     TIP3     OH2      OT      -0.834000       15.9994           0
     38197 TIP3     6494     TIP3     H1       HT       0.417000       1.00800           0
     38198 TIP3     6494     TIP3     H2       HT       0.417000       1.00800           0
     38199 TIP3     6495     TIP3     OH2      OT      -0.834000       15.9994           0
     38200 TIP3     6495     TIP3     H1       HT       0.417000       1.00800           0
     38201 TIP3     6495     TIP3     H2       HT       0.417000       1.00800           0
     38202 TIP3     6496     TIP3     OH2      OT      -0.834000       15.9994           0
     38203 TIP3     6496     TIP3     H1       HT       0.417000       1.00800           0
     38204 TIP3     6496     TIP3     H2       HT       0.417000       1.00800           0
     38205 TIP3     6497     TIP3     OH2      OT      -0.834000       15.9994           0
     38206 TIP3     6497     TIP3     H1       HT       0.417000       1.00800           0
     38207 TIP3     6497     TIP3     H2       HT       0.417000       1.00800           0
     38208 TIP3     6498     TIP3     OH2      OT      -0.834000       15.9994           0
     38209 TIP3     6498     TIP3     H1       HT       0.417000       1.00800           0
     38210 TIP3     6498     TIP3     H2       HT       0.417000       1.00800           0
     38211 TIP3     6499     TIP3     OH2      OT      -0.834000       15.9994           0
     38212 TIP3     6499     TIP3     H1       HT       0.417000       1.00800           0
     38213 TIP3     6499     TIP3     H2       HT       0.417000       1.00800           0
     38214 TIP3     6500     TIP3     OH2      OT      -0.834000       15.9994           0
     38215 TIP3     6500     TIP3     H1       HT       0.417000       1.00800           0
     38216 TIP3     6500     TIP3     H2       HT       0.417000       1.00800           0
     38217 TIP3     6501     TIP3     OH2      OT      -0.834000       15.9994           0
     38218 TIP3     6501     TIP3     H1       HT       0.417000       1.00800           0
     38219 TIP3     6501     TIP3     H2       HT       0.417000       1.00800           0
     38220 TIP3     6502     TIP3     OH2      OT      -0.834000       15.9994           0
     38221 TIP3     6502     TIP3     H1       HT       0.417000       1.00800           0
     38222 TIP3     6502     TIP3     H2       HT       0.417000       1.00800           0
     38223 TIP3     6503     TIP3     OH2      OT      -0.834000       15.9994           0
     38224 TIP3     6503     TIP3     H1       HT       0.417000       1.00800           0
     38225 TIP3     6503     TIP3     H2       HT       0.417000       1.00800           0
     38226 TIP3     6504     TIP3     OH2      OT      -0.834000       15.9994           0
     38227 TIP3     6504     TIP3     H1       HT       0.417000       1.00800           0
     38228 TIP3     6504     TIP3     H2       HT       0.417000       1.00800           0
     38229 TIP3     6505     TIP3     OH2      OT      -0.834000       15.9994           0
     38230 TIP3     6505     TIP3     H1       HT       0.417000       1.00800           0
     38231 TIP3     6505     TIP3     H2       HT       0.417000       1.00800           0
     38232 TIP3     6506     TIP3     OH2      OT      -0.834000       15.9994           0
     38233 TIP3     6506     TIP3     H1       HT       0.417000       1.00800           0
     38234 TIP3     6506     TIP3     H2       HT       0.417000       1.00800           0
     38235 TIP3     6507     TIP3     OH2      OT      -0.834000       15.9994           0
     38236 TIP3     6507     TIP3     H1       HT       0.417000       1.00800           0
     38237 TIP3     6507     TIP3     H2       HT       0.417000       1.00800           0
     38238 TIP3     6508     TIP3     OH2      OT      -0.834000       15.9994           0
     38239 TIP3     6508     TIP3     H1       HT       0.417000       1.00800           0
     38240 TIP3     6508     TIP3     H2       HT       0.417000       1.00800           0
     38241 TIP3     6509     TIP3     OH2      OT      -0.834000       15.9994           0
     38242 TIP3     6509     TIP3     H1       HT       0.417000       1.00800           0
     38243 TIP3     6509     TIP3     H2       HT       0.417000       1.00800           0
     38244 TIP3     6510     TIP3     OH2      OT      -0.834000       15.9994           0
     38245 TIP3     6510     TIP3     H1       HT       0.417000       1.00800           0
     38246 TIP3     6510     TIP3     H2       HT       0.417000       1.00800           0
     38247 TIP3     6511     TIP3     OH2      OT      -0.834000       15.9994           0
     38248 TIP3     6511     TIP3     H1       HT       0.417000       1.00800           0
     38249 TIP3     6511     TIP3     H2       HT       0.417000       1.00800           0
     38250 TIP3     6512     TIP3     OH2      OT      -0.834000       15.9994           0
     38251 TIP3     6512     TIP3     H1       HT       0.417000       1.00800           0
     38252 TIP3     6512     TIP3     H2       HT       0.417000       1.00800           0
     38253 TIP3     6513     TIP3     OH2      OT      -0.834000       15.9994           0
     38254 TIP3     6513     TIP3     H1       HT       0.417000       1.00800           0
     38255 TIP3     6513     TIP3     H2       HT       0.417000       1.00800           0
     38256 TIP3     6514     TIP3     OH2      OT      -0.834000       15.9994           0
     38257 TIP3     6514     TIP3     H1       HT       0.417000       1.00800           0
     38258 TIP3     6514     TIP3     H2       HT       0.417000       1.00800           0
     38259 TIP3     6515     TIP3     OH2      OT      -0.834000       15.9994           0
     38260 TIP3     6515     TIP3     H1       HT       0.417000       1.00800           0
     38261 TIP3     6515     TIP3     H2       HT       0.417000       1.00800           0
     38262 TIP3     6516     TIP3     OH2      OT      -0.834000       15.9994           0
     38263 TIP3     6516     TIP3     H1       HT       0.417000       1.00800           0
     38264 TIP3     6516     TIP3     H2       HT       0.417000       1.00800           0
     38265 TIP3     6517     TIP3     OH2      OT      -0.834000       15.9994           0
     38266 TIP3     6517     TIP3     H1       HT       0.417000       1.00800           0
     38267 TIP3     6517     TIP3     H2       HT       0.417000       1.00800           0
     38268 TIP3     6518     TIP3     OH2      OT      -0.834000       15.9994           0
     38269 TIP3     6518     TIP3     H1       HT       0.417000       1.00800           0
     38270 TIP3     6518     TIP3     H2       HT       0.417000       1.00800           0
     38271 TIP3     6519     TIP3     OH2      OT      -0.834000       15.9994           0
     38272 TIP3     6519     TIP3     H1       HT       0.417000       1.00800           0
     38273 TIP3     6519     TIP3     H2       HT       0.417000       1.00800           0
     38274 TIP3     6520     TIP3     OH2      OT      -0.834000       15.9994           0
     38275 TIP3     6520     TIP3     H1       HT       0.417000       1.00800           0
     38276 TIP3     6520     TIP3     H2       HT       0.417000       1.00800           0
     38277 TIP3     6521     TIP3     OH2      OT      -0.834000       15.9994           0
     38278 TIP3     6521     TIP3     H1       HT       0.417000       1.00800           0
     38279 TIP3     6521     TIP3     H2       HT       0.417000       1.00800           0
     38280 TIP3     6522     TIP3     OH2      OT      -0.834000       15.9994           0
     38281 TIP3     6522     TIP3     H1       HT       0.417000       1.00800           0
     38282 TIP3     6522     TIP3     H2       HT       0.417000       1.00800           0
     38283 TIP3     6523     TIP3     OH2      OT      -0.834000       15.9994           0
     38284 TIP3     6523     TIP3     H1       HT       0.417000       1.00800           0
     38285 TIP3     6523     TIP3     H2       HT       0.417000       1.00800           0
     38286 TIP3     6524     TIP3     OH2      OT      -0.834000       15.9994           0
     38287 TIP3     6524     TIP3     H1       HT       0.417000       1.00800           0
     38288 TIP3     6524     TIP3     H2       HT       0.417000       1.00800           0
     38289 TIP3     6525     TIP3     OH2      OT      -0.834000       15.9994           0
     38290 TIP3     6525     TIP3     H1       HT       0.417000       1.00800           0
     38291 TIP3     6525     TIP3     H2       HT       0.417000       1.00800           0
     38292 TIP3     6526     TIP3     OH2      OT      -0.834000       15.9994           0
     38293 TIP3     6526     TIP3     H1       HT       0.417000       1.00800           0
     38294 TIP3     6526     TIP3     H2       HT       0.417000       1.00800           0
     38295 TIP3     6527     TIP3     OH2      OT      -0.834000       15.9994           0
     38296 TIP3     6527     TIP3     H1       HT       0.417000       1.00800           0
     38297 TIP3     6527     TIP3     H2       HT       0.417000       1.00800           0
     38298 TIP3     6528     TIP3     OH2      OT      -0.834000       15.9994           0
     38299 TIP3     6528     TIP3     H1       HT       0.417000       1.00800           0
     38300 TIP3     6528     TIP3     H2       HT       0.417000       1.00800           0
     38301 TIP3     6529     TIP3     OH2      OT      -0.834000       15.9994           0
     38302 TIP3     6529     TIP3     H1       HT       0.417000       1.00800           0
     38303 TIP3     6529     TIP3     H2       HT       0.417000       1.00800           0
     38304 TIP3     6530     TIP3     OH2      OT      -0.834000       15.9994           0
     38305 TIP3     6530     TIP3     H1       HT       0.417000       1.00800           0
     38306 TIP3     6530     TIP3     H2       HT       0.417000       1.00800           0
     38307 TIP3     6531     TIP3     OH2      OT      -0.834000       15.9994           0
     38308 TIP3     6531     TIP3     H1       HT       0.417000       1.00800           0
     38309 TIP3     6531     TIP3     H2       HT       0.417000       1.00800           0
     38310 TIP3     6532     TIP3     OH2      OT      -0.834000       15.9994           0
     38311 TIP3     6532     TIP3     H1       HT       0.417000       1.00800           0
     38312 TIP3     6532     TIP3     H2       HT       0.417000       1.00800           0
     38313 TIP3     6533     TIP3     OH2      OT      -0.834000       15.9994           0
     38314 TIP3     6533     TIP3     H1       HT       0.417000       1.00800           0
     38315 TIP3     6533     TIP3     H2       HT       0.417000       1.00800           0
     38316 TIP3     6534     TIP3     OH2      OT      -0.834000       15.9994           0
     38317 TIP3     6534     TIP3     H1       HT       0.417000       1.00800           0
     38318 TIP3     6534     TIP3     H2       HT       0.417000       1.00800           0
     38319 TIP3     6535     TIP3     OH2      OT      -0.834000       15.9994           0
     38320 TIP3     6535     TIP3     H1       HT       0.417000       1.00800           0
     38321 TIP3     6535     TIP3     H2       HT       0.417000       1.00800           0
     38322 TIP3     6536     TIP3     OH2      OT      -0.834000       15.9994           0
     38323 TIP3     6536     TIP3     H1       HT       0.417000       1.00800           0
     38324 TIP3     6536     TIP3     H2       HT       0.417000       1.00800           0
     38325 TIP3     6537     TIP3     OH2      OT      -0.834000       15.9994           0
     38326 TIP3     6537     TIP3     H1       HT       0.417000       1.00800           0
     38327 TIP3     6537     TIP3     H2       HT       0.417000       1.00800           0
     38328 TIP3     6538     TIP3     OH2      OT      -0.834000       15.9994           0
     38329 TIP3     6538     TIP3     H1       HT       0.417000       1.00800           0
     38330 TIP3     6538     TIP3     H2       HT       0.417000       1.00800           0
     38331 IONS     1        POT      POT      POT       1.00000       39.0983           0
     38332 IONS     2        POT      POT      POT       1.00000       39.0983           0
     38333 IONS     3        POT      POT      POT       1.00000       39.0983           0
     38334 IONS     4        POT      POT      POT       1.00000       39.0983           0
     38335 IONS     5        POT      POT      POT       1.00000       39.0983           0
     38336 IONS     6        POT      POT      POT       1.00000       39.0983           0
     38337 IONS     7        POT      POT      POT       1.00000       39.0983           0
     38338 IONS     8        POT      POT      POT       1.00000       39.0983           0
     38339 IONS     9        POT      POT      POT       1.00000       39.0983           0
     38340 IONS     10       POT      POT      POT       1.00000       39.0983           0
     38341 IONS     11       POT      POT      POT       1.00000       39.0983           0
     38342 IONS     12       POT      POT      POT       1.00000       39.0983           0
     38343 IONS     13       POT      POT      POT       1.00000       39.0983           0
     38344 IONS     14       POT      POT      POT       1.00000       39.0983           0
     38345 IONS     15       POT      POT      POT       1.00000       39.0983           0
     38346 IONS     16       POT      POT      POT       1.00000       39.0983           0
     38347 IONS     17       POT      POT      POT       1.00000       39.0983           0
     38348 IONS     18       POT      POT      POT       1.00000       39.0983           0
     38349 IONS     19       POT      POT      POT       1.00000       39.0983           0
     38350 IONS     20       POT      POT      POT       1.00000       39.0983           0
     38351 IONS     21       POT      POT      POT       1.00000       39.0983           0
     38352 IONS     22       POT      POT      POT       1.00000       39.0983           0
     38353 IONS     23       POT      POT      POT       1.00000       39.0983           0
     38354 IONS     24       POT      POT      POT       1.00000       39.0983           0
     38355 IONS     25       POT      POT      POT       1.00000       39.0983           0
     38356 IONS     26       POT      POT      POT       1.00000       39.0983           0
     38357 IONS     27       POT      POT      POT       1.00000       39.0983           0
     38358 IONS     28       POT      POT      POT       1.00000       39.0983           0
     38359 IONS     29       POT      POT      POT       1.00000       39.0983           0
     38360 IONS     30       POT      POT      POT       1.00000       39.0983           0
     38361 IONS     31       POT      POT      POT       1.00000       39.0983           0
     38362 IONS     32       POT      POT      POT       1.00000       39.0983           0
     38363 IONS     33       POT      POT      POT       1.00000       39.0983           0
     38364 IONS     34       POT      POT      POT       1.00000       39.0983           0
     38365 IONS     35       POT      POT      POT       1.00000       39.0983           0
     38366 IONS     36       POT      POT      POT       1.00000       39.0983           0
     38367 IONS     37       POT      POT      POT       1.00000       39.0983           0
     38368 IONS     38       POT      POT      POT       1.00000       39.0983           0
     38369 IONS     39       POT      POT      POT       1.00000       39.0983           0
     38370 IONS     40       POT      POT      POT       1.00000       39.0983           0
     38371 IONS     41       POT      POT      POT       1.00000       39.0983           0
     38372 IONS     42       POT      POT      POT       1.00000       39.0983           0
     38373 IONS     43       POT      POT      POT       1.00000       39.0983           0
     38374 IONS     44       POT      POT      POT       1.00000       39.0983           0
     38375 IONS     45       POT      POT      POT       1.00000       39.0983           0
     38376 IONS     46       POT      POT      POT       1.00000       39.0983           0
     38377 IONS     47       POT      POT      POT       1.00000       39.0983           0
     38378 IONS     48       POT      POT      POT       1.00000       39.0983           0
     38379 IONS     49       POT      POT      POT       1.00000       39.0983           0
     38380 IONS     50       POT      POT      POT       1.00000       39.0983           0
     38381 IONS     51       POT      POT      POT       1.00000       39.0983           0
     38382 IONS     52       POT      POT      POT       1.00000       39.0983           0
     38383 IONS     53       POT      POT      POT       1.00000       39.0983           0
     38384 IONS     54       POT      POT      POT       1.00000       39.0983           0
     38385 IONS     55       POT      POT      POT       1.00000       39.0983           0
     38386 IONS     56       POT      POT      POT       1.00000       39.0983           0
     38387 IONS     57       POT      POT      POT       1.00000       39.0983           0
     38388 IONS     58       POT      POT      POT       1.00000       39.0983           0
     38389 IONS     59       POT      POT      POT       1.00000       39.0983           0
     38390 IONS     60       POT      POT      POT       1.00000       39.0983           0
     38391 IONS     61       POT      POT      POT       1.00000       39.0983           0
     38392 IONS     62       POT      POT      POT       1.00000       39.0983           0
     38393 IONS     63       POT      POT      POT       1.00000       39.0983           0
     38394 IONS     64       POT      POT      POT       1.00000       39.0983           0
     38395 IONS     65       POT      POT      POT       1.00000       39.0983           0
     38396 IONS     66       POT      POT      POT       1.00000       39.0983           0
     38397 IONS     67       POT      POT      POT       1.00000       39.0983           0
     38398 IONS     68       POT      POT      POT       1.00000       39.0983           0
     38399 IONS     69       POT      POT      POT       1.00000       39.0983           0
     38400 IONS     70       POT      POT      POT       1.00000       39.0983           0
     38401 IONS     71       POT      POT      POT       1.00000       39.0983           0
     38402 IONS     72       POT      POT      POT       1.00000       39.0983           0
     38403 IONS     73       POT      POT      POT       1.00000       39.0983           0
     38404 IONS     74       POT      POT      POT       1.00000       39.0983           0
     38405 IONS     75       POT      POT      POT       1.00000       39.0983           0
     38406 IONS     76       POT      POT      POT       1.00000       39.0983           0
     38407 IONS     77       POT      POT      POT       1.00000       39.0983           0
     38408 IONS     78       POT      POT      POT       1.00000       39.0983           0
     38409 IONS     79       POT      POT      POT       1.00000       39.0983           0
     38410 IONS     80       POT      POT      POT       1.00000       39.0983           0
     38411 IONS     81       POT      POT      POT       1.00000       39.0983           0
     38412 IONS     82       POT      POT      POT       1.00000       39.0983           0
     38413 IONS     83       POT      POT      POT       1.00000       39.0983           0
     38414 IONS     84       POT      POT      POT       1.00000       39.0983           0
     38415 IONS     85       POT      POT      POT       1.00000       39.0983           0
     38416 IONS     86       POT      POT      POT       1.00000       39.0983           0
     38417 IONS     87       POT      POT      POT       1.00000       39.0983           0
     38418 IONS     88       POT      POT      POT       1.00000       39.0983           0
     38419 IONS     89       POT      POT      POT       1.00000       39.0983           0
     38420 IONS     90       POT      POT      POT       1.00000       39.0983           0
     38421 IONS     91       POT      POT      POT       1.00000       39.0983           0
     38422 IONS     92       POT      POT      POT       1.00000       39.0983           0
     38423 IONS     93       POT      POT      POT       1.00000       39.0983           0
     38424 IONS     94       POT      POT      POT       1.00000       39.0983           0
     38425 IONS     95       POT      POT      POT       1.00000       39.0983           0
     38426 IONS     96       POT      POT      POT       1.00000       39.0983           0
     38427 IONS     97       POT      POT      POT       1.00000       39.0983           0
     38428 IONS     98       POT      POT      POT       1.00000       39.0983           0
     38429 IONS     99       POT      POT      POT       1.00000       39.0983           0
     38430 IONS     100      POT      POT      POT       1.00000       39.0983           0
     38431 IONS     101      POT      POT      POT       1.00000       39.0983           0
     38432 IONS     102      POT      POT      POT       1.00000       39.0983           0
     38433 IONS     103      POT      POT      POT       1.00000       39.0983           0
     38434 IONS     104      POT      POT      POT       1.00000       39.0983           0
     38435 IONS     105      POT      POT      POT       1.00000       39.0983           0
     38436 IONS     106      POT      POT      POT       1.00000       39.0983           0
     38437 IONS     107      POT      POT      POT       1.00000       39.0983           0
     38438 IONS     108      POT      POT      POT       1.00000       39.0983           0
     38439 IONS     109      POT      POT      POT       1.00000       39.0983           0
     38440 IONS     110      POT      POT      POT       1.00000       39.0983           0
     38441 IONS     111      POT      POT      POT       1.00000       39.0983           0
     38442 IONS     112      POT      POT      POT       1.00000       39.0983           0
     38443 IONS     113      POT      POT      POT       1.00000       39.0983           0
     38444 IONS     114      POT      POT      POT       1.00000       39.0983           0
     38445 IONS     115      POT      POT      POT       1.00000       39.0983           0
     38446 IONS     116      POT      POT      POT       1.00000       39.0983           0
     38447 IONS     117      POT      POT      POT       1.00000       39.0983           0
     38448 IONS     118      POT      POT      POT       1.00000       39.0983           0
     38449 IONS     119      POT      POT      POT       1.00000       39.0983           0
     38450 IONS     120      POT      POT      POT       1.00000       39.0983           0
     38451 IONS     121      POT      POT      POT       1.00000       39.0983           0
     38452 IONS     122      POT      POT      POT       1.00000       39.0983           0
     38453 IONS     123      POT      POT      POT       1.00000       39.0983           0
     38454 IONS     124      POT      POT      POT       1.00000       39.0983           0
     38455 IONS     125      POT      POT      POT       1.00000       39.0983           0
     38456 IONS     126      POT      POT      POT       1.00000       39.0983           0
     38457 IONS     127      POT      POT      POT       1.00000       39.0983           0
     38458 IONS     128      POT      POT      POT       1.00000       39.0983           0
     38459 IONS     129      POT      POT      POT       1.00000       39.0983           0
     38460 IONS     130      POT      POT      POT       1.00000       39.0983           0
     38461 IONS     131      POT      POT      POT       1.00000       39.0983           0
     38462 IONS     132      POT      POT      POT       1.00000       39.0983           0
     38463 IONS     133      POT      POT      POT       1.00000       39.0983           0
     38464 IONS     134      POT      POT      POT       1.00000       39.0983           0
     38465 IONS     135      POT      POT      POT       1.00000       39.0983           0
     38466 IONS     136      POT      POT      POT       1.00000       39.0983           0
     38467 IONS     137      POT      POT      POT       1.00000       39.0983           0
     38468 IONS     138      POT      POT      POT       1.00000       39.0983           0
     38469 IONS     139      POT      POT      POT       1.00000       39.0983           0
     38470 IONS     140      POT      POT      POT       1.00000       39.0983           0
     38471 IONS     141      POT      POT      POT       1.00000       39.0983           0
     38472 IONS     142      POT      POT      POT       1.00000       39.0983           0
     38473 IONS     143      POT      POT      POT       1.00000       39.0983           0
     38474 IONS     144      POT      POT      POT       1.00000       39.0983           0
     38475 IONS     145      POT      POT      POT       1.00000       39.0983           0
     38476 IONS     146      POT      POT      POT       1.00000       39.0983           0
     38477 IONS     147      POT      POT      POT       1.00000       39.0983           0
     38478 IONS     148      POT      POT      POT       1.00000       39.0983           0
     38479 IONS     149      POT      POT      POT       1.00000       39.0983           0
     38480 IONS     150      POT      POT      POT       1.00000       39.0983           0
     38481 IONS     151      POT      POT      POT       1.00000       39.0983           0
     38482 IONS     152      POT      POT      POT       1.00000       39.0983           0
     38483 IONS     153      POT      POT      POT       1.00000       39.0983           0
     38484 IONS     154      POT      POT      POT       1.00000       39.0983           0
     38485 IONS     155      POT      POT      POT       1.00000       39.0983           0
     38486 IONS     156      POT      POT      POT       1.00000       39.0983           0
     38487 IONS     157      POT      POT      POT       1.00000       39.0983           0
     38488 IONS     158      POT      POT      POT       1.00000       39.0983           0
     38489 IONS     159      POT      POT      POT       1.00000       39.0983           0
     38490 IONS     160      POT      POT      POT       1.00000       39.0983           0
     38491 IONS     161      POT      POT      POT       1.00000       39.0983           0
     38492 IONS     162      POT      POT      POT       1.00000       39.0983           0
     38493 IONS     163      POT      POT      POT       1.00000       39.0983           0
     38494 IONS     164      POT      POT      POT       1.00000       39.0983           0
     38495 IONS     165      POT      POT      POT       1.00000       39.0983           0
     38496 IONS     166      POT      POT      POT       1.00000       39.0983           0
     38497 IONS     167      POT      POT      POT       1.00000       39.0983           0
     38498 IONS     168      POT      POT      POT       1.00000       39.0983           0
     38499 IONS     169      POT      POT      POT       1.00000       39.0983           0
     38500 IONS     170      POT      POT      POT       1.00000       39.0983           0
     38501 IONS     171      POT      POT      POT       1.00000       39.0983           0
     38502 IONS     172      POT      POT      POT       1.00000       39.0983           0
     38503 IONS     173      POT      POT      POT       1.00000       39.0983           0
     38504 IONS     174      POT      POT      POT       1.00000       39.0983           0
     38505 IONS     175      POT      POT      POT       1.00000       39.0983           0
     38506 IONS     176      POT      POT      POT       1.00000       39.0983           0
     38507 IONS     177      POT      POT      POT       1.00000       39.0983           0
     38508 IONS     178      POT      POT      POT       1.00000       39.0983           0
     38509 IONS     179      POT      POT      POT       1.00000       39.0983           0
     38510 IONS     180      POT      POT      POT       1.00000       39.0983           0
     38511 IONS     181      POT      POT      POT       1.00000       39.0983           0
     38512 IONS     182      POT      POT      POT       1.00000       39.0983           0
     38513 IONS     183      POT      POT      POT       1.00000       39.0983           0
     38514 IONS     184      POT      POT      POT       1.00000       39.0983           0
     38515 IONS     185      POT      POT      POT       1.00000       39.0983           0
     38516 IONS     186      POT      POT      POT       1.00000       39.0983           0
     38517 IONS     187      POT      POT      POT       1.00000       39.0983           0
     38518 IONS     188      POT      POT      POT       1.00000       39.0983           0
     38519 IONS     189      POT      POT      POT       1.00000       39.0983           0
     38520 IONS     190      POT      POT      POT       1.00000       39.0983           0
     38521 IONS     191      POT      POT      POT       1.00000       39.0983           0
     38522 IONS     192      POT      POT      POT       1.00000       39.0983           0
     38523 IONS     193      POT      POT      POT       1.00000       39.0983           0
     38524 IONS     194      POT      POT      POT       1.00000       39.0983           0
     38525 IONS     195      POT      POT      POT       1.00000       39.0983           0
     38526 IONS     196      POT      POT      POT       1.00000       39.0983           0
     38527 IONS     197      POT      POT      POT       1.00000       39.0983           0
     38528 IONS     198      POT      POT      POT       1.00000       39.0983           0
     38529 IONS     199      POT      POT      POT       1.00000       39.0983           0
     38530 IONS     200      POT      POT      POT       1.00000       39.0983           0
     38531 IONS     201      POT      POT      POT       1.00000       39.0983           0
     38532 IONS     202      POT      POT      POT       1.00000       39.0983           0
     38533 IONS     203      POT      POT      POT       1.00000       39.0983           0
     38534 IONS     204      POT      POT      POT       1.00000       39.0983           0
     38535 IONS     205      POT      POT      POT       1.00000       39.0983           0
     38536 IONS     206      POT      POT      POT       1.00000       39.0983           0
     38537 IONS     207      POT      POT      POT       1.00000       39.0983           0
     38538 IONS     208      POT      POT      POT       1.00000       39.0983           0
     38539 IONS     209      POT      POT      POT       1.00000       39.0983           0
     38540 IONS     210      POT      POT      POT       1.00000       39.0983           0
     38541 IONS     211      POT      POT      POT       1.00000       39.0983           0
     38542 IONS     212      POT      POT      POT       1.00000       39.0983           0
     38543 IONS     213      POT      POT      POT       1.00000       39.0983           0
     38544 IONS     214      POT      POT      POT       1.00000       39.0983           0
     38545 IONS     215      POT      POT      POT       1.00000       39.0983           0
     38546 IONS     216      POT      POT      POT       1.00000       39.0983           0
     38547 IONS     217      POT      POT      POT       1.00000       39.0983           0
     38548 IONS     218      POT      POT      POT       1.00000       39.0983           0
     38549 IONS     219      POT      POT      POT       1.00000       39.0983           0
     38550 IONS     220      POT      POT      POT       1.00000       39.0983           0
     38551 IONS     221      POT      POT      POT       1.00000       39.0983           0
     38552 IONS     222      POT      POT      POT       1.00000       39.0983           0
     38553 IONS     223      POT      POT      POT       1.00000       39.0983           0
     38554 IONS     224      POT      POT      POT       1.00000       39.0983           0
     38555 IONS     225      POT      POT      POT       1.00000       39.0983           0
     38556 IONS     226      CLA      CLA      CLA      -1.00000       35.4500           0
     38557 IONS     227      CLA      CLA      CLA      -1.00000       35.4500           0
     38558 IONS     228      CLA      CLA      CLA      -1.00000       35.4500           0
     38559 IONS     229      CLA      CLA      CLA      -1.00000       35.4500           0
     38560 IONS     230      CLA      CLA      CLA      -1.00000       35.4500           0
     38561 IONS     231      CLA      CLA      CLA      -1.00000       35.4500           0
     38562 IONS     232      CLA      CLA      CLA      -1.00000       35.4500           0
     38563 IONS     233      CLA      CLA      CLA      -1.00000       35.4500           0
     38564 IONS     234      CLA      CLA      CLA      -1.00000       35.4500           0
     38565 IONS     235      CLA      CLA      CLA      -1.00000       35.4500           0
     38566 IONS     236      CLA      CLA      CLA      -1.00000       35.4500           0
     38567 IONS     237      CLA      CLA      CLA      -1.00000       35.4500           0
     38568 IONS     238      CLA      CLA      CLA      -1.00000       35.4500           0
     38569 IONS     239      CLA      CLA      CLA      -1.00000       35.4500           0
     38570 IONS     240      CLA      CLA      CLA      -1.00000       35.4500           0
     38571 IONS     241      CLA      CLA      CLA      -1.00000       35.4500           0
     38572 IONS     242      CLA      CLA      CLA      -1.00000       35.4500           0
     38573 IONS     243      CLA      CLA      CLA      -1.00000       35.4500           0
     38574 IONS     244      CLA      CLA      CLA      -1.00000       35.4500           0
     38575 IONS     245      CLA      CLA      CLA      -1.00000       35.4500           0
     38576 IONS     246      CLA      CLA      CLA      -1.00000       35.4500           0
     38577 IONS     247      CLA      CLA      CLA      -1.00000       35.4500           0
     38578 IONS     248      CLA      CLA      CLA      -1.00000       35.4500           0
     38579 IONS     249      CLA      CLA      CLA      -1.00000       35.4500           0
     38580 IONS     250      CLA      CLA      CLA      -1.00000       35.4500           0
     38581 IONS     251      CLA      CLA      CLA      -1.00000       35.4500           0
     38582 IONS     252      CLA      CLA      CLA      -1.00000       35.4500           0
     38583 IONS     253      CLA      CLA      CLA      -1.00000       35.4500           0
     38584 IONS     254      CLA      CLA      CLA      -1.00000       35.4500           0
     38585 IONS     255      CLA      CLA      CLA      -1.00000       35.4500           0
     38586 IONS     256      CLA      CLA      CLA      -1.00000       35.4500           0
     38587 IONS     257      CLA      CLA      CLA      -1.00000       35.4500           0
     38588 IONS     258      CLA      CLA      CLA      -1.00000       35.4500           0
     38589 IONS     259      CLA      CLA      CLA      -1.00000       35.4500           0
     38590 IONS     260      CLA      CLA      CLA      -1.00000       35.4500           0
     38591 IONS     261      CLA      CLA      CLA      -1.00000       35.4500           0
     38592 IONS     262      CLA      CLA      CLA      -1.00000       35.4500           0
     38593 IONS     263      CLA      CLA      CLA      -1.00000       35.4500           0
     38594 IONS     264      CLA      CLA      CLA      -1.00000       35.4500           0
     38595 IONS     265      CLA      CLA      CLA      -1.00000       35.4500           0
     38596 IONS     266      CLA      CLA      CLA      -1.00000       35.4500           0
     38597 IONS     267      CLA      CLA      CLA      -1.00000       35.4500           0
     38598 IONS     268      CLA      CLA      CLA      -1.00000       35.4500           0
     38599 IONS     269      CLA      CLA      CLA      -1.00000       35.4500           0
     38600 IONS     270      CLA      CLA      CLA      -1.00000       35.4500           0
     38601 IONS     271      CLA      CLA      CLA      -1.00000       35.4500           0
     38602 IONS     272      CLA      CLA      CLA      -1.00000       35.4500           0
     38603 IONS     273      CLA      CLA      CLA      -1.00000       35.4500           0
     38604 IONS     274      CLA      CLA      CLA      -1.00000       35.4500           0
     38605 IONS     275      CLA      CLA      CLA      -1.00000       35.4500           0
     38606 IONS     276      CLA      CLA      CLA      -1.00000       35.4500           0
     38607 IONS     277      CLA      CLA      CLA      -1.00000       35.4500           0
     38608 IONS     278      CLA      CLA      CLA      -1.00000       35.4500           0
     38609 IONS     279      CLA      CLA      CLA      -1.00000       35.4500           0
     38610 IONS     280      CLA      CLA      CLA      -1.00000       35.4500           0
     38611 IONS     281      CLA      CLA      CLA      -1.00000       35.4500           0
     38612 IONS     282      CLA      CLA      CLA      -1.00000       35.4500           0
     38613 IONS     283      CLA      CLA      CLA      -1.00000       35.4500           0
     38614 IONS     284      CLA      CLA      CLA      -1.00000       35.4500           0
     38615 IONS     285      CLA      CLA      CLA      -1.00000       35.4500           0
     38616 IONS     286      CLA      CLA      CLA      -1.00000       35.4500           0
     38617 IONS     287      CLA      CLA      CLA      -1.00000       35.4500           0
     38618 IONS     288      CLA      CLA      CLA      -1.00000       35.4500           0
     38619 IONS     289      CLA      CLA      CLA      -1.00000       35.4500           0
     38620 IONS     290      CLA      CLA      CLA      -1.00000       35.4500           0
     38621 IONS     291      CLA      CLA      CLA      -1.00000       35.4500           0
     38622 IONS     292      CLA      CLA      CLA      -1.00000       35.4500           0
     38623 IONS     293      CLA      CLA      CLA      -1.00000       35.4500           0
     38624 IONS     294      CLA      CLA      CLA      -1.00000       35.4500           0
     38625 IONS     295      CLA      CLA      CLA      -1.00000       35.4500           0
     38626 IONS     296      CLA      CLA      CLA      -1.00000       35.4500           0
     38627 IONS     297      CLA      CLA      CLA      -1.00000       35.4500           0
     38628 IONS     298      CLA      CLA      CLA      -1.00000       35.4500           0
     38629 IONS     299      CLA      CLA      CLA      -1.00000       35.4500           0
     38630 IONS     300      CLA      CLA      CLA      -1.00000       35.4500           0
     38631 IONS     301      CLA      CLA      CLA      -1.00000       35.4500           0
     38632 IONS     302      CLA      CLA      CLA      -1.00000       35.4500           0
     38633 IONS     303      CLA      CLA      CLA      -1.00000       35.4500           0
     38634 IONS     304      CLA      CLA      CLA      -1.00000       35.4500           0
     38635 IONS     305      CLA      CLA      CLA      -1.00000       35.4500           0
     38636 IONS     306      CLA      CLA      CLA      -1.00000       35.4500           0
     38637 IONS     307      CLA      CLA      CLA      -1.00000       35.4500           0
     38638 IONS     308      CLA      CLA      CLA      -1.00000       35.4500           0
     38639 IONS     309      CLA      CLA      CLA      -1.00000       35.4500           0
     38640 IONS     310      CLA      CLA      CLA      -1.00000       35.4500           0
     38641 IONS     311      CLA      CLA      CLA      -1.00000       35.4500           0
     38642 IONS     312      CLA      CLA      CLA      -1.00000       35.4500           0
     38643 IONS     313      CLA      CLA      CLA      -1.00000       35.4500           0
     38644 IONS     314      CLA      CLA      CLA      -1.00000       35.4500           0
     38645 IONS     315      CLA      CLA      CLA      -1.00000       35.4500           0
     38646 IONS     316      CLA      CLA      CLA      -1.00000       35.4500           0
     38647 IONS     317      CLA      CLA      CLA      -1.00000       35.4500           0
     38648 IONS     318      CLA      CLA      CLA      -1.00000       35.4500           0
     38649 IONS     319      CLA      CLA      CLA      -1.00000       35.4500           0
     38650 IONS     320      CLA      CLA      CLA      -1.00000       35.4500           0
     38651 IONS     321      CLA      CLA      CLA      -1.00000       35.4500           0
     38652 IONS     322      CLA      CLA      CLA      -1.00000       35.4500           0
     38653 IONS     323      CLA      CLA      CLA      -1.00000       35.4500           0
     38654 IONS     324      CLA      CLA      CLA      -1.00000       35.4500           0
     38655 IONS     325      CLA      CLA      CLA      -1.00000       35.4500           0
     38656 IONS     326      CLA      CLA      CLA      -1.00000       35.4500           0
     38657 IONS     327      CLA      CLA      CLA      -1.00000       35.4500           0
     38658 IONS     328      CLA      CLA      CLA      -1.00000       35.4500           0
     38659 IONS     329      CLA      CLA      CLA      -1.00000       35.4500           0
     38660 IONS     330      CLA      CLA      CLA      -1.00000       35.4500           0
     38661 IONS     331      CLA      CLA      CLA      -1.00000       35.4500           0
     38662 IONS     332      CLA      CLA      CLA      -1.00000       35.4500           0
     38663 IONS     333      CLA      CLA      CLA      -1.00000       35.4500           0
     38664 IONS     334      CLA      CLA      CLA      -1.00000       35.4500           0
     38665 IONS     335      CLA      CLA      CLA      -1.00000       35.4500           0
     38666 IONS     336      CLA      CLA      CLA      -1.00000       35.4500           0
     38667 IONS     337      CLA      CLA      CLA      -1.00000       35.4500           0
     38668 IONS     338      CLA      CLA      CLA      -1.00000       35.4500           0
     38669 IONS     339      CLA      CLA      CLA      -1.00000       35.4500           0
     38670 IONS     340      CLA      CLA      CLA      -1.00000       35.4500           0
     38671 IONS     341      CLA      CLA      CLA      -1.00000       35.4500           0
     38672 IONS     342      CLA      CLA      CLA      -1.00000       35.4500           0
     38673 IONS     343      CLA      CLA      CLA      -1.00000       35.4500           0
     38674 IONS     344      CLA      CLA      CLA      -1.00000       35.4500           0
     38675 IONS     345      CLA      CLA      CLA      -1.00000       35.4500           0
     38676 IONS     346      CLA      CLA      CLA      -1.00000       35.4500           0
     38677 IONS     347      CLA      CLA      CLA      -1.00000       35.4500           0
     38678 IONS     348      CLA      CLA      CLA      -1.00000       35.4500           0
     38679 IONS     349      CLA      CLA      CLA      -1.00000       35.4500           0
     38680 IONS     350      CLA      CLA      CLA      -1.00000       35.4500           0
     38681 IONS     351      CLA      CLA      CLA      -1.00000       35.4500           0
     38682 IONS     352      CLA      CLA      CLA      -1.00000       35.4500           0
     38683 IONS     353      CLA      CLA      CLA      -1.00000       35.4500           0
     38684 IONS     354      CLA      CLA      CLA      -1.00000       35.4500           0
     38685 IONS     355      CLA      CLA      CLA      -1.00000       35.4500           0
     38686 IONS     356      CLA      CLA      CLA      -1.00000       35.4500           0
     38687 IONS     357      CLA      CLA      CLA      -1.00000       35.4500           0
     38688 IONS     358      CLA      CLA      CLA      -1.00000       35.4500           0
     38689 IONS     359      CLA      CLA      CLA      -1.00000       35.4500           0
     38690 IONS     360      CLA      CLA      CLA      -1.00000       35.4500           0
     38691 IONS     361      CLA      CLA      CLA      -1.00000       35.4500           0
     38692 IONS     362      CLA      CLA      CLA      -1.00000       35.4500           0
     38693 IONS     363      CLA      CLA      CLA      -1.00000       35.4500           0
     38694 IONS     364      CLA      CLA      CLA      -1.00000       35.4500           0
     38695 IONS     365      CLA      CLA      CLA      -1.00000       35.4500           0
     38696 IONS     366      CLA      CLA      CLA      -1.00000       35.4500           0
     38697 IONS     367      CLA      CLA      CLA      -1.00000       35.4500           0
     38698 IONS     368      CLA      CLA      CLA      -1.00000       35.4500           0
     38699 IONS     369      CLA      CLA      CLA      -1.00000       35.4500           0
     38700 IONS     370      CLA      CLA      CLA      -1.00000       35.4500           0
     38701 IONS     371      CLA      CLA      CLA      -1.00000       35.4500           0
     38702 IONS     372      CLA      CLA      CLA      -1.00000       35.4500           0
     38703 IONS     373      CLA      CLA      CLA      -1.00000       35.4500           0
     38704 IONS     374      CLA      CLA      CLA      -1.00000       35.4500           0
     38705 IONS     375      CLA      CLA      CLA      -1.00000       35.4500           0
     38706 IONS     376      CLA      CLA      CLA      -1.00000       35.4500           0
     38707 IONS     377      CLA      CLA      CLA      -1.00000       35.4500           0
     38708 IONS     378      CLA      CLA      CLA      -1.00000       35.4500           0
     38709 IONS     379      CLA      CLA      CLA      -1.00000       35.4500           0
     38710 IONS     380      CLA      CLA      CLA      -1.00000       35.4500           0
     38711 IONS     381      CLA      CLA      CLA      -1.00000       35.4500           0
     38712 IONS     382      CLA      CLA      CLA      -1.00000       35.4500           0
     38713 IONS     383      CLA      CLA      CLA      -1.00000       35.4500           0
     38714 IONS     384      CLA      CLA      CLA      -1.00000       35.4500           0
     38715 IONS     385      CLA      CLA      CLA      -1.00000       35.4500           0
     38716 IONS     386      CLA      CLA      CLA      -1.00000       35.4500           0
     38717 IONS     387      CLA      CLA      CLA      -1.00000       35.4500           0
     38718 IONS     388      CLA      CLA      CLA      -1.00000       35.4500           0
     38719 IONS     389      CLA      CLA      CLA      -1.00000       35.4500           0
     38720 IONS     390      CLA      CLA      CLA      -1.00000       35.4500           0
     38721 IONS     391      CLA      CLA      CLA      -1.00000       35.4500           0
     38722 IONS     392      CLA      CLA      CLA      -1.00000       35.4500           0
     38723 IONS     393      CLA      CLA      CLA      -1.00000       35.4500           0
     38724 IONS     394      CLA      CLA      CLA      -1.00000       35.4500           0
     38725 IONS     395      CLA      CLA      CLA      -1.00000       35.4500           0
     38726 IONS     396      CLA      CLA      CLA      -1.00000       35.4500           0
     38727 IONS     397      CLA      CLA      CLA      -1.00000       35.4500           0
     38728 IONS     398      CLA      CLA      CLA      -1.00000       35.4500           0
     38729 IONS     399      CLA      CLA      CLA      -1.00000       35.4500           0
     38730 IONS     400      CLA      CLA      CLA      -1.00000       35.4500           0
     38731 IONS     401      CLA      CLA      CLA      -1.00000       35.4500           0
     38732 IONS     402      CLA      CLA      CLA      -1.00000       35.4500           0
     38733 IONS     403      CLA      CLA      CLA      -1.00000       35.4500           0
     38734 IONS     404      CLA      CLA      CLA      -1.00000       35.4500           0
     38735 IONS     405      CLA      CLA      CLA      -1.00000       35.4500           0
     38736 IONS     406      CLA      CLA      CLA      -1.00000       35.4500           0
     38737 IONS     407      CLA      CLA      CLA      -1.00000       35.4500           0
     38738 IONS     408      CLA      CLA      CLA      -1.00000       35.4500           0
     38739 IONS     409      CLA      CLA      CLA      -1.00000       35.4500           0
     38740 IONS     410      CLA      CLA      CLA      -1.00000       35.4500           0
     38741 IONS     411      CLA      CLA      CLA      -1.00000       35.4500           0
     38742 IONS     412      CLA      CLA      CLA      -1.00000       35.4500           0
     38743 IONS     413      CLA      CLA      CLA      -1.00000       35.4500           0
     38744 IONS     414      CLA      CLA      CLA      -1.00000       35.4500           0
     38745 IONS     415      CLA      CLA      CLA      -1.00000       35.4500           0
     38746 IONS     416      CLA      CLA      CLA      -1.00000       35.4500           0
     38747 IONS     417      CLA      CLA      CLA      -1.00000       35.4500           0
     38748 IONS     418      CLA      CLA      CLA      -1.00000       35.4500           0
     38749 IONS     419      CLA      CLA      CLA      -1.00000       35.4500           0
     38750 IONS     420      CLA      CLA      CLA      -1.00000       35.4500           0
     38751 IONS     421      CLA      CLA      CLA      -1.00000       35.4500           0
     38752 IONS     422      CLA      CLA      CLA      -1.00000       35.4500           0
     38753 IONS     423      CLA      CLA      CLA      -1.00000       35.4500           0
     38754 IONS     424      CLA      CLA      CLA      -1.00000       35.4500           0
     38755 IONS     425      CLA      CLA      CLA      -1.00000       35.4500           0
     38756 IONS     426      CLA      CLA      CLA      -1.00000       35.4500           0
     38757 IONS     427      CLA      CLA      CLA      -1.00000       35.4500           0
     38758 IONS     428      CLA      CLA      CLA      -1.00000       35.4500           0
     38759 IONS     429      CLA      CLA      CLA      -1.00000       35.4500           0
     38760 IONS     430      CLA      CLA      CLA      -1.00000       35.4500           0
     38761 IONS     431      CLA      CLA      CLA      -1.00000       35.4500           0
     38762 IONS     432      CLA      CLA      CLA      -1.00000       35.4500           0
     38763 IONS     433      CLA      CLA      CLA      -1.00000       35.4500           0
     38764 IONS     434      CLA      CLA      CLA      -1.00000       35.4500           0
     38765 IONS     435      CLA      CLA      CLA      -1.00000       35.4500           0
     38766 IONS     436      CLA      CLA      CLA      -1.00000       35.4500           0
     38767 IONS     437      CLA      CLA      CLA      -1.00000       35.4500           0
     38768 IONS     438      CLA      CLA      CLA      -1.00000       35.4500           0
     38769 IONS     439      CLA      CLA      CLA      -1.00000       35.4500           0
     38770 IONS     440      CLA      CLA      CLA      -1.00000       35.4500           0
     38771 IONS     441      CLA      CLA      CLA      -1.00000       35.4500           0
     38772 IONS     442      CLA      CLA      CLA      -1.00000       35.4500           0
     38773 IONS     443      CLA      CLA      CLA      -1.00000       35.4500           0
     38774 IONS     444      CLA      CLA      CLA      -1.00000       35.4500           0
     38775 IONS     445      CLA      CLA      CLA      -1.00000       35.4500           0
     38776 IONS     446      CLA      CLA      CLA      -1.00000       35.4500           0
     38777 IONS     447      CLA      CLA      CLA      -1.00000       35.4500           0
     38778 IONS     448      CLA      CLA      CLA      -1.00000       35.4500           0
     38779 IONS     449      CLA      CLA      CLA      -1.00000       35.4500           0
     38780 IONS     450      CLA      CLA      CLA      -1.00000       35.4500           0

     38212 !NBOND: bonds
         2         1         3         1         4         1         1         5
         8         5         8        10         5         6         5         7
         9         8        14        12        10        11        10        12
        18        12        18        20        12        13        14        15
        14        16        14        17        19        18        24        22
        27        24        29        27        33        27        20        21
        20        22        37        22        37        39        22        23
        24        25        24        26        27        28        29        30
        29        31        29        32        33        34        33        35
        33        36        38        37        43        41        39        40
        39        41        47        41        47        49        41        42
        43        44        43        45        43        46        48        47
        53        51        55        53        59        53        49        50
        49        51        63        51        63        65        51        52
        53        54        55        56        55        57        55        58
        59        60        59        61        59        62        64        63
        69        67        71        69        75        69        65        66
        65        67        79        67        79        81        67        68
        69        70        71        72        71        73        71        74
        75        76        75        77        75        78        80        79
        85        83        87        85        91        85        81        82
        81        83        95        83        95        97        83        84
        85        86        87        88        87        89        87        90
        91        92        91        93        91        94        96        95
       101        99       104       101       110       104       107       105
       115       109        97        98        97        99       119        99
       119       121       113       117       110       111       107       109
        99       100       101       102       101       103       105       106
       107       108       111       112       115       116       113       114
       117       118       120       119       105       104       109       110
       113       111       117       115       125       123       128       125
       130       128       134       128       121       122       121       123
       138       123       138       140       123       124       125       126
       125       127       128       129       130       131       130       132
       130       133       134       135       134       136       134       137
       139       138       144       142       147       144       153       147
       150       148       158       152       140       141       140       142
       162       142       162       164       156       160       153       154
       150       152       142       143       144       145       144       146
       148       149       150       151       154       155       158       159
       156       157       160       161       163       162       148       147
       152       153       156       154       160       158       168       166
       171       168       173       171       177       171       164       165
       164       166       181       166       181       183       166       167
       168       169       168       170       171       172       173       174
       173       175       173       176       177       178       177       179
       177       180       182       181       187       185       190       187
       196       190       193       191       201       195       183       184
       183       185       205       185       205       207       199       203
       196       197       193       195       185       186       187       188
       187       189       191       192       193       194       197       198
       201       202       199       200       203       204       206       205
       191       190       195       196       199       197       203       201
       211       209       214       211       216       214       220       214
       207       208       207       209       224       209       224       226
       209       210       211       212       211       213       214       215
       216       217       216       218       216       219       220       221
       220       222       220       223       225       224       230       228
       233       230       239       233       236       234       244       238
       226       227       226       228       248       228       242       246
       239       240       236       238       228       229       230       231
       230       232       234       235       236       237       240       241
       244       245       242       243       246       247       234       233
       238       239       242       240       246       244       248       250
       248       249       252       251       253       251       254       251
       251       255       258       255       258       260       255       256
       255       257       259       258       264       262       260       261
       260       262       268       262       268       270       262       263
       264       265       264       266       264       267       269       268
       274       272       277       274       279       277       283       277
       270       271       270       272       287       272       287       289
       272       273       274       275       274       276       277       278
       279       280       279       281       279       282       283       284
       283       285       283       286       288       287       293       291
       289       290       289       291       297       291       297       299
       291       292       293       294       293       295       293       296
       298       297       303       301       305       303       309       303
       299       300       299       301       313       301       313       315
       301       302       303       304       305       306       305       307
       305       308       309       310       309       311       309       312
       314       313       319       317       321       319       325       319
       315       316       315       317       329       317       329       331
       317       318       319       320       321       322       321       323
       321       324       325       326       325       327       325       328
       330       329       335       333       337       335       341       335
       331       332       331       333       345       333       345       347
       333       334       335       336       337       338       337       339
       337       340       341       342       341       343       341       344
       346       345       351       349       354       351       360       354
       357       355       365       359       347       348       347       349
       369       349       369       371       363       367       360       361
       357       359       349       350       351       352       351       353
       355       356       357       358       361       362       365       366
       363       364       367       368       370       369       355       354
       359       360       363       361       367       365       375       373
       378       375       380       378       384       378       371       372
       371       373       388       373       388       390       373       374
       375       376       375       377       378       379       380       381
       380       382       380       383       384       385       384       386
       384       387       389       388       394       392       397       394
       403       397       400       398       408       402       390       391
       390       392       412       392       412       414       406       410
       403       404       400       402       392       393       394       395
       394       396       398       399       400       401       404       405
       408       409       406       407       410       411       413       412
       398       397       402       403       406       404       410       408
       418       416       421       418       423       421       427       421
       414       415       414       416       431       416       431       433
       416       417       418       419       418       420       421       422
       423       424       423       425       423       426       427       428
       427       429       427       430       432       431       437       435
       440       437       446       440       443       441       451       445
       433       434       433       435       455       435       455       457
       449       453       446       447       443       445       435       436
       437       438       437       439       441       442       443       444
       447       448       451       452       449       450       453       454
       456       455       441       440       445       446       449       447
       453       451       461       459       464       461       466       464
       470       464       457       458       457       459       474       459
       474       476       459       460       461       462       461       463
       464       465       466       467       466       468       466       469
       470       471       470       472       470       473       475       474
       480       478       483       480       489       483       486       484
       494       488       476       477       476       478       498       478
       492       496       489       490       486       488       478       479
       480       481       480       482       484       485       486       487
       490       491       494       495       492       493       496       497
       484       483       488       489       492       490       496       494
       498       500       498       499       501       505       501       509
       501       513       505       506       505       507       505       508
       509       510       509       511       509       512       513       514
       513       515       513       516       501       502       502       503
       502       504       502       517       517       518       517       519
       517       523       524       525       523       520       520       524
       520       521       520       522       525       526       525       527
       525       528       528       529       528       536       528       530
       536       537       536       538       536       539       530       531
       531       533       531       532       533       534       533       535
       533       545       545       546       545       547       545       548
       548       549       548       550       548       551       551       552
       551       553       551       554       554       555       554       556
       554       557       557       558       557       559       557       560
       560       561       560       562       560       563       563       564
       563       565       565       566       565       567       567       568
       567       569       567       570       570       571       570       572
       570       573       573       574       573       575       573       576
       576       577       576       578       576       579       579       580
       579       581       579       582       582       583       582       584
       582       585       585       586       585       587       585       588
       588       589       588       590       588       591       539       540
       540       542       540       541       542       543       542       544
       542       592       592       593       592       594       592       595
       595       596       595       597       595       598       598       599
       598       600       598       601       601       602       601       603
       601       604       604       605       604       606       604       607
       607       608       607       609       607       610       610       611
       610       612       612       613       612       614       614       615
       614       616       614       617       617       618       617       619
       617       620       620       621       620       622       620       623
       623       624       623       625       623       626       626       627
       626       628       626       629       629       630       629       631
       629       632       632       633       632       634       632       635
       635       636       635       637       635       638       639       643
       639       647       639       651       643       644       643       645
       643       646       647       648       647       649       647       650
       651       652       651       653       651       654       639       640
       640       641       640       642       640       655       655       656
       655       657       655       661       662       663       661       658
       658       662       658       659       658       660       663       664
       663       665       663       666       666       667       666       674
       666       668       674       675       674       676       674       677
       668       669       669       671       669       670       671       672
       671       673       671       683       683       684       683       685
       683       686       686       687       686       688       686       689
       689       690       689       691       689       692       692       693
       692       694       692       695       695       696       695       697
       695       698       698       699       698       700       698       701
       701       702       701       703       703       704       703       705
       705       706       705       707       705       708       708       709
       708       710       708       711       711       712       711       713
       711       714       714       715       714       716       714       717
       717       718       717       719       717       720       720       721
       720       722       720       723       723       724       723       725
       723       726       726       727       726       728       726       729
       677       678       678       680       678       679       680       681
       680       682       680       730       730       731       730       732
       730       733       733       734       733       735       733       736
       736       737       736       738       736       739       739       740
       739       741       739       742       742       743       742       744
       742       745       745       746       745       747       745       748
       748       749       748       750       750       751       750       752
       752       753       752       754       752       755       755       756
       755       757       755       758       758       759       758       760
       758       761       761       762       761       763       761       764
       764       765       764       766       764       767       767       768
       767       769       767       770       770       771       770       772
       770       773       773       774       773       775       773       776
       777       781       777       785       777       789       781       782
       781       783       781       784       785       786       785       787
       785       788       789       790       789       791       789       792
       777       778       778       779       778       780       778       793
       793       794       793       795       793       799       800       801
       799       796       796       800       796       797       796       798
       801       802       801       803       801       804       804       805
       804       812       804       806       812       813       812       814
       812       815       806       807       807       809       807       808
       809       810       809       811       809       821       821       822
       821       823       821       824       824       825       824       826
       824       827       827       828       827       829       827       830
       830       831       830       832       830       833       833       834
       833       835       833       836       836       837       836       838
       836       839       839       840       839       841       841       842
       841       843       843       844       843       845       843       846
       846       847       846       848       846       849       849       850
       849       851       849       852       852       853       852       854
       852       855       855       856       855       857       855       858
       858       859       858       860       858       861       861       862
       861       863       861       864       864       865       864       866
       864       867       815       816       816       818       816       817
       818       819       818       820       818       868       868       869
       868       870       868       871       871       872       871       873
       871       874       874       875       874       876       874       877
       877       878       877       879       877       880       880       881
       880       882       880       883       883       884       883       885
       883       886       886       887       886       888       888       889
       888       890       890       891       890       892       890       893
       893       894       893       895       893       896       896       897
       896       898       896       899       899       900       899       901
       899       902       902       903       902       904       902       905
       905       906       905       907       905       908       908       909
       908       910       908       911       911       912       911       913
       911       914       915       919       915       923       915       927
       919       920       919       921       919       922       923       924
       923       925       923       926       927       928       927       929
       927       930       915       916       916       917       916       918
       916       931       931       932       931       933       931       937
       938       939       937       934       934       938       934       935
       934       936       939       940       939       941       939       942
       942       943       942       950       942       944       950       951
       950       952       950       953       944       945       945       947
       945       946       947       948       947       949       947       959
       959       960       959       961       959       962       962       963
       962       964       962       965       965       966       965       967
       965       968       968       969       968       970       968       971
       971       972       971       973       971       974       974       975
       974       976       974       977       977       978       977       979
       979       980       979       981       981       982       981       983
       981       984       984       985       984       986       984       987
       987       988       987       989       987       990       990       991
       990       992       990       993       993       994       993       995
       993       996       996       997       996       998       996       999
       999      1000       999      1001       999      1002      1002      1003
      1002      1004      1002      1005       953       954       954       956
       954       955       956       957       956       958       956      1006
      1006      1007      1006      1008      1006      1009      1009      1010
      1009      1011      1009      1012      1012      1013      1012      1014
      1012      1015      1015      1016      1015      1017      1015      1018
      1018      1019      1018      1020      1018      1021      1021      1022
      1021      1023      1021      1024      1024      1025      1024      1026
      1026      1027      1026      1028      1028      1029      1028      1030
      1028      1031      1031      1032      1031      1033      1031      1034
      1034      1035      1034      1036      1034      1037      1037      1038
      1037      1039      1037      1040      1040      1041      1040      1042
      1040      1043      1043      1044      1043      1045      1043      1046
      1046      1047      1046      1048      1046      1049      1049      1050
      1049      1051      1049      1052      1053      1057      1053      1061
      1053      1065      1057      1058      1057      1059      1057      1060
      1061      1062      1061      1063      1061      1064      1065      1066
      1065      1067      1065      1068      1053      1054      1054      1055
      1054      1056      1054      1069      1069      1070      1069      1071
      1069      1075      1076      1077      1075      1072      1072      1076
      1072      1073      1072      1074      1077      1078      1077      1079
      1077      1080      1080      1081      1080      1088      1080      1082
      1088      1089      1088      1090      1088      1091      1082      1083
      1083      1085      1083      1084      1085      1086      1085      1087
      1085      1097      1097      1098      1097      1099      1097      1100
      1100      1101      1100      1102      1100      1103      1103      1104
      1103      1105      1103      1106      1106      1107      1106      1108
      1106      1109      1109      1110      1109      1111      1109      1112
      1112      1113      1112      1114      1112      1115      1115      1116
      1115      1117      1117      1118      1117      1119      1119      1120
      1119      1121      1119      1122      1122      1123      1122      1124
      1122      1125      1125      1126      1125      1127      1125      1128
      1128      1129      1128      1130      1128      1131      1131      1132
      1131      1133      1131      1134      1134      1135      1134      1136
      1134      1137      1137      1138      1137      1139      1137      1140
      1140      1141      1140      1142      1140      1143      1091      1092
      1092      1094      1092      1093      1094      1095      1094      1096
      1094      1144      1144      1145      1144      1146      1144      1147
      1147      1148      1147      1149      1147      1150      1150      1151
      1150      1152      1150      1153      1153      1154      1153      1155
      1153      1156      1156      1157      1156      1158      1156      1159
      1159      1160      1159      1161      1159      1162      1162      1163
      1162      1164      1164      1165      1164      1166      1166      1167
      1166      1168      1166      1169      1169      1170      1169      1171
      1169      1172      1172      1173      1172      1174      1172      1175
      1175      1176      1175      1177      1175      1178      1178      1179
      1178      1180      1178      1181      1181      1182      1181      1183
      1181      1184      1184      1185      1184      1186      1184      1187
      1187      1188      1187      1189      1187      1190      1191      1195
      1191      1199      1191      1203      1195      1196      1195      1197
      1195      1198      1199      1200      1199      1201      1199      1202
      1203      1204      1203      1205      1203      1206      1191      1192
      1192      1193      1192      1194      1192      1207      1207      1208
      1207      1209      1207      1213      1214      1215      1213      1210
      1210      1214      1210      1211      1210      1212      1215      1216
      1215      1217      1215      1218      1218      1219      1218      1226
      1218      1220      1226      1227      1226      1228      1226      1229
      1220      1221      1221      1223      1221      1222      1223      1224
      1223      1225      1223      1235      1235      1236      1235      1237
      1235      1238      1238      1239      1238      1240      1238      1241
      1241      1242      1241      1243      1241      1244      1244      1245
      1244      1246      1244      1247      1247      1248      1247      1249
      1247      1250      1250      1251      1250      1252      1250      1253
      1253      1254      1253      1255      1255      1256      1255      1257
      1257      1258      1257      1259      1257      1260      1260      1261
      1260      1262      1260      1263      1263      1264      1263      1265
      1263      1266      1266      1267      1266      1268      1266      1269
      1269      1270      1269      1271      1269      1272      1272      1273
      1272      1274      1272      1275      1275      1276      1275      1277
      1275      1278      1278      1279      1278      1280      1278      1281
      1229      1230      1230      1232      1230      1231      1232      1233
      1232      1234      1232      1282      1282      1283      1282      1284
      1282      1285      1285      1286      1285      1287      1285      1288
      1288      1289      1288      1290      1288      1291      1291      1292
      1291      1293      1291      1294      1294      1295      1294      1296
      1294      1297      1297      1298      1297      1299      1297      1300
      1300      1301      1300      1302      1302      1303      1302      1304
      1304      1305      1304      1306      1304      1307      1307      1308
      1307      1309      1307      1310      1310      1311      1310      1312
      1310      1313      1313      1314      1313      1315      1313      1316
      1316      1317      1316      1318      1316      1319      1319      1320
      1319      1321      1319      1322      1322      1323      1322      1324
      1322      1325      1325      1326      1325      1327      1325      1328
      1329      1333      1329      1337      1329      1341      1333      1334
      1333      1335      1333      1336      1337      1338      1337      1339
      1337      1340      1341      1342      1341      1343      1341      1344
      1329      1330      1330      1331      1330      1332      1330      1345
      1345      1346      1345      1347      1345      1351      1352      1353
      1351      1348      1348      1352      1348      1349      1348      1350
      1353      1354      1353      1355      1353      1356      1356      1357
      1356      1364      1356      1358      1364      1365      1364      1366
      1364      1367      1358      1359      1359      1361      1359      1360
      1361      1362      1361      1363      1361      1373      1373      1374
      1373      1375      1373      1376      1376      1377      1376      1378
      1376      1379      1379      1380      1379      1381      1379      1382
      1382      1383      1382      1384      1382      1385      1385      1386
      1385      1387      1385      1388      1388      1389      1388      1390
      1388      1391      1391      1392      1391      1393      1393      1394
      1393      1395      1395      1396      1395      1397      1395      1398
      1398      1399      1398      1400      1398      1401      1401      1402
      1401      1403      1401      1404      1404      1405      1404      1406
      1404      1407      1407      1408      1407      1409      1407      1410
      1410      1411      1410      1412      1410      1413      1413      1414
      1413      1415      1413      1416      1416      1417      1416      1418
      1416      1419      1367      1368      1368      1370      1368      1369
      1370      1371      1370      1372      1370      1420      1420      1421
      1420      1422      1420      1423      1423      1424      1423      1425
      1423      1426      1426      1427      1426      1428      1426      1429
      1429      1430      1429      1431      1429      1432      1432      1433
      1432      1434      1432      1435      1435      1436      1435      1437
      1435      1438      1438      1439      1438      1440      1440      1441
      1440      1442      1442      1443      1442      1444      1442      1445
      1445      1446      1445      1447      1445      1448      1448      1449
      1448      1450      1448      1451      1451      1452      1451      1453
      1451      1454      1454      1455      1454      1456      1454      1457
      1457      1458      1457      1459      1457      1460      1460      1461
      1460      1462      1460      1463      1463      1464      1463      1465
      1463      1466      1467      1471      1467      1475      1467      1479
      1471      1472      1471      1473      1471      1474      1475      1476
      1475      1477      1475      1478      1479      1480      1479      1481
      1479      1482      1467      1468      1468      1469      1468      1470
      1468      1483      1483      1484      1483      1485      1483      1489
      1490      1491      1489      1486      1486      1490      1486      1487
      1486      1488      1491      1492      1491      1493      1491      1494
      1494      1495      1494      1502      1494      1496      1502      1503
      1502      1504      1502      1505      1496      1497      1497      1499
      1497      1498      1499      1500      1499      1501      1499      1511
      1511      1512      1511      1513      1511      1514      1514      1515
      1514      1516      1514      1517      1517      1518      1517      1519
      1517      1520      1520      1521      1520      1522      1520      1523
      1523      1524      1523      1525      1523      1526      1526      1527
      1526      1528      1526      1529      1529      1530      1529      1531
      1531      1532      1531      1533      1533      1534      1533      1535
      1533      1536      1536      1537      1536      1538      1536      1539
      1539      1540      1539      1541      1539      1542      1542      1543
      1542      1544      1542      1545      1545      1546      1545      1547
      1545      1548      1548      1549      1548      1550      1548      1551
      1551      1552      1551      1553      1551      1554      1554      1555
      1554      1556      1554      1557      1505      1506      1506      1508
      1506      1507      1508      1509      1508      1510      1508      1558
      1558      1559      1558      1560      1558      1561      1561      1562
      1561      1563      1561      1564      1564      1565      1564      1566
      1564      1567      1567      1568      1567      1569      1567      1570
      1570      1571      1570      1572      1570      1573      1573      1574
      1573      1575      1573      1576      1576      1577      1576      1578
      1578      1579      1578      1580      1580      1581      1580      1582
      1580      1583      1583      1584      1583      1585      1583      1586
      1586      1587      1586      1588      1586      1589      1589      1590
      1589      1591      1589      1592      1592      1593      1592      1594
      1592      1595      1595      1596      1595      1597      1595      1598
      1598      1599      1598      1600      1598      1601      1601      1602
      1601      1603      1601      1604      1605      1609      1605      1613
      1605      1617      1609      1610      1609      1611      1609      1612
      1613      1614      1613      1615      1613      1616      1617      1618
      1617      1619      1617      1620      1605      1606      1606      1607
      1606      1608      1606      1621      1621      1622      1621      1623
      1621      1627      1628      1629      1627      1624      1624      1628
      1624      1625      1624      1626      1629      1630      1629      1631
      1629      1632      1632      1633      1632      1640      1632      1634
      1640      1641      1640      1642      1640      1643      1634      1635
      1635      1637      1635      1636      1637      1638      1637      1639
      1637      1649      1649      1650      1649      1651      1649      1652
      1652      1653      1652      1654      1652      1655      1655      1656
      1655      1657      1655      1658      1658      1659      1658      1660
      1658      1661      1661      1662      1661      1663      1661      1664
      1664      1665      1664      1666      1664      1667      1667      1668
      1667      1669      1669      1670      1669      1671      1671      1672
      1671      1673      1671      1674      1674      1675      1674      1676
      1674      1677      1677      1678      1677      1679      1677      1680
      1680      1681      1680      1682      1680      1683      1683      1684
      1683      1685      1683      1686      1686      1687      1686      1688
      1686      1689      1689      1690      1689      1691      1689      1692
      1692      1693      1692      1694      1692      1695      1643      1644
      1644      1646      1644      1645      1646      1647      1646      1648
      1646      1696      1696      1697      1696      1698      1696      1699
      1699      1700      1699      1701      1699      1702      1702      1703
      1702      1704      1702      1705      1705      1706      1705      1707
      1705      1708      1708      1709      1708      1710      1708      1711
      1711      1712      1711      1713      1711      1714      1714      1715
      1714      1716      1716      1717      1716      1718      1718      1719
      1718      1720      1718      1721      1721      1722      1721      1723
      1721      1724      1724      1725      1724      1726      1724      1727
      1727      1728      1727      1729      1727      1730      1730      1731
      1730      1732      1730      1733      1733      1734      1733      1735
      1733      1736      1736      1737      1736      1738      1736      1739
      1739      1740      1739      1741      1739      1742      1743      1747
      1743      1751      1743      1755      1747      1748      1747      1749
      1747      1750      1751      1752      1751      1753      1751      1754
      1755      1756      1755      1757      1755      1758      1743      1744
      1744      1745      1744      1746      1744      1759      1759      1760
      1759      1761      1759      1765      1766      1767      1765      1762
      1762      1766      1762      1763      1762      1764      1767      1768
      1767      1769      1767      1770      1770      1771      1770      1778
      1770      1772      1778      1779      1778      1780      1778      1781
      1772      1773      1773      1775      1773      1774      1775      1776
      1775      1777      1775      1787      1787      1788      1787      1789
      1787      1790      1790      1791      1790      1792      1790      1793
      1793      1794      1793      1795      1793      1796      1796      1797
      1796      1798      1796      1799      1799      1800      1799      1801
      1799      1802      1802      1803      1802      1804      1802      1805
      1805      1806      1805      1807      1807      1808      1807      1809
      1809      1810      1809      1811      1809      1812      1812      1813
      1812      1814      1812      1815      1815      1816      1815      1817
      1815      1818      1818      1819      1818      1820      1818      1821
      1821      1822      1821      1823      1821      1824      1824      1825
      1824      1826      1824      1827      1827      1828      1827      1829
      1827      1830      1830      1831      1830      1832      1830      1833
      1781      1782      1782      1784      1782      1783      1784      1785
      1784      1786      1784      1834      1834      1835      1834      1836
      1834      1837      1837      1838      1837      1839      1837      1840
      1840      1841      1840      1842      1840      1843      1843      1844
      1843      1845      1843      1846      1846      1847      1846      1848
      1846      1849      1849      1850      1849      1851      1849      1852
      1852      1853      1852      1854      1854      1855      1854      1856
      1856      1857      1856      1858      1856      1859      1859      1860
      1859      1861      1859      1862      1862      1863      1862      1864
      1862      1865      1865      1866      1865      1867      1865      1868
      1868      1869      1868      1870      1868      1871      1871      1872
      1871      1873      1871      1874      1874      1875      1874      1876
      1874      1877      1877      1878      1877      1879      1877      1880
      1881      1885      1881      1889      1881      1893      1885      1886
      1885      1887      1885      1888      1889      1890      1889      1891
      1889      1892      1893      1894      1893      1895      1893      1896
      1881      1882      1882      1883      1882      1884      1882      1897
      1897      1898      1897      1899      1897      1903      1904      1905
      1903      1900      1900      1904      1900      1901      1900      1902
      1905      1906      1905      1907      1905      1908      1908      1909
      1908      1916      1908      1910      1916      1917      1916      1918
      1916      1919      1910      1911      1911      1913      1911      1912
      1913      1914      1913      1915      1913      1925      1925      1926
      1925      1927      1925      1928      1928      1929      1928      1930
      1928      1931      1931      1932      1931      1933      1931      1934
      1934      1935      1934      1936      1934      1937      1937      1938
      1937      1939      1937      1940      1940      1941      1940      1942
      1940      1943      1943      1944      1943      1945      1945      1946
      1945      1947      1947      1948      1947      1949      1947      1950
      1950      1951      1950      1952      1950      1953      1953      1954
      1953      1955      1953      1956      1956      1957      1956      1958
      1956      1959      1959      1960      1959      1961      1959      1962
      1962      1963      1962      1964      1962      1965      1965      1966
      1965      1967      1965      1968      1968      1969      1968      1970
      1968      1971      1919      1920      1920      1922      1920      1921
      1922      1923      1922      1924      1922      1972      1972      1973
      1972      1974      1972      1975      1975      1976      1975      1977
      1975      1978      1978      1979      1978      1980      1978      1981
      1981      1982      1981      1983      1981      1984      1984      1985
      1984      1986      1984      1987      1987      1988      1987      1989
      1987      1990      1990      1991      1990      1992      1992      1993
      1992      1994      1994      1995      1994      1996      1994      1997
      1997      1998      1997      1999      1997      2000      2000      2001
      2000      2002      2000      2003      2003      2004      2003      2005
      2003      2006      2006      2007      2006      2008      2006      2009
      2009      2010      2009      2011      2009      2012      2012      2013
      2012      2014      2012      2015      2015      2016      2015      2017
      2015      2018      2019      2023      2019      2027      2019      2031
      2023      2024      2023      2025      2023      2026      2027      2028
      2027      2029      2027      2030      2031      2032      2031      2033
      2031      2034      2019      2020      2020      2021      2020      2022
      2020      2035      2035      2036      2035      2037      2035      2041
      2042      2043      2041      2038      2038      2042      2038      2039
      2038      2040      2043      2044      2043      2045      2043      2046
      2046      2047      2046      2054      2046      2048      2054      2055
      2054      2056      2054      2057      2048      2049      2049      2051
      2049      2050      2051      2052      2051      2053      2051      2063
      2063      2064      2063      2065      2063      2066      2066      2067
      2066      2068      2066      2069      2069      2070      2069      2071
      2069      2072      2072      2073      2072      2074      2072      2075
      2075      2076      2075      2077      2075      2078      2078      2079
      2078      2080      2078      2081      2081      2082      2081      2083
      2083      2084      2083      2085      2085      2086      2085      2087
      2085      2088      2088      2089      2088      2090      2088      2091
      2091      2092      2091      2093      2091      2094      2094      2095
      2094      2096      2094      2097      2097      2098      2097      2099
      2097      2100      2100      2101      2100      2102      2100      2103
      2103      2104      2103      2105      2103      2106      2106      2107
      2106      2108      2106      2109      2057      2058      2058      2060
      2058      2059      2060      2061      2060      2062      2060      2110
      2110      2111      2110      2112      2110      2113      2113      2114
      2113      2115      2113      2116      2116      2117      2116      2118
      2116      2119      2119      2120      2119      2121      2119      2122
      2122      2123      2122      2124      2122      2125      2125      2126
      2125      2127      2125      2128      2128      2129      2128      2130
      2130      2131      2130      2132      2132      2133      2132      2134
      2132      2135      2135      2136      2135      2137      2135      2138
      2138      2139      2138      2140      2138      2141      2141      2142
      2141      2143      2141      2144      2144      2145      2144      2146
      2144      2147      2147      2148      2147      2149      2147      2150
      2150      2151      2150      2152      2150      2153      2153      2154
      2153      2155      2153      2156      2157      2161      2157      2165
      2157      2169      2161      2162      2161      2163      2161      2164
      2165      2166      2165      2167      2165      2168      2169      2170
      2169      2171      2169      2172      2157      2158      2158      2159
      2158      2160      2158      2173      2173      2174      2173      2175
      2173      2179      2180      2181      2179      2176      2176      2180
      2176      2177      2176      2178      2181      2182      2181      2183
      2181      2184      2184      2185      2184      2192      2184      2186
      2192      2193      2192      2194      2192      2195      2186      2187
      2187      2189      2187      2188      2189      2190      2189      2191
      2189      2201      2201      2202      2201      2203      2201      2204
      2204      2205      2204      2206      2204      2207      2207      2208
      2207      2209      2207      2210      2210      2211      2210      2212
      2210      2213      2213      2214      2213      2215      2213      2216
      2216      2217      2216      2218      2216      2219      2219      2220
      2219      2221      2221      2222      2221      2223      2223      2224
      2223      2225      2223      2226      2226      2227      2226      2228
      2226      2229      2229      2230      2229      2231      2229      2232
      2232      2233      2232      2234      2232      2235      2235      2236
      2235      2237      2235      2238      2238      2239      2238      2240
      2238      2241      2241      2242      2241      2243      2241      2244
      2244      2245      2244      2246      2244      2247      2195      2196
      2196      2198      2196      2197      2198      2199      2198      2200
      2198      2248      2248      2249      2248      2250      2248      2251
      2251      2252      2251      2253      2251      2254      2254      2255
      2254      2256      2254      2257      2257      2258      2257      2259
      2257      2260      2260      2261      2260      2262      2260      2263
      2263      2264      2263      2265      2263      2266      2266      2267
      2266      2268      2268      2269      2268      2270      2270      2271
      2270      2272      2270      2273      2273      2274      2273      2275
      2273      2276      2276      2277      2276      2278      2276      2279
      2279      2280      2279      2281      2279      2282      2282      2283
      2282      2284      2282      2285      2285      2286      2285      2287
      2285      2288      2288      2289      2288      2290      2288      2291
      2291      2292      2291      2293      2291      2294      2295      2299
      2295      2303      2295      2307      2299      2300      2299      2301
      2299      2302      2303      2304      2303      2305      2303      2306
      2307      2308      2307      2309      2307      2310      2295      2296
      2296      2297      2296      2298      2296      2311      2311      2312
      2311      2313      2311      2317      2318      2319      2317      2314
      2314      2318      2314      2315      2314      2316      2319      2320
      2319      2321      2319      2322      2322      2323      2322      2330
      2322      2324      2330      2331      2330      2332      2330      2333
      2324      2325      2325      2327      2325      2326      2327      2328
      2327      2329      2327      2339      2339      2340      2339      2341
      2339      2342      2342      2343      2342      2344      2342      2345
      2345      2346      2345      2347      2345      2348      2348      2349
      2348      2350      2348      2351      2351      2352      2351      2353
      2351      2354      2354      2355      2354      2356      2354      2357
      2357      2358      2357      2359      2359      2360      2359      2361
      2361      2362      2361      2363      2361      2364      2364      2365
      2364      2366      2364      2367      2367      2368      2367      2369
      2367      2370      2370      2371      2370      2372      2370      2373
      2373      2374      2373      2375      2373      2376      2376      2377
      2376      2378      2376      2379      2379      2380      2379      2381
      2379      2382      2382      2383      2382      2384      2382      2385
      2333      2334      2334      2336      2334      2335      2336      2337
      2336      2338      2336      2386      2386      2387      2386      2388
      2386      2389      2389      2390      2389      2391      2389      2392
      2392      2393      2392      2394      2392      2395      2395      2396
      2395      2397      2395      2398      2398      2399      2398      2400
      2398      2401      2401      2402      2401      2403      2401      2404
      2404      2405      2404      2406      2406      2407      2406      2408
      2408      2409      2408      2410      2408      2411      2411      2412
      2411      2413      2411      2414      2414      2415      2414      2416
      2414      2417      2417      2418      2417      2419      2417      2420
      2420      2421      2420      2422      2420      2423      2423      2424
      2423      2425      2423      2426      2426      2427      2426      2428
      2426      2429      2429      2430      2429      2431      2429      2432
      2433      2437      2433      2441      2433      2445      2437      2438
      2437      2439      2437      2440      2441      2442      2441      2443
      2441      2444      2445      2446      2445      2447      2445      2448
      2433      2434      2434      2435      2434      2436      2434      2449
      2449      2450      2449      2451      2449      2455      2456      2457
      2455      2452      2452      2456      2452      2453      2452      2454
      2457      2458      2457      2459      2457      2460      2460      2461
      2460      2468      2460      2462      2468      2469      2468      2470
      2468      2471      2462      2463      2463      2465      2463      2464
      2465      2466      2465      2467      2465      2477      2477      2478
      2477      2479      2477      2480      2480      2481      2480      2482
      2480      2483      2483      2484      2483      2485      2483      2486
      2486      2487      2486      2488      2486      2489      2489      2490
      2489      2491      2489      2492      2492      2493      2492      2494
      2492      2495      2495      2496      2495      2497      2497      2498
      2497      2499      2499      2500      2499      2501      2499      2502
      2502      2503      2502      2504      2502      2505      2505      2506
      2505      2507      2505      2508      2508      2509      2508      2510
      2508      2511      2511      2512      2511      2513      2511      2514
      2514      2515      2514      2516      2514      2517      2517      2518
      2517      2519      2517      2520      2520      2521      2520      2522
      2520      2523      2471      2472      2472      2474      2472      2473
      2474      2475      2474      2476      2474      2524      2524      2525
      2524      2526      2524      2527      2527      2528      2527      2529
      2527      2530      2530      2531      2530      2532      2530      2533
      2533      2534      2533      2535      2533      2536      2536      2537
      2536      2538      2536      2539      2539      2540      2539      2541
      2539      2542      2542      2543      2542      2544      2544      2545
      2544      2546      2546      2547      2546      2548      2546      2549
      2549      2550      2549      2551      2549      2552      2552      2553
      2552      2554      2552      2555      2555      2556      2555      2557
      2555      2558      2558      2559      2558      2560      2558      2561
      2561      2562      2561      2563      2561      2564      2564      2565
      2564      2566      2564      2567      2567      2568      2567      2569
      2567      2570      2571      2575      2571      2579      2571      2583
      2575      2576      2575      2577      2575      2578      2579      2580
      2579      2581      2579      2582      2583      2584      2583      2585
      2583      2586      2571      2572      2572      2573      2572      2574
      2572      2587      2587      2588      2587      2589      2587      2593
      2594      2595      2593      2590      2590      2594      2590      2591
      2590      2592      2595      2596      2595      2597      2595      2598
      2598      2599      2598      2606      2598      2600      2606      2607
      2606      2608      2606      2609      2600      2601      2601      2603
      2601      2602      2603      2604      2603      2605      2603      2615
      2615      2616      2615      2617      2615      2618      2618      2619
      2618      2620      2618      2621      2621      2622      2621      2623
      2621      2624      2624      2625      2624      2626      2624      2627
      2627      2628      2627      2629      2627      2630      2630      2631
      2630      2632      2630      2633      2633      2634      2633      2635
      2635      2636      2635      2637      2637      2638      2637      2639
      2637      2640      2640      2641      2640      2642      2640      2643
      2643      2644      2643      2645      2643      2646      2646      2647
      2646      2648      2646      2649      2649      2650      2649      2651
      2649      2652      2652      2653      2652      2654      2652      2655
      2655      2656      2655      2657      2655      2658      2658      2659
      2658      2660      2658      2661      2609      2610      2610      2612
      2610      2611      2612      2613      2612      2614      2612      2662
      2662      2663      2662      2664      2662      2665      2665      2666
      2665      2667      2665      2668      2668      2669      2668      2670
      2668      2671      2671      2672      2671      2673      2671      2674
      2674      2675      2674      2676      2674      2677      2677      2678
      2677      2679      2677      2680      2680      2681      2680      2682
      2682      2683      2682      2684      2684      2685      2684      2686
      2684      2687      2687      2688      2687      2689      2687      2690
      2690      2691      2690      2692      2690      2693      2693      2694
      2693      2695      2693      2696      2696      2697      2696      2698
      2696      2699      2699      2700      2699      2701      2699      2702
      2702      2703      2702      2704      2702      2705      2705      2706
      2705      2707      2705      2708      2709      2713      2709      2717
      2709      2721      2713      2714      2713      2715      2713      2716
      2717      2718      2717      2719      2717      2720      2721      2722
      2721      2723      2721      2724      2709      2710      2710      2711
      2710      2712      2710      2725      2725      2726      2725      2727
      2725      2731      2732      2733      2731      2728      2728      2732
      2728      2729      2728      2730      2733      2734      2733      2735
      2733      2736      2736      2737      2736      2744      2736      2738
      2744      2745      2744      2746      2744      2747      2738      2739
      2739      2741      2739      2740      2741      2742      2741      2743
      2741      2753      2753      2754      2753      2755      2753      2756
      2756      2757      2756      2758      2756      2759      2759      2760
      2759      2761      2759      2762      2762      2763      2762      2764
      2762      2765      2765      2766      2765      2767      2765      2768
      2768      2769      2768      2770      2768      2771      2771      2772
      2771      2773      2773      2774      2773      2775      2775      2776
      2775      2777      2775      2778      2778      2779      2778      2780
      2778      2781      2781      2782      2781      2783      2781      2784
      2784      2785      2784      2786      2784      2787      2787      2788
      2787      2789      2787      2790      2790      2791      2790      2792
      2790      2793      2793      2794      2793      2795      2793      2796
      2796      2797      2796      2798      2796      2799      2747      2748
      2748      2750      2748      2749      2750      2751      2750      2752
      2750      2800      2800      2801      2800      2802      2800      2803
      2803      2804      2803      2805      2803      2806      2806      2807
      2806      2808      2806      2809      2809      2810      2809      2811
      2809      2812      2812      2813      2812      2814      2812      2815
      2815      2816      2815      2817      2815      2818      2818      2819
      2818      2820      2820      2821      2820      2822      2822      2823
      2822      2824      2822      2825      2825      2826      2825      2827
      2825      2828      2828      2829      2828      2830      2828      2831
      2831      2832      2831      2833      2831      2834      2834      2835
      2834      2836      2834      2837      2837      2838      2837      2839
      2837      2840      2840      2841      2840      2842      2840      2843
      2843      2844      2843      2845      2843      2846      2847      2851
      2847      2855      2847      2859      2851      2852      2851      2853
      2851      2854      2855      2856      2855      2857      2855      2858
      2859      2860      2859      2861      2859      2862      2847      2848
      2848      2849      2848      2850      2848      2863      2863      2864
      2863      2865      2863      2869      2870      2871      2869      2866
      2866      2870      2866      2867      2866      2868      2871      2872
      2871      2873      2871      2874      2874      2875      2874      2882
      2874      2876      2882      2883      2882      2884      2882      2885
      2876      2877      2877      2879      2877      2878      2879      2880
      2879      2881      2879      2891      2891      2892      2891      2893
      2891      2894      2894      2895      2894      2896      2894      2897
      2897      2898      2897      2899      2897      2900      2900      2901
      2900      2902      2900      2903      2903      2904      2903      2905
      2903      2906      2906      2907      2906      2908      2906      2909
      2909      2910      2909      2911      2911      2912      2911      2913
      2913      2914      2913      2915      2913      2916      2916      2917
      2916      2918      2916      2919      2919      2920      2919      2921
      2919      2922      2922      2923      2922      2924      2922      2925
      2925      2926      2925      2927      2925      2928      2928      2929
      2928      2930      2928      2931      2931      2932      2931      2933
      2931      2934      2934      2935      2934      2936      2934      2937
      2885      2886      2886      2888      2886      2887      2888      2889
      2888      2890      2888      2938      2938      2939      2938      2940
      2938      2941      2941      2942      2941      2943      2941      2944
      2944      2945      2944      2946      2944      2947      2947      2948
      2947      2949      2947      2950      2950      2951      2950      2952
      2950      2953      2953      2954      2953      2955      2953      2956
      2956      2957      2956      2958      2958      2959      2958      2960
      2960      2961      2960      2962      2960      2963      2963      2964
      2963      2965      2963      2966      2966      2967      2966      2968
      2966      2969      2969      2970      2969      2971      2969      2972
      2972      2973      2972      2974      2972      2975      2975      2976
      2975      2977      2975      2978      2978      2979      2978      2980
      2978      2981      2981      2982      2981      2983      2981      2984
      2985      2989      2985      2993      2985      2997      2989      2990
      2989      2991      2989      2992      2993      2994      2993      2995
      2993      2996      2997      2998      2997      2999      2997      3000
      2985      2986      2986      2987      2986      2988      2986      3001
      3001      3002      3001      3003      3001      3007      3008      3009
      3007      3004      3004      3008      3004      3005      3004      3006
      3009      3010      3009      3011      3009      3012      3012      3013
      3012      3020      3012      3014      3020      3021      3020      3022
      3020      3023      3014      3015      3015      3017      3015      3016
      3017      3018      3017      3019      3017      3029      3029      3030
      3029      3031      3029      3032      3032      3033      3032      3034
      3032      3035      3035      3036      3035      3037      3035      3038
      3038      3039      3038      3040      3038      3041      3041      3042
      3041      3043      3041      3044      3044      3045      3044      3046
      3044      3047      3047      3048      3047      3049      3049      3050
      3049      3051      3051      3052      3051      3053      3051      3054
      3054      3055      3054      3056      3054      3057      3057      3058
      3057      3059      3057      3060      3060      3061      3060      3062
      3060      3063      3063      3064      3063      3065      3063      3066
      3066      3067      3066      3068      3066      3069      3069      3070
      3069      3071      3069      3072      3072      3073      3072      3074
      3072      3075      3023      3024      3024      3026      3024      3025
      3026      3027      3026      3028      3026      3076      3076      3077
      3076      3078      3076      3079      3079      3080      3079      3081
      3079      3082      3082      3083      3082      3084      3082      3085
      3085      3086      3085      3087      3085      3088      3088      3089
      3088      3090      3088      3091      3091      3092      3091      3093
      3091      3094      3094      3095      3094      3096      3096      3097
      3096      3098      3098      3099      3098      3100      3098      3101
      3101      3102      3101      3103      3101      3104      3104      3105
      3104      3106      3104      3107      3107      3108      3107      3109
      3107      3110      3110      3111      3110      3112      3110      3113
      3113      3114      3113      3115      3113      3116      3116      3117
      3116      3118      3116      3119      3119      3120      3119      3121
      3119      3122      3123      3127      3123      3131      3123      3135
      3127      3128      3127      3129      3127      3130      3131      3132
      3131      3133      3131      3134      3135      3136      3135      3137
      3135      3138      3123      3124      3124      3125      3124      3126
      3124      3139      3139      3140      3139      3141      3139      3145
      3146      3147      3145      3142      3142      3146      3142      3143
      3142      3144      3147      3148      3147      3149      3147      3150
      3150      3151      3150      3158      3150      3152      3158      3159
      3158      3160      3158      3161      3152      3153      3153      3155
      3153      3154      3155      3156      3155      3157      3155      3167
      3167      3168      3167      3169      3167      3170      3170      3171
      3170      3172      3170      3173      3173      3174      3173      3175
      3173      3176      3176      3177      3176      3178      3176      3179
      3179      3180      3179      3181      3179      3182      3182      3183
      3182      3184      3182      3185      3185      3186      3185      3187
      3187      3188      3187      3189      3189      3190      3189      3191
      3189      3192      3192      3193      3192      3194      3192      3195
      3195      3196      3195      3197      3195      3198      3198      3199
      3198      3200      3198      3201      3201      3202      3201      3203
      3201      3204      3204      3205      3204      3206      3204      3207
      3207      3208      3207      3209      3207      3210      3210      3211
      3210      3212      3210      3213      3161      3162      3162      3164
      3162      3163      3164      3165      3164      3166      3164      3214
      3214      3215      3214      3216      3214      3217      3217      3218
      3217      3219      3217      3220      3220      3221      3220      3222
      3220      3223      3223      3224      3223      3225      3223      3226
      3226      3227      3226      3228      3226      3229      3229      3230
      3229      3231      3229      3232      3232      3233      3232      3234
      3234      3235      3234      3236      3236      3237      3236      3238
      3236      3239      3239      3240      3239      3241      3239      3242
      3242      3243      3242      3244      3242      3245      3245      3246
      3245      3247      3245      3248      3248      3249      3248      3250
      3248      3251      3251      3252      3251      3253      3251      3254
      3254      3255      3254      3256      3254      3257      3257      3258
      3257      3259      3257      3260      3261      3265      3261      3269
      3261      3273      3265      3266      3265      3267      3265      3268
      3269      3270      3269      3271      3269      3272      3273      3274
      3273      3275      3273      3276      3261      3262      3262      3263
      3262      3264      3262      3277      3277      3278      3277      3279
      3277      3283      3284      3285      3283      3280      3280      3284
      3280      3281      3280      3282      3285      3286      3285      3287
      3285      3288      3288      3289      3288      3296      3288      3290
      3296      3297      3296      3298      3296      3299      3290      3291
      3291      3293      3291      3292      3293      3294      3293      3295
      3293      3305      3305      3306      3305      3307      3305      3308
      3308      3309      3308      3310      3308      3311      3311      3312
      3311      3313      3311      3314      3314      3315      3314      3316
      3314      3317      3317      3318      3317      3319      3317      3320
      3320      3321      3320      3322      3320      3323      3323      3324
      3323      3325      3325      3326      3325      3327      3327      3328
      3327      3329      3327      3330      3330      3331      3330      3332
      3330      3333      3333      3334      3333      3335      3333      3336
      3336      3337      3336      3338      3336      3339      3339      3340
      3339      3341      3339      3342      3342      3343      3342      3344
      3342      3345      3345      3346      3345      3347      3345      3348
      3348      3349      3348      3350      3348      3351      3299      3300
      3300      3302      3300      3301      3302      3303      3302      3304
      3302      3352      3352      3353      3352      3354      3352      3355
      3355      3356      3355      3357      3355      3358      3358      3359
      3358      3360      3358      3361      3361      3362      3361      3363
      3361      3364      3364      3365      3364      3366      3364      3367
      3367      3368      3367      3369      3367      3370      3370      3371
      3370      3372      3372      3373      3372      3374      3374      3375
      3374      3376      3374      3377      3377      3378      3377      3379
      3377      3380      3380      3381      3380      3382      3380      3383
      3383      3384      3383      3385      3383      3386      3386      3387
      3386      3388      3386      3389      3389      3390      3389      3391
      3389      3392      3392      3393      3392      3394      3392      3395
      3395      3396      3395      3397      3395      3398      3399      3403
      3399      3407      3399      3411      3403      3404      3403      3405
      3403      3406      3407      3408      3407      3409      3407      3410
      3411      3412      3411      3413      3411      3414      3399      3400
      3400      3401      3400      3402      3400      3415      3415      3416
      3415      3417      3415      3421      3422      3423      3421      3418
      3418      3422      3418      3419      3418      3420      3423      3424
      3423      3425      3423      3426      3426      3427      3426      3434
      3426      3428      3434      3435      3434      3436      3434      3437
      3428      3429      3429      3431      3429      3430      3431      3432
      3431      3433      3431      3443      3443      3444      3443      3445
      3443      3446      3446      3447      3446      3448      3446      3449
      3449      3450      3449      3451      3449      3452      3452      3453
      3452      3454      3452      3455      3455      3456      3455      3457
      3455      3458      3458      3459      3458      3460      3458      3461
      3461      3462      3461      3463      3463      3464      3463      3465
      3465      3466      3465      3467      3465      3468      3468      3469
      3468      3470      3468      3471      3471      3472      3471      3473
      3471      3474      3474      3475      3474      3476      3474      3477
      3477      3478      3477      3479      3477      3480      3480      3481
      3480      3482      3480      3483      3483      3484      3483      3485
      3483      3486      3486      3487      3486      3488      3486      3489
      3437      3438      3438      3440      3438      3439      3440      3441
      3440      3442      3440      3490      3490      3491      3490      3492
      3490      3493      3493      3494      3493      3495      3493      3496
      3496      3497      3496      3498      3496      3499      3499      3500
      3499      3501      3499      3502      3502      3503      3502      3504
      3502      3505      3505      3506      3505      3507      3505      3508
      3508      3509      3508      3510      3510      3511      3510      3512
      3512      3513      3512      3514      3512      3515      3515      3516
      3515      3517      3515      3518      3518      3519      3518      3520
      3518      3521      3521      3522      3521      3523      3521      3524
      3524      3525      3524      3526      3524      3527      3527      3528
      3527      3529      3527      3530      3530      3531      3530      3532
      3530      3533      3533      3534      3533      3535      3533      3536
      3537      3541      3537      3545      3537      3549      3541      3542
      3541      3543      3541      3544      3545      3546      3545      3547
      3545      3548      3549      3550      3549      3551      3549      3552
      3537      3538      3538      3539      3538      3540      3538      3553
      3553      3554      3553      3555      3553      3559      3560      3561
      3559      3556      3556      3560      3556      3557      3556      3558
      3561      3562      3561      3563      3561      3564      3564      3565
      3564      3572      3564      3566      3572      3573      3572      3574
      3572      3575      3566      3567      3567      3569      3567      3568
      3569      3570      3569      3571      3569      3581      3581      3582
      3581      3583      3581      3584      3584      3585      3584      3586
      3584      3587      3587      3588      3587      3589      3587      3590
      3590      3591      3590      3592      3590      3593      3593      3594
      3593      3595      3593      3596      3596      3597      3596      3598
      3596      3599      3599      3600      3599      3601      3601      3602
      3601      3603      3603      3604      3603      3605      3603      3606
      3606      3607      3606      3608      3606      3609      3609      3610
      3609      3611      3609      3612      3612      3613      3612      3614
      3612      3615      3615      3616      3615      3617      3615      3618
      3618      3619      3618      3620      3618      3621      3621      3622
      3621      3623      3621      3624      3624      3625      3624      3626
      3624      3627      3575      3576      3576      3578      3576      3577
      3578      3579      3578      3580      3578      3628      3628      3629
      3628      3630      3628      3631      3631      3632      3631      3633
      3631      3634      3634      3635      3634      3636      3634      3637
      3637      3638      3637      3639      3637      3640      3640      3641
      3640      3642      3640      3643      3643      3644      3643      3645
      3643      3646      3646      3647      3646      3648      3648      3649
      3648      3650      3650      3651      3650      3652      3650      3653
      3653      3654      3653      3655      3653      3656      3656      3657
      3656      3658      3656      3659      3659      3660      3659      3661
      3659      3662      3662      3663      3662      3664      3662      3665
      3665      3666      3665      3667      3665      3668      3668      3669
      3668      3670      3668      3671      3671      3672      3671      3673
      3671      3674      3675      3679      3675      3683      3675      3687
      3679      3680      3679      3681      3679      3682      3683      3684
      3683      3685      3683      3686      3687      3688      3687      3689
      3687      3690      3675      3676      3676      3677      3676      3678
      3676      3691      3691      3692      3691      3693      3691      3697
      3698      3699      3697      3694      3694      3698      3694      3695
      3694      3696      3699      3700      3699      3701      3699      3702
      3702      3703      3702      3710      3702      3704      3710      3711
      3710      3712      3710      3713      3704      3705      3705      3707
      3705      3706      3707      3708      3707      3709      3707      3719
      3719      3720      3719      3721      3719      3722      3722      3723
      3722      3724      3722      3725      3725      3726      3725      3727
      3725      3728      3728      3729      3728      3730      3728      3731
      3731      3732      3731      3733      3731      3734      3734      3735
      3734      3736      3734      3737      3737      3738      3737      3739
      3739      3740      3739      3741      3741      3742      3741      3743
      3741      3744      3744      3745      3744      3746      3744      3747
      3747      3748      3747      3749      3747      3750      3750      3751
      3750      3752      3750      3753      3753      3754      3753      3755
      3753      3756      3756      3757      3756      3758      3756      3759
      3759      3760      3759      3761      3759      3762      3762      3763
      3762      3764      3762      3765      3713      3714      3714      3716
      3714      3715      3716      3717      3716      3718      3716      3766
      3766      3767      3766      3768      3766      3769      3769      3770
      3769      3771      3769      3772      3772      3773      3772      3774
      3772      3775      3775      3776      3775      3777      3775      3778
      3778      3779      3778      3780      3778      3781      3781      3782
      3781      3783      3781      3784      3784      3785      3784      3786
      3786      3787      3786      3788      3788      3789      3788      3790
      3788      3791      3791      3792      3791      3793      3791      3794
      3794      3795      3794      3796      3794      3797      3797      3798
      3797      3799      3797      3800      3800      3801      3800      3802
      3800      3803      3803      3804      3803      3805      3803      3806
      3806      3807      3806      3808      3806      3809      3809      3810
      3809      3811      3809      3812      3813      3817      3813      3821
      3813      3825      3817      3818      3817      3819      3817      3820
      3821      3822      3821      3823      3821      3824      3825      3826
      3825      3827      3825      3828      3813      3814      3814      3815
      3814      3816      3814      3829      3829      3830      3829      3831
      3829      3835      3836      3837      3835      3832      3832      3836
      3832      3833      3832      3834      3837      3838      3837      3839
      3837      3840      3840      3841      3840      3848      3840      3842
      3848      3849      3848      3850      3848      3851      3842      3843
      3843      3845      3843      3844      3845      3846      3845      3847
      3845      3857      3857      3858      3857      3859      3857      3860
      3860      3861      3860      3862      3860      3863      3863      3864
      3863      3865      3863      3866      3866      3867      3866      3868
      3866      3869      3869      3870      3869      3871      3869      3872
      3872      3873      3872      3874      3872      3875      3875      3876
      3875      3877      3877      3878      3877      3879      3879      3880
      3879      3881      3879      3882      3882      3883      3882      3884
      3882      3885      3885      3886      3885      3887      3885      3888
      3888      3889      3888      3890      3888      3891      3891      3892
      3891      3893      3891      3894      3894      3895      3894      3896
      3894      3897      3897      3898      3897      3899      3897      3900
      3900      3901      3900      3902      3900      3903      3851      3852
      3852      3854      3852      3853      3854      3855      3854      3856
      3854      3904      3904      3905      3904      3906      3904      3907
      3907      3908      3907      3909      3907      3910      3910      3911
      3910      3912      3910      3913      3913      3914      3913      3915
      3913      3916      3916      3917      3916      3918      3916      3919
      3919      3920      3919      3921      3919      3922      3922      3923
      3922      3924      3924      3925      3924      3926      3926      3927
      3926      3928      3926      3929      3929      3930      3929      3931
      3929      3932      3932      3933      3932      3934      3932      3935
      3935      3936      3935      3937      3935      3938      3938      3939
      3938      3940      3938      3941      3941      3942      3941      3943
      3941      3944      3944      3945      3944      3946      3944      3947
      3947      3948      3947      3949      3947      3950      3951      3955
      3951      3959      3951      3963      3955      3956      3955      3957
      3955      3958      3959      3960      3959      3961      3959      3962
      3963      3964      3963      3965      3963      3966      3951      3952
      3952      3953      3952      3954      3952      3967      3967      3968
      3967      3969      3967      3973      3974      3975      3973      3970
      3970      3974      3970      3971      3970      3972      3975      3976
      3975      3977      3975      3978      3978      3979      3978      3986
      3978      3980      3986      3987      3986      3988      3986      3989
      3980      3981      3981      3983      3981      3982      3983      3984
      3983      3985      3983      3995      3995      3996      3995      3997
      3995      3998      3998      3999      3998      4000      3998      4001
      4001      4002      4001      4003      4001      4004      4004      4005
      4004      4006      4004      4007      4007      4008      4007      4009
      4007      4010      4010      4011      4010      4012      4010      4013
      4013      4014      4013      4015      4015      4016      4015      4017
      4017      4018      4017      4019      4017      4020      4020      4021
      4020      4022      4020      4023      4023      4024      4023      4025
      4023      4026      4026      4027      4026      4028      4026      4029
      4029      4030      4029      4031      4029      4032      4032      4033
      4032      4034      4032      4035      4035      4036      4035      4037
      4035      4038      4038      4039      4038      4040      4038      4041
      3989      3990      3990      3992      3990      3991      3992      3993
      3992      3994      3992      4042      4042      4043      4042      4044
      4042      4045      4045      4046      4045      4047      4045      4048
      4048      4049      4048      4050      4048      4051      4051      4052
      4051      4053      4051      4054      4054      4055      4054      4056
      4054      4057      4057      4058      4057      4059      4057      4060
      4060      4061      4060      4062      4062      4063      4062      4064
      4064      4065      4064      4066      4064      4067      4067      4068
      4067      4069      4067      4070      4070      4071      4070      4072
      4070      4073      4073      4074      4073      4075      4073      4076
      4076      4077      4076      4078      4076      4079      4079      4080
      4079      4081      4079      4082      4082      4083      4082      4084
      4082      4085      4085      4086      4085      4087      4085      4088
      4089      4093      4089      4097      4089      4101      4093      4094
      4093      4095      4093      4096      4097      4098      4097      4099
      4097      4100      4101      4102      4101      4103      4101      4104
      4089      4090      4090      4091      4090      4092      4090      4105
      4105      4106      4105      4107      4105      4111      4112      4113
      4111      4108      4108      4112      4108      4109      4108      4110
      4113      4114      4113      4115      4113      4116      4116      4117
      4116      4124      4116      4118      4124      4125      4124      4126
      4124      4127      4118      4119      4119      4121      4119      4120
      4121      4122      4121      4123      4121      4133      4133      4134
      4133      4135      4133      4136      4136      4137      4136      4138
      4136      4139      4139      4140      4139      4141      4139      4142
      4142      4143      4142      4144      4142      4145      4145      4146
      4145      4147      4145      4148      4148      4149      4148      4150
      4148      4151      4151      4152      4151      4153      4153      4154
      4153      4155      4155      4156      4155      4157      4155      4158
      4158      4159      4158      4160      4158      4161      4161      4162
      4161      4163      4161      4164      4164      4165      4164      4166
      4164      4167      4167      4168      4167      4169      4167      4170
      4170      4171      4170      4172      4170      4173      4173      4174
      4173      4175      4173      4176      4176      4177      4176      4178
      4176      4179      4127      4128      4128      4130      4128      4129
      4130      4131      4130      4132      4130      4180      4180      4181
      4180      4182      4180      4183      4183      4184      4183      4185
      4183      4186      4186      4187      4186      4188      4186      4189
      4189      4190      4189      4191      4189      4192      4192      4193
      4192      4194      4192      4195      4195      4196      4195      4197
      4195      4198      4198      4199      4198      4200      4200      4201
      4200      4202      4202      4203      4202      4204      4202      4205
      4205      4206      4205      4207      4205      4208      4208      4209
      4208      4210      4208      4211      4211      4212      4211      4213
      4211      4214      4214      4215      4214      4216      4214      4217
      4217      4218      4217      4219      4217      4220      4220      4221
      4220      4222      4220      4223      4223      4224      4223      4225
      4223      4226      4227      4231      4227      4235      4227      4239
      4231      4232      4231      4233      4231      4234      4235      4236
      4235      4237      4235      4238      4239      4240      4239      4241
      4239      4242      4227      4228      4228      4229      4228      4230
      4228      4243      4243      4244      4243      4245      4243      4249
      4250      4251      4249      4246      4246      4250      4246      4247
      4246      4248      4251      4252      4251      4253      4251      4254
      4254      4255      4254      4262      4254      4256      4262      4263
      4262      4264      4262      4265      4256      4257      4257      4259
      4257      4258      4259      4260      4259      4261      4259      4271
      4271      4272      4271      4273      4271      4274      4274      4275
      4274      4276      4274      4277      4277      4278      4277      4279
      4277      4280      4280      4281      4280      4282      4280      4283
      4283      4284      4283      4285      4283      4286      4286      4287
      4286      4288      4286      4289      4289      4290      4289      4291
      4291      4292      4291      4293      4293      4294      4293      4295
      4293      4296      4296      4297      4296      4298      4296      4299
      4299      4300      4299      4301      4299      4302      4302      4303
      4302      4304      4302      4305      4305      4306      4305      4307
      4305      4308      4308      4309      4308      4310      4308      4311
      4311      4312      4311      4313      4311      4314      4314      4315
      4314      4316      4314      4317      4265      4266      4266      4268
      4266      4267      4268      4269      4268      4270      4268      4318
      4318      4319      4318      4320      4318      4321      4321      4322
      4321      4323      4321      4324      4324      4325      4324      4326
      4324      4327      4327      4328      4327      4329      4327      4330
      4330      4331      4330      4332      4330      4333      4333      4334
      4333      4335      4333      4336      4336      4337      4336      4338
      4338      4339      4338      4340      4340      4341      4340      4342
      4340      4343      4343      4344      4343      4345      4343      4346
      4346      4347      4346      4348      4346      4349      4349      4350
      4349      4351      4349      4352      4352      4353      4352      4354
      4352      4355      4355      4356      4355      4357      4355      4358
      4358      4359      4358      4360      4358      4361      4361      4362
      4361      4363      4361      4364      4365      4369      4365      4373
      4365      4377      4369      4370      4369      4371      4369      4372
      4373      4374      4373      4375      4373      4376      4377      4378
      4377      4379      4377      4380      4365      4366      4366      4367
      4366      4368      4366      4381      4381      4382      4381      4383
      4381      4387      4388      4389      4387      4384      4384      4388
      4384      4385      4384      4386      4389      4390      4389      4391
      4389      4392      4392      4393      4392      4400      4392      4394
      4400      4401      4400      4402      4400      4403      4394      4395
      4395      4397      4395      4396      4397      4398      4397      4399
      4397      4409      4409      4410      4409      4411      4409      4412
      4412      4413      4412      4414      4412      4415      4415      4416
      4415      4417      4415      4418      4418      4419      4418      4420
      4418      4421      4421      4422      4421      4423      4421      4424
      4424      4425      4424      4426      4424      4427      4427      4428
      4427      4429      4429      4430      4429      4431      4431      4432
      4431      4433      4431      4434      4434      4435      4434      4436
      4434      4437      4437      4438      4437      4439      4437      4440
      4440      4441      4440      4442      4440      4443      4443      4444
      4443      4445      4443      4446      4446      4447      4446      4448
      4446      4449      4449      4450      4449      4451      4449      4452
      4452      4453      4452      4454      4452      4455      4403      4404
      4404      4406      4404      4405      4406      4407      4406      4408
      4406      4456      4456      4457      4456      4458      4456      4459
      4459      4460      4459      4461      4459      4462      4462      4463
      4462      4464      4462      4465      4465      4466      4465      4467
      4465      4468      4468      4469      4468      4470      4468      4471
      4471      4472      4471      4473      4471      4474      4474      4475
      4474      4476      4476      4477      4476      4478      4478      4479
      4478      4480      4478      4481      4481      4482      4481      4483
      4481      4484      4484      4485      4484      4486      4484      4487
      4487      4488      4487      4489      4487      4490      4490      4491
      4490      4492      4490      4493      4493      4494      4493      4495
      4493      4496      4496      4497      4496      4498      4496      4499
      4499      4500      4499      4501      4499      4502      4503      4507
      4503      4511      4503      4515      4507      4508      4507      4509
      4507      4510      4511      4512      4511      4513      4511      4514
      4515      4516      4515      4517      4515      4518      4503      4504
      4504      4505      4504      4506      4504      4519      4519      4520
      4519      4521      4519      4525      4526      4527      4525      4522
      4522      4526      4522      4523      4522      4524      4527      4528
      4527      4529      4527      4530      4530      4531      4530      4538
      4530      4532      4538      4539      4538      4540      4538      4541
      4532      4533      4533      4535      4533      4534      4535      4536
      4535      4537      4535      4547      4547      4548      4547      4549
      4547      4550      4550      4551      4550      4552      4550      4553
      4553      4554      4553      4555      4553      4556      4556      4557
      4556      4558      4556      4559      4559      4560      4559      4561
      4559      4562      4562      4563      4562      4564      4562      4565
      4565      4566      4565      4567      4567      4568      4567      4569
      4569      4570      4569      4571      4569      4572      4572      4573
      4572      4574      4572      4575      4575      4576      4575      4577
      4575      4578      4578      4579      4578      4580      4578      4581
      4581      4582      4581      4583      4581      4584      4584      4585
      4584      4586      4584      4587      4587      4588      4587      4589
      4587      4590      4590      4591      4590      4592      4590      4593
      4541      4542      4542      4544      4542      4543      4544      4545
      4544      4546      4544      4594      4594      4595      4594      4596
      4594      4597      4597      4598      4597      4599      4597      4600
      4600      4601      4600      4602      4600      4603      4603      4604
      4603      4605      4603      4606      4606      4607      4606      4608
      4606      4609      4609      4610      4609      4611      4609      4612
      4612      4613      4612      4614      4614      4615      4614      4616
      4616      4617      4616      4618      4616      4619      4619      4620
      4619      4621      4619      4622      4622      4623      4622      4624
      4622      4625      4625      4626      4625      4627      4625      4628
      4628      4629      4628      4630      4628      4631      4631      4632
      4631      4633      4631      4634      4634      4635      4634      4636
      4634      4637      4637      4638      4637      4639      4637      4640
      4641      4645      4641      4649      4641      4653      4645      4646
      4645      4647      4645      4648      4649      4650      4649      4651
      4649      4652      4653      4654      4653      4655      4653      4656
      4641      4642      4642      4643      4642      4644      4642      4657
      4657      4658      4657      4659      4657      4663      4664      4665
      4663      4660      4660      4664      4660      4661      4660      4662
      4665      4666      4665      4667      4665      4668      4668      4669
      4668      4676      4668      4670      4676      4677      4676      4678
      4676      4679      4670      4671      4671      4673      4671      4672
      4673      4674      4673      4675      4673      4685      4685      4686
      4685      4687      4685      4688      4688      4689      4688      4690
      4688      4691      4691      4692      4691      4693      4691      4694
      4694      4695      4694      4696      4694      4697      4697      4698
      4697      4699      4697      4700      4700      4701      4700      4702
      4700      4703      4703      4704      4703      4705      4705      4706
      4705      4707      4707      4708      4707      4709      4707      4710
      4710      4711      4710      4712      4710      4713      4713      4714
      4713      4715      4713      4716      4716      4717      4716      4718
      4716      4719      4719      4720      4719      4721      4719      4722
      4722      4723      4722      4724      4722      4725      4725      4726
      4725      4727      4725      4728      4728      4729      4728      4730
      4728      4731      4679      4680      4680      4682      4680      4681
      4682      4683      4682      4684      4682      4732      4732      4733
      4732      4734      4732      4735      4735      4736      4735      4737
      4735      4738      4738      4739      4738      4740      4738      4741
      4741      4742      4741      4743      4741      4744      4744      4745
      4744      4746      4744      4747      4747      4748      4747      4749
      4747      4750      4750      4751      4750      4752      4752      4753
      4752      4754      4754      4755      4754      4756      4754      4757
      4757      4758      4757      4759      4757      4760      4760      4761
      4760      4762      4760      4763      4763      4764      4763      4765
      4763      4766      4766      4767      4766      4768      4766      4769
      4769      4770      4769      4771      4769      4772      4772      4773
      4772      4774      4772      4775      4775      4776      4775      4777
      4775      4778      4779      4783      4779      4787      4779      4791
      4783      4784      4783      4785      4783      4786      4787      4788
      4787      4789      4787      4790      4791      4792      4791      4793
      4791      4794      4779      4780      4780      4781      4780      4782
      4780      4795      4795      4796      4795      4797      4795      4801
      4802      4803      4801      4798      4798      4802      4798      4799
      4798      4800      4803      4804      4803      4805      4803      4806
      4806      4807      4806      4814      4806      4808      4814      4815
      4814      4816      4814      4817      4808      4809      4809      4811
      4809      4810      4811      4812      4811      4813      4811      4823
      4823      4824      4823      4825      4823      4826      4826      4827
      4826      4828      4826      4829      4829      4830      4829      4831
      4829      4832      4832      4833      4832      4834      4832      4835
      4835      4836      4835      4837      4835      4838      4838      4839
      4838      4840      4838      4841      4841      4842      4841      4843
      4843      4844      4843      4845      4845      4846      4845      4847
      4845      4848      4848      4849      4848      4850      4848      4851
      4851      4852      4851      4853      4851      4854      4854      4855
      4854      4856      4854      4857      4857      4858      4857      4859
      4857      4860      4860      4861      4860      4862      4860      4863
      4863      4864      4863      4865      4863      4866      4866      4867
      4866      4868      4866      4869      4817      4818      4818      4820
      4818      4819      4820      4821      4820      4822      4820      4870
      4870      4871      4870      4872      4870      4873      4873      4874
      4873      4875      4873      4876      4876      4877      4876      4878
      4876      4879      4879      4880      4879      4881      4879      4882
      4882      4883      4882      4884      4882      4885      4885      4886
      4885      4887      4885      4888      4888      4889      4888      4890
      4890      4891      4890      4892      4892      4893      4892      4894
      4892      4895      4895      4896      4895      4897      4895      4898
      4898      4899      4898      4900      4898      4901      4901      4902
      4901      4903      4901      4904      4904      4905      4904      4906
      4904      4907      4907      4908      4907      4909      4907      4910
      4910      4911      4910      4912      4910      4913      4913      4914
      4913      4915      4913      4916      4917      4921      4917      4925
      4917      4929      4921      4922      4921      4923      4921      4924
      4925      4926      4925      4927      4925      4928      4929      4930
      4929      4931      4929      4932      4917      4918      4918      4919
      4918      4920      4918      4933      4933      4934      4933      4935
      4933      4939      4940      4941      4939      4936      4936      4940
      4936      4937      4936      4938      4941      4942      4941      4943
      4941      4944      4944      4945      4944      4952      4944      4946
      4952      4953      4952      4954      4952      4955      4946      4947
      4947      4949      4947      4948      4949      4950      4949      4951
      4949      4961      4961      4962      4961      4963      4961      4964
      4964      4965      4964      4966      4964      4967      4967      4968
      4967      4969      4967      4970      4970      4971      4970      4972
      4970      4973      4973      4974      4973      4975      4973      4976
      4976      4977      4976      4978      4976      4979      4979      4980
      4979      4981      4981      4982      4981      4983      4983      4984
      4983      4985      4983      4986      4986      4987      4986      4988
      4986      4989      4989      4990      4989      4991      4989      4992
      4992      4993      4992      4994      4992      4995      4995      4996
      4995      4997      4995      4998      4998      4999      4998      5000
      4998      5001      5001      5002      5001      5003      5001      5004
      5004      5005      5004      5006      5004      5007      4955      4956
      4956      4958      4956      4957      4958      4959      4958      4960
      4958      5008      5008      5009      5008      5010      5008      5011
      5011      5012      5011      5013      5011      5014      5014      5015
      5014      5016      5014      5017      5017      5018      5017      5019
      5017      5020      5020      5021      5020      5022      5020      5023
      5023      5024      5023      5025      5023      5026      5026      5027
      5026      5028      5028      5029      5028      5030      5030      5031
      5030      5032      5030      5033      5033      5034      5033      5035
      5033      5036      5036      5037      5036      5038      5036      5039
      5039      5040      5039      5041      5039      5042      5042      5043
      5042      5044      5042      5045      5045      5046      5045      5047
      5045      5048      5048      5049      5048      5050      5048      5051
      5051      5052      5051      5053      5051      5054      5055      5059
      5055      5063      5055      5067      5059      5060      5059      5061
      5059      5062      5063      5064      5063      5065      5063      5066
      5067      5068      5067      5069      5067      5070      5055      5056
      5056      5057      5056      5058      5056      5071      5071      5072
      5071      5073      5071      5077      5078      5079      5077      5074
      5074      5078      5074      5075      5074      5076      5079      5080
      5079      5081      5079      5082      5082      5083      5082      5090
      5082      5084      5090      5091      5090      5092      5090      5093
      5084      5085      5085      5087      5085      5086      5087      5088
      5087      5089      5087      5099      5099      5100      5099      5101
      5099      5102      5102      5103      5102      5104      5102      5105
      5105      5106      5105      5107      5105      5108      5108      5109
      5108      5110      5108      5111      5111      5112      5111      5113
      5111      5114      5114      5115      5114      5116      5114      5117
      5117      5118      5117      5119      5119      5120      5119      5121
      5121      5122      5121      5123      5121      5124      5124      5125
      5124      5126      5124      5127      5127      5128      5127      5129
      5127      5130      5130      5131      5130      5132      5130      5133
      5133      5134      5133      5135      5133      5136      5136      5137
      5136      5138      5136      5139      5139      5140      5139      5141
      5139      5142      5142      5143      5142      5144      5142      5145
      5093      5094      5094      5096      5094      5095      5096      5097
      5096      5098      5096      5146      5146      5147      5146      5148
      5146      5149      5149      5150      5149      5151      5149      5152
      5152      5153      5152      5154      5152      5155      5155      5156
      5155      5157      5155      5158      5158      5159      5158      5160
      5158      5161      5161      5162      5161      5163      5161      5164
      5164      5165      5164      5166      5166      5167      5166      5168
      5168      5169      5168      5170      5168      5171      5171      5172
      5171      5173      5171      5174      5174      5175      5174      5176
      5174      5177      5177      5178      5177      5179      5177      5180
      5180      5181      5180      5182      5180      5183      5183      5184
      5183      5185      5183      5186      5186      5187      5186      5188
      5186      5189      5189      5190      5189      5191      5189      5192
      5193      5197      5193      5201      5193      5205      5197      5198
      5197      5199      5197      5200      5201      5202      5201      5203
      5201      5204      5205      5206      5205      5207      5205      5208
      5193      5194      5194      5195      5194      5196      5194      5209
      5209      5210      5209      5211      5209      5215      5216      5217
      5215      5212      5212      5216      5212      5213      5212      5214
      5217      5218      5217      5219      5217      5220      5220      5221
      5220      5228      5220      5222      5228      5229      5228      5230
      5228      5231      5222      5223      5223      5225      5223      5224
      5225      5226      5225      5227      5225      5237      5237      5238
      5237      5239      5237      5240      5240      5241      5240      5242
      5240      5243      5243      5244      5243      5245      5243      5246
      5246      5247      5246      5248      5246      5249      5249      5250
      5249      5251      5249      5252      5252      5253      5252      5254
      5252      5255      5255      5256      5255      5257      5257      5258
      5257      5259      5259      5260      5259      5261      5259      5262
      5262      5263      5262      5264      5262      5265      5265      5266
      5265      5267      5265      5268      5268      5269      5268      5270
      5268      5271      5271      5272      5271      5273      5271      5274
      5274      5275      5274      5276      5274      5277      5277      5278
      5277      5279      5277      5280      5280      5281      5280      5282
      5280      5283      5231      5232      5232      5234      5232      5233
      5234      5235      5234      5236      5234      5284      5284      5285
      5284      5286      5284      5287      5287      5288      5287      5289
      5287      5290      5290      5291      5290      5292      5290      5293
      5293      5294      5293      5295      5293      5296      5296      5297
      5296      5298      5296      5299      5299      5300      5299      5301
      5299      5302      5302      5303      5302      5304      5304      5305
      5304      5306      5306      5307      5306      5308      5306      5309
      5309      5310      5309      5311      5309      5312      5312      5313
      5312      5314      5312      5315      5315      5316      5315      5317
      5315      5318      5318      5319      5318      5320      5318      5321
      5321      5322      5321      5323      5321      5324      5324      5325
      5324      5326      5324      5327      5327      5328      5327      5329
      5327      5330      5331      5335      5331      5339      5331      5343
      5335      5336      5335      5337      5335      5338      5339      5340
      5339      5341      5339      5342      5343      5344      5343      5345
      5343      5346      5331      5332      5332      5333      5332      5334
      5332      5347      5347      5348      5347      5349      5347      5353
      5354      5355      5353      5350      5350      5354      5350      5351
      5350      5352      5355      5356      5355      5357      5355      5358
      5358      5359      5358      5366      5358      5360      5366      5367
      5366      5368      5366      5369      5360      5361      5361      5363
      5361      5362      5363      5364      5363      5365      5363      5375
      5375      5376      5375      5377      5375      5378      5378      5379
      5378      5380      5378      5381      5381      5382      5381      5383
      5381      5384      5384      5385      5384      5386      5384      5387
      5387      5388      5387      5389      5387      5390      5390      5391
      5390      5392      5390      5393      5393      5394      5393      5395
      5395      5396      5395      5397      5397      5398      5397      5399
      5397      5400      5400      5401      5400      5402      5400      5403
      5403      5404      5403      5405      5403      5406      5406      5407
      5406      5408      5406      5409      5409      5410      5409      5411
      5409      5412      5412      5413      5412      5414      5412      5415
      5415      5416      5415      5417      5415      5418      5418      5419
      5418      5420      5418      5421      5369      5370      5370      5372
      5370      5371      5372      5373      5372      5374      5372      5422
      5422      5423      5422      5424      5422      5425      5425      5426
      5425      5427      5425      5428      5428      5429      5428      5430
      5428      5431      5431      5432      5431      5433      5431      5434
      5434      5435      5434      5436      5434      5437      5437      5438
      5437      5439      5437      5440      5440      5441      5440      5442
      5442      5443      5442      5444      5444      5445      5444      5446
      5444      5447      5447      5448      5447      5449      5447      5450
      5450      5451      5450      5452      5450      5453      5453      5454
      5453      5455      5453      5456      5456      5457      5456      5458
      5456      5459      5459      5460      5459      5461      5459      5462
      5462      5463      5462      5464      5462      5465      5465      5466
      5465      5467      5465      5468      5469      5473      5469      5477
      5469      5481      5473      5474      5473      5475      5473      5476
      5477      5478      5477      5479      5477      5480      5481      5482
      5481      5483      5481      5484      5469      5470      5470      5471
      5470      5472      5470      5485      5485      5486      5485      5487
      5485      5491      5492      5493      5491      5488      5488      5492
      5488      5489      5488      5490      5493      5494      5493      5495
      5493      5496      5496      5497      5496      5504      5496      5498
      5504      5505      5504      5506      5504      5507      5498      5499
      5499      5501      5499      5500      5501      5502      5501      5503
      5501      5513      5513      5514      5513      5515      5513      5516
      5516      5517      5516      5518      5516      5519      5519      5520
      5519      5521      5519      5522      5522      5523      5522      5524
      5522      5525      5525      5526      5525      5527      5525      5528
      5528      5529      5528      5530      5528      5531      5531      5532
      5531      5533      5533      5534      5533      5535      5535      5536
      5535      5537      5535      5538      5538      5539      5538      5540
      5538      5541      5541      5542      5541      5543      5541      5544
      5544      5545      5544      5546      5544      5547      5547      5548
      5547      5549      5547      5550      5550      5551      5550      5552
      5550      5553      5553      5554      5553      5555      5553      5556
      5556      5557      5556      5558      5556      5559      5507      5508
      5508      5510      5508      5509      5510      5511      5510      5512
      5510      5560      5560      5561      5560      5562      5560      5563
      5563      5564      5563      5565      5563      5566      5566      5567
      5566      5568      5566      5569      5569      5570      5569      5571
      5569      5572      5572      5573      5572      5574      5572      5575
      5575      5576      5575      5577      5575      5578      5578      5579
      5578      5580      5580      5581      5580      5582      5582      5583
      5582      5584      5582      5585      5585      5586      5585      5587
      5585      5588      5588      5589      5588      5590      5588      5591
      5591      5592      5591      5593      5591      5594      5594      5595
      5594      5596      5594      5597      5597      5598      5597      5599
      5597      5600      5600      5601      5600      5602      5600      5603
      5603      5604      5603      5605      5603      5606      5607      5611
      5607      5615      5607      5619      5611      5612      5611      5613
      5611      5614      5615      5616      5615      5617      5615      5618
      5619      5620      5619      5621      5619      5622      5607      5608
      5608      5609      5608      5610      5608      5623      5623      5624
      5623      5625      5623      5629      5630      5631      5629      5626
      5626      5630      5626      5627      5626      5628      5631      5632
      5631      5633      5631      5634      5634      5635      5634      5642
      5634      5636      5642      5643      5642      5644      5642      5645
      5636      5637      5637      5639      5637      5638      5639      5640
      5639      5641      5639      5651      5651      5652      5651      5653
      5651      5654      5654      5655      5654      5656      5654      5657
      5657      5658      5657      5659      5657      5660      5660      5661
      5660      5662      5660      5663      5663      5664      5663      5665
      5663      5666      5666      5667      5666      5668      5666      5669
      5669      5670      5669      5671      5671      5672      5671      5673
      5673      5674      5673      5675      5673      5676      5676      5677
      5676      5678      5676      5679      5679      5680      5679      5681
      5679      5682      5682      5683      5682      5684      5682      5685
      5685      5686      5685      5687      5685      5688      5688      5689
      5688      5690      5688      5691      5691      5692      5691      5693
      5691      5694      5694      5695      5694      5696      5694      5697
      5645      5646      5646      5648      5646      5647      5648      5649
      5648      5650      5648      5698      5698      5699      5698      5700
      5698      5701      5701      5702      5701      5703      5701      5704
      5704      5705      5704      5706      5704      5707      5707      5708
      5707      5709      5707      5710      5710      5711      5710      5712
      5710      5713      5713      5714      5713      5715      5713      5716
      5716      5717      5716      5718      5718      5719      5718      5720
      5720      5721      5720      5722      5720      5723      5723      5724
      5723      5725      5723      5726      5726      5727      5726      5728
      5726      5729      5729      5730      5729      5731      5729      5732
      5732      5733      5732      5734      5732      5735      5735      5736
      5735      5737      5735      5738      5738      5739      5738      5740
      5738      5741      5741      5742      5741      5743      5741      5744
      5745      5749      5745      5753      5745      5757      5749      5750
      5749      5751      5749      5752      5753      5754      5753      5755
      5753      5756      5757      5758      5757      5759      5757      5760
      5745      5746      5746      5747      5746      5748      5746      5761
      5761      5762      5761      5763      5761      5767      5768      5769
      5767      5764      5764      5768      5764      5765      5764      5766
      5769      5770      5769      5771      5769      5772      5772      5773
      5772      5780      5772      5774      5780      5781      5780      5782
      5780      5783      5774      5775      5775      5777      5775      5776
      5777      5778      5777      5779      5777      5789      5789      5790
      5789      5791      5789      5792      5792      5793      5792      5794
      5792      5795      5795      5796      5795      5797      5795      5798
      5798      5799      5798      5800      5798      5801      5801      5802
      5801      5803      5801      5804      5804      5805      5804      5806
      5804      5807      5807      5808      5807      5809      5809      5810
      5809      5811      5811      5812      5811      5813      5811      5814
      5814      5815      5814      5816      5814      5817      5817      5818
      5817      5819      5817      5820      5820      5821      5820      5822
      5820      5823      5823      5824      5823      5825      5823      5826
      5826      5827      5826      5828      5826      5829      5829      5830
      5829      5831      5829      5832      5832      5833      5832      5834
      5832      5835      5783      5784      5784      5786      5784      5785
      5786      5787      5786      5788      5786      5836      5836      5837
      5836      5838      5836      5839      5839      5840      5839      5841
      5839      5842      5842      5843      5842      5844      5842      5845
      5845      5846      5845      5847      5845      5848      5848      5849
      5848      5850      5848      5851      5851      5852      5851      5853
      5851      5854      5854      5855      5854      5856      5856      5857
      5856      5858      5858      5859      5858      5860      5858      5861
      5861      5862      5861      5863      5861      5864      5864      5865
      5864      5866      5864      5867      5867      5868      5867      5869
      5867      5870      5870      5871      5870      5872      5870      5873
      5873      5874      5873      5875      5873      5876      5876      5877
      5876      5878      5876      5879      5879      5880      5879      5881
      5879      5882      5883      5887      5883      5891      5883      5895
      5887      5888      5887      5889      5887      5890      5891      5892
      5891      5893      5891      5894      5895      5896      5895      5897
      5895      5898      5883      5884      5884      5885      5884      5886
      5884      5899      5899      5900      5899      5901      5899      5905
      5906      5907      5905      5902      5902      5906      5902      5903
      5902      5904      5907      5908      5907      5909      5907      5910
      5910      5911      5910      5918      5910      5912      5918      5919
      5918      5920      5918      5921      5912      5913      5913      5915
      5913      5914      5915      5916      5915      5917      5915      5927
      5927      5928      5927      5929      5927      5930      5930      5931
      5930      5932      5930      5933      5933      5934      5933      5935
      5933      5936      5936      5937      5936      5938      5936      5939
      5939      5940      5939      5941      5939      5942      5942      5943
      5942      5944      5942      5945      5945      5946      5945      5947
      5947      5948      5947      5949      5949      5950      5949      5951
      5949      5952      5952      5953      5952      5954      5952      5955
      5955      5956      5955      5957      5955      5958      5958      5959
      5958      5960      5958      5961      5961      5962      5961      5963
      5961      5964      5964      5965      5964      5966      5964      5967
      5967      5968      5967      5969      5967      5970      5970      5971
      5970      5972      5970      5973      5921      5922      5922      5924
      5922      5923      5924      5925      5924      5926      5924      5974
      5974      5975      5974      5976      5974      5977      5977      5978
      5977      5979      5977      5980      5980      5981      5980      5982
      5980      5983      5983      5984      5983      5985      5983      5986
      5986      5987      5986      5988      5986      5989      5989      5990
      5989      5991      5989      5992      5992      5993      5992      5994
      5994      5995      5994      5996      5996      5997      5996      5998
      5996      5999      5999      6000      5999      6001      5999      6002
      6002      6003      6002      6004      6002      6005      6005      6006
      6005      6007      6005      6008      6008      6009      6008      6010
      6008      6011      6011      6012      6011      6013      6011      6014
      6014      6015      6014      6016      6014      6017      6017      6018
      6017      6019      6017      6020      6021      6025      6021      6029
      6021      6033      6025      6026      6025      6027      6025      6028
      6029      6030      6029      6031      6029      6032      6033      6034
      6033      6035      6033      6036      6021      6022      6022      6023
      6022      6024      6022      6037      6037      6038      6037      6039
      6037      6043      6044      6045      6043      6040      6040      6044
      6040      6041      6040      6042      6045      6046      6045      6047
      6045      6048      6048      6049      6048      6056      6048      6050
      6056      6057      6056      6058      6056      6059      6050      6051
      6051      6053      6051      6052      6053      6054      6053      6055
      6053      6065      6065      6066      6065      6067      6065      6068
      6068      6069      6068      6070      6068      6071      6071      6072
      6071      6073      6071      6074      6074      6075      6074      6076
      6074      6077      6077      6078      6077      6079      6077      6080
      6080      6081      6080      6082      6080      6083      6083      6084
      6083      6085      6085      6086      6085      6087      6087      6088
      6087      6089      6087      6090      6090      6091      6090      6092
      6090      6093      6093      6094      6093      6095      6093      6096
      6096      6097      6096      6098      6096      6099      6099      6100
      6099      6101      6099      6102      6102      6103      6102      6104
      6102      6105      6105      6106      6105      6107      6105      6108
      6108      6109      6108      6110      6108      6111      6059      6060
      6060      6062      6060      6061      6062      6063      6062      6064
      6062      6112      6112      6113      6112      6114      6112      6115
      6115      6116      6115      6117      6115      6118      6118      6119
      6118      6120      6118      6121      6121      6122      6121      6123
      6121      6124      6124      6125      6124      6126      6124      6127
      6127      6128      6127      6129      6127      6130      6130      6131
      6130      6132      6132      6133      6132      6134      6134      6135
      6134      6136      6134      6137      6137      6138      6137      6139
      6137      6140      6140      6141      6140      6142      6140      6143
      6143      6144      6143      6145      6143      6146      6146      6147
      6146      6148      6146      6149      6149      6150      6149      6151
      6149      6152      6152      6153      6152      6154      6152      6155
      6155      6156      6155      6157      6155      6158      6159      6163
      6159      6167      6159      6171      6163      6164      6163      6165
      6163      6166      6167      6168      6167      6169      6167      6170
      6171      6172      6171      6173      6171      6174      6159      6160
      6160      6161      6160      6162      6160      6175      6175      6176
      6175      6177      6175      6181      6182      6183      6181      6178
      6178      6182      6178      6179      6178      6180      6183      6184
      6183      6185      6183      6186      6186      6187      6186      6194
      6186      6188      6194      6195      6194      6196      6194      6197
      6188      6189      6189      6191      6189      6190      6191      6192
      6191      6193      6191      6203      6203      6204      6203      6205
      6203      6206      6206      6207      6206      6208      6206      6209
      6209      6210      6209      6211      6209      6212      6212      6213
      6212      6214      6212      6215      6215      6216      6215      6217
      6215      6218      6218      6219      6218      6220      6218      6221
      6221      6222      6221      6223      6223      6224      6223      6225
      6225      6226      6225      6227      6225      6228      6228      6229
      6228      6230      6228      6231      6231      6232      6231      6233
      6231      6234      6234      6235      6234      6236      6234      6237
      6237      6238      6237      6239      6237      6240      6240      6241
      6240      6242      6240      6243      6243      6244      6243      6245
      6243      6246      6246      6247      6246      6248      6246      6249
      6197      6198      6198      6200      6198      6199      6200      6201
      6200      6202      6200      6250      6250      6251      6250      6252
      6250      6253      6253      6254      6253      6255      6253      6256
      6256      6257      6256      6258      6256      6259      6259      6260
      6259      6261      6259      6262      6262      6263      6262      6264
      6262      6265      6265      6266      6265      6267      6265      6268
      6268      6269      6268      6270      6270      6271      6270      6272
      6272      6273      6272      6274      6272      6275      6275      6276
      6275      6277      6275      6278      6278      6279      6278      6280
      6278      6281      6281      6282      6281      6283      6281      6284
      6284      6285      6284      6286      6284      6287      6287      6288
      6287      6289      6287      6290      6290      6291      6290      6292
      6290      6293      6293      6294      6293      6295      6293      6296
      6297      6301      6297      6305      6297      6309      6301      6302
      6301      6303      6301      6304      6305      6306      6305      6307
      6305      6308      6309      6310      6309      6311      6309      6312
      6297      6298      6298      6299      6298      6300      6298      6313
      6313      6314      6313      6315      6313      6319      6320      6321
      6319      6316      6316      6320      6316      6317      6316      6318
      6321      6322      6321      6323      6321      6324      6324      6325
      6324      6332      6324      6326      6332      6333      6332      6334
      6332      6335      6326      6327      6327      6329      6327      6328
      6329      6330      6329      6331      6329      6341      6341      6342
      6341      6343      6341      6344      6344      6345      6344      6346
      6344      6347      6347      6348      6347      6349      6347      6350
      6350      6351      6350      6352      6350      6353      6353      6354
      6353      6355      6353      6356      6356      6357      6356      6358
      6356      6359      6359      6360      6359      6361      6361      6362
      6361      6363      6363      6364      6363      6365      6363      6366
      6366      6367      6366      6368      6366      6369      6369      6370
      6369      6371      6369      6372      6372      6373      6372      6374
      6372      6375      6375      6376      6375      6377      6375      6378
      6378      6379      6378      6380      6378      6381      6381      6382
      6381      6383      6381      6384      6384      6385      6384      6386
      6384      6387      6335      6336      6336      6338      6336      6337
      6338      6339      6338      6340      6338      6388      6388      6389
      6388      6390      6388      6391      6391      6392      6391      6393
      6391      6394      6394      6395      6394      6396      6394      6397
      6397      6398      6397      6399      6397      6400      6400      6401
      6400      6402      6400      6403      6403      6404      6403      6405
      6403      6406      6406      6407      6406      6408      6408      6409
      6408      6410      6410      6411      6410      6412      6410      6413
      6413      6414      6413      6415      6413      6416      6416      6417
      6416      6418      6416      6419      6419      6420      6419      6421
      6419      6422      6422      6423      6422      6424      6422      6425
      6425      6426      6425      6427      6425      6428      6428      6429
      6428      6430      6428      6431      6431      6432      6431      6433
      6431      6434      6435      6439      6435      6443      6435      6447
      6439      6440      6439      6441      6439      6442      6443      6444
      6443      6445      6443      6446      6447      6448      6447      6449
      6447      6450      6435      6436      6436      6437      6436      6438
      6436      6451      6451      6452      6451      6453      6451      6457
      6458      6459      6457      6454      6454      6458      6454      6455
      6454      6456      6459      6460      6459      6461      6459      6462
      6462      6463      6462      6470      6462      6464      6470      6471
      6470      6472      6470      6473      6464      6465      6465      6467
      6465      6466      6467      6468      6467      6469      6467      6479
      6479      6480      6479      6481      6479      6482      6482      6483
      6482      6484      6482      6485      6485      6486      6485      6487
      6485      6488      6488      6489      6488      6490      6488      6491
      6491      6492      6491      6493      6491      6494      6494      6495
      6494      6496      6494      6497      6497      6498      6497      6499
      6499      6500      6499      6501      6501      6502      6501      6503
      6501      6504      6504      6505      6504      6506      6504      6507
      6507      6508      6507      6509      6507      6510      6510      6511
      6510      6512      6510      6513      6513      6514      6513      6515
      6513      6516      6516      6517      6516      6518      6516      6519
      6519      6520      6519      6521      6519      6522      6522      6523
      6522      6524      6522      6525      6473      6474      6474      6476
      6474      6475      6476      6477      6476      6478      6476      6526
      6526      6527      6526      6528      6526      6529      6529      6530
      6529      6531      6529      6532      6532      6533      6532      6534
      6532      6535      6535      6536      6535      6537      6535      6538
      6538      6539      6538      6540      6538      6541      6541      6542
      6541      6543      6541      6544      6544      6545      6544      6546
      6546      6547      6546      6548      6548      6549      6548      6550
      6548      6551      6551      6552      6551      6553      6551      6554
      6554      6555      6554      6556      6554      6557      6557      6558
      6557      6559      6557      6560      6560      6561      6560      6562
      6560      6563      6563      6564      6563      6565      6563      6566
      6566      6567      6566      6568      6566      6569      6569      6570
      6569      6571      6569      6572      6573      6577      6573      6581
      6573      6585      6577      6578      6577      6579      6577      6580
      6581      6582      6581      6583      6581      6584      6585      6586
      6585      6587      6585      6588      6573      6574      6574      6575
      6574      6576      6574      6589      6589      6590      6589      6591
      6589      6595      6596      6597      6595      6592      6592      6596
      6592      6593      6592      6594      6597      6598      6597      6599
      6597      6600      6600      6601      6600      6608      6600      6602
      6608      6609      6608      6610      6608      6611      6602      6603
      6603      6605      6603      6604      6605      6606      6605      6607
      6605      6617      6617      6618      6617      6619      6617      6620
      6620      6621      6620      6622      6620      6623      6623      6624
      6623      6625      6623      6626      6626      6627      6626      6628
      6626      6629      6629      6630      6629      6631      6629      6632
      6632      6633      6632      6634      6632      6635      6635      6636
      6635      6637      6637      6638      6637      6639      6639      6640
      6639      6641      6639      6642      6642      6643      6642      6644
      6642      6645      6645      6646      6645      6647      6645      6648
      6648      6649      6648      6650      6648      6651      6651      6652
      6651      6653      6651      6654      6654      6655      6654      6656
      6654      6657      6657      6658      6657      6659      6657      6660
      6660      6661      6660      6662      6660      6663      6611      6612
      6612      6614      6612      6613      6614      6615      6614      6616
      6614      6664      6664      6665      6664      6666      6664      6667
      6667      6668      6667      6669      6667      6670      6670      6671
      6670      6672      6670      6673      6673      6674      6673      6675
      6673      6676      6676      6677      6676      6678      6676      6679
      6679      6680      6679      6681      6679      6682      6682      6683
      6682      6684      6684      6685      6684      6686      6686      6687
      6686      6688      6686      6689      6689      6690      6689      6691
      6689      6692      6692      6693      6692      6694      6692      6695
      6695      6696      6695      6697      6695      6698      6698      6699
      6698      6700      6698      6701      6701      6702      6701      6703
      6701      6704      6704      6705      6704      6706      6704      6707
      6707      6708      6707      6709      6707      6710      6711      6715
      6711      6719      6711      6723      6715      6716      6715      6717
      6715      6718      6719      6720      6719      6721      6719      6722
      6723      6724      6723      6725      6723      6726      6711      6712
      6712      6713      6712      6714      6712      6727      6727      6728
      6727      6729      6727      6733      6734      6735      6733      6730
      6730      6734      6730      6731      6730      6732      6735      6736
      6735      6737      6735      6738      6738      6739      6738      6746
      6738      6740      6746      6747      6746      6748      6746      6749
      6740      6741      6741      6743      6741      6742      6743      6744
      6743      6745      6743      6755      6755      6756      6755      6757
      6755      6758      6758      6759      6758      6760      6758      6761
      6761      6762      6761      6763      6761      6764      6764      6765
      6764      6766      6764      6767      6767      6768      6767      6769
      6767      6770      6770      6771      6770      6772      6770      6773
      6773      6774      6773      6775      6775      6776      6775      6777
      6777      6778      6777      6779      6777      6780      6780      6781
      6780      6782      6780      6783      6783      6784      6783      6785
      6783      6786      6786      6787      6786      6788      6786      6789
      6789      6790      6789      6791      6789      6792      6792      6793
      6792      6794      6792      6795      6795      6796      6795      6797
      6795      6798      6798      6799      6798      6800      6798      6801
      6749      6750      6750      6752      6750      6751      6752      6753
      6752      6754      6752      6802      6802      6803      6802      6804
      6802      6805      6805      6806      6805      6807      6805      6808
      6808      6809      6808      6810      6808      6811      6811      6812
      6811      6813      6811      6814      6814      6815      6814      6816
      6814      6817      6817      6818      6817      6819      6817      6820
      6820      6821      6820      6822      6822      6823      6822      6824
      6824      6825      6824      6826      6824      6827      6827      6828
      6827      6829      6827      6830      6830      6831      6830      6832
      6830      6833      6833      6834      6833      6835      6833      6836
      6836      6837      6836      6838      6836      6839      6839      6840
      6839      6841      6839      6842      6842      6843      6842      6844
      6842      6845      6845      6846      6845      6847      6845      6848
      6849      6853      6849      6857      6849      6861      6853      6854
      6853      6855      6853      6856      6857      6858      6857      6859
      6857      6860      6861      6862      6861      6863      6861      6864
      6849      6850      6850      6851      6850      6852      6850      6865
      6865      6866      6865      6867      6865      6871      6872      6873
      6871      6868      6868      6872      6868      6869      6868      6870
      6873      6874      6873      6875      6873      6876      6876      6877
      6876      6884      6876      6878      6884      6885      6884      6886
      6884      6887      6878      6879      6879      6881      6879      6880
      6881      6882      6881      6883      6881      6893      6893      6894
      6893      6895      6893      6896      6896      6897      6896      6898
      6896      6899      6899      6900      6899      6901      6899      6902
      6902      6903      6902      6904      6902      6905      6905      6906
      6905      6907      6905      6908      6908      6909      6908      6910
      6908      6911      6911      6912      6911      6913      6913      6914
      6913      6915      6915      6916      6915      6917      6915      6918
      6918      6919      6918      6920      6918      6921      6921      6922
      6921      6923      6921      6924      6924      6925      6924      6926
      6924      6927      6927      6928      6927      6929      6927      6930
      6930      6931      6930      6932      6930      6933      6933      6934
      6933      6935      6933      6936      6936      6937      6936      6938
      6936      6939      6887      6888      6888      6890      6888      6889
      6890      6891      6890      6892      6890      6940      6940      6941
      6940      6942      6940      6943      6943      6944      6943      6945
      6943      6946      6946      6947      6946      6948      6946      6949
      6949      6950      6949      6951      6949      6952      6952      6953
      6952      6954      6952      6955      6955      6956      6955      6957
      6955      6958      6958      6959      6958      6960      6960      6961
      6960      6962      6962      6963      6962      6964      6962      6965
      6965      6966      6965      6967      6965      6968      6968      6969
      6968      6970      6968      6971      6971      6972      6971      6973
      6971      6974      6974      6975      6974      6976      6974      6977
      6977      6978      6977      6979      6977      6980      6980      6981
      6980      6982      6980      6983      6983      6984      6983      6985
      6983      6986      6987      6991      6987      6995      6987      6999
      6991      6992      6991      6993      6991      6994      6995      6996
      6995      6997      6995      6998      6999      7000      6999      7001
      6999      7002      6987      6988      6988      6989      6988      6990
      6988      7003      7003      7004      7003      7005      7003      7009
      7010      7011      7009      7006      7006      7010      7006      7007
      7006      7008      7011      7012      7011      7013      7011      7014
      7014      7015      7014      7022      7014      7016      7022      7023
      7022      7024      7022      7025      7016      7017      7017      7019
      7017      7018      7019      7020      7019      7021      7019      7031
      7031      7032      7031      7033      7031      7034      7034      7035
      7034      7036      7034      7037      7037      7038      7037      7039
      7037      7040      7040      7041      7040      7042      7040      7043
      7043      7044      7043      7045      7043      7046      7046      7047
      7046      7048      7046      7049      7049      7050      7049      7051
      7051      7052      7051      7053      7053      7054      7053      7055
      7053      7056      7056      7057      7056      7058      7056      7059
      7059      7060      7059      7061      7059      7062      7062      7063
      7062      7064      7062      7065      7065      7066      7065      7067
      7065      7068      7068      7069      7068      7070      7068      7071
      7071      7072      7071      7073      7071      7074      7074      7075
      7074      7076      7074      7077      7025      7026      7026      7028
      7026      7027      7028      7029      7028      7030      7028      7078
      7078      7079      7078      7080      7078      7081      7081      7082
      7081      7083      7081      7084      7084      7085      7084      7086
      7084      7087      7087      7088      7087      7089      7087      7090
      7090      7091      7090      7092      7090      7093      7093      7094
      7093      7095      7093      7096      7096      7097      7096      7098
      7098      7099      7098      7100      7100      7101      7100      7102
      7100      7103      7103      7104      7103      7105      7103      7106
      7106      7107      7106      7108      7106      7109      7109      7110
      7109      7111      7109      7112      7112      7113      7112      7114
      7112      7115      7115      7116      7115      7117      7115      7118
      7118      7119      7118      7120      7118      7121      7121      7122
      7121      7123      7121      7124      7125      7129      7125      7133
      7125      7137      7129      7130      7129      7131      7129      7132
      7133      7134      7133      7135      7133      7136      7137      7138
      7137      7139      7137      7140      7125      7126      7126      7127
      7126      7128      7126      7141      7141      7142      7141      7143
      7141      7147      7148      7149      7147      7144      7144      7148
      7144      7145      7144      7146      7149      7150      7149      7151
      7149      7152      7152      7153      7152      7160      7152      7154
      7160      7161      7160      7162      7160      7163      7154      7155
      7155      7157      7155      7156      7157      7158      7157      7159
      7157      7169      7169      7170      7169      7171      7169      7172
      7172      7173      7172      7174      7172      7175      7175      7176
      7175      7177      7175      7178      7178      7179      7178      7180
      7178      7181      7181      7182      7181      7183      7181      7184
      7184      7185      7184      7186      7184      7187      7187      7188
      7187      7189      7189      7190      7189      7191      7191      7192
      7191      7193      7191      7194      7194      7195      7194      7196
      7194      7197      7197      7198      7197      7199      7197      7200
      7200      7201      7200      7202      7200      7203      7203      7204
      7203      7205      7203      7206      7206      7207      7206      7208
      7206      7209      7209      7210      7209      7211      7209      7212
      7212      7213      7212      7214      7212      7215      7163      7164
      7164      7166      7164      7165      7166      7167      7166      7168
      7166      7216      7216      7217      7216      7218      7216      7219
      7219      7220      7219      7221      7219      7222      7222      7223
      7222      7224      7222      7225      7225      7226      7225      7227
      7225      7228      7228      7229      7228      7230      7228      7231
      7231      7232      7231      7233      7231      7234      7234      7235
      7234      7236      7236      7237      7236      7238      7238      7239
      7238      7240      7238      7241      7241      7242      7241      7243
      7241      7244      7244      7245      7244      7246      7244      7247
      7247      7248      7247      7249      7247      7250      7250      7251
      7250      7252      7250      7253      7253      7254      7253      7255
      7253      7256      7256      7257      7256      7258      7256      7259
      7259      7260      7259      7261      7259      7262      7263      7267
      7263      7271      7263      7275      7267      7268      7267      7269
      7267      7270      7271      7272      7271      7273      7271      7274
      7275      7276      7275      7277      7275      7278      7263      7264
      7264      7265      7264      7266      7264      7279      7279      7280
      7279      7281      7279      7285      7286      7287      7285      7282
      7282      7286      7282      7283      7282      7284      7287      7288
      7287      7289      7287      7290      7290      7291      7290      7298
      7290      7292      7298      7299      7298      7300      7298      7301
      7292      7293      7293      7295      7293      7294      7295      7296
      7295      7297      7295      7307      7307      7308      7307      7309
      7307      7310      7310      7311      7310      7312      7310      7313
      7313      7314      7313      7315      7313      7316      7316      7317
      7316      7318      7316      7319      7319      7320      7319      7321
      7319      7322      7322      7323      7322      7324      7322      7325
      7325      7326      7325      7327      7327      7328      7327      7329
      7329      7330      7329      7331      7329      7332      7332      7333
      7332      7334      7332      7335      7335      7336      7335      7337
      7335      7338      7338      7339      7338      7340      7338      7341
      7341      7342      7341      7343      7341      7344      7344      7345
      7344      7346      7344      7347      7347      7348      7347      7349
      7347      7350      7350      7351      7350      7352      7350      7353
      7301      7302      7302      7304      7302      7303      7304      7305
      7304      7306      7304      7354      7354      7355      7354      7356
      7354      7357      7357      7358      7357      7359      7357      7360
      7360      7361      7360      7362      7360      7363      7363      7364
      7363      7365      7363      7366      7366      7367      7366      7368
      7366      7369      7369      7370      7369      7371      7369      7372
      7372      7373      7372      7374      7374      7375      7374      7376
      7376      7377      7376      7378      7376      7379      7379      7380
      7379      7381      7379      7382      7382      7383      7382      7384
      7382      7385      7385      7386      7385      7387      7385      7388
      7388      7389      7388      7390      7388      7391      7391      7392
      7391      7393      7391      7394      7394      7395      7394      7396
      7394      7397      7397      7398      7397      7399      7397      7400
      7401      7405      7401      7409      7401      7413      7405      7406
      7405      7407      7405      7408      7409      7410      7409      7411
      7409      7412      7413      7414      7413      7415      7413      7416
      7401      7402      7402      7403      7402      7404      7402      7417
      7417      7418      7417      7419      7417      7423      7424      7425
      7423      7420      7420      7424      7420      7421      7420      7422
      7425      7426      7425      7427      7425      7428      7428      7429
      7428      7436      7428      7430      7436      7437      7436      7438
      7436      7439      7430      7431      7431      7433      7431      7432
      7433      7434      7433      7435      7433      7445      7445      7446
      7445      7447      7445      7448      7448      7449      7448      7450
      7448      7451      7451      7452      7451      7453      7451      7454
      7454      7455      7454      7456      7454      7457      7457      7458
      7457      7459      7457      7460      7460      7461      7460      7462
      7460      7463      7463      7464      7463      7465      7465      7466
      7465      7467      7467      7468      7467      7469      7467      7470
      7470      7471      7470      7472      7470      7473      7473      7474
      7473      7475      7473      7476      7476      7477      7476      7478
      7476      7479      7479      7480      7479      7481      7479      7482
      7482      7483      7482      7484      7482      7485      7485      7486
      7485      7487      7485      7488      7488      7489      7488      7490
      7488      7491      7439      7440      7440      7442      7440      7441
      7442      7443      7442      7444      7442      7492      7492      7493
      7492      7494      7492      7495      7495      7496      7495      7497
      7495      7498      7498      7499      7498      7500      7498      7501
      7501      7502      7501      7503      7501      7504      7504      7505
      7504      7506      7504      7507      7507      7508      7507      7509
      7507      7510      7510      7511      7510      7512      7512      7513
      7512      7514      7514      7515      7514      7516      7514      7517
      7517      7518      7517      7519      7517      7520      7520      7521
      7520      7522      7520      7523      7523      7524      7523      7525
      7523      7526      7526      7527      7526      7528      7526      7529
      7529      7530      7529      7531      7529      7532      7532      7533
      7532      7534      7532      7535      7535      7536      7535      7537
      7535      7538      7539      7543      7539      7547      7539      7551
      7543      7544      7543      7545      7543      7546      7547      7548
      7547      7549      7547      7550      7551      7552      7551      7553
      7551      7554      7539      7540      7540      7541      7540      7542
      7540      7555      7555      7556      7555      7557      7555      7561
      7562      7563      7561      7558      7558      7562      7558      7559
      7558      7560      7563      7564      7563      7565      7563      7566
      7566      7567      7566      7574      7566      7568      7574      7575
      7574      7576      7574      7577      7568      7569      7569      7571
      7569      7570      7571      7572      7571      7573      7571      7583
      7583      7584      7583      7585      7583      7586      7586      7587
      7586      7588      7586      7589      7589      7590      7589      7591
      7589      7592      7592      7593      7592      7594      7592      7595
      7595      7596      7595      7597      7595      7598      7598      7599
      7598      7600      7598      7601      7601      7602      7601      7603
      7603      7604      7603      7605      7605      7606      7605      7607
      7605      7608      7608      7609      7608      7610      7608      7611
      7611      7612      7611      7613      7611      7614      7614      7615
      7614      7616      7614      7617      7617      7618      7617      7619
      7617      7620      7620      7621      7620      7622      7620      7623
      7623      7624      7623      7625      7623      7626      7626      7627
      7626      7628      7626      7629      7577      7578      7578      7580
      7578      7579      7580      7581      7580      7582      7580      7630
      7630      7631      7630      7632      7630      7633      7633      7634
      7633      7635      7633      7636      7636      7637      7636      7638
      7636      7639      7639      7640      7639      7641      7639      7642
      7642      7643      7642      7644      7642      7645      7645      7646
      7645      7647      7645      7648      7648      7649      7648      7650
      7650      7651      7650      7652      7652      7653      7652      7654
      7652      7655      7655      7656      7655      7657      7655      7658
      7658      7659      7658      7660      7658      7661      7661      7662
      7661      7663      7661      7664      7664      7665      7664      7666
      7664      7667      7667      7668      7667      7669      7667      7670
      7670      7671      7670      7672      7670      7673      7673      7674
      7673      7675      7673      7676      7677      7681      7677      7685
      7677      7689      7681      7682      7681      7683      7681      7684
      7685      7686      7685      7687      7685      7688      7689      7690
      7689      7691      7689      7692      7677      7678      7678      7679
      7678      7680      7678      7693      7693      7694      7693      7695
      7693      7699      7700      7701      7699      7696      7696      7700
      7696      7697      7696      7698      7701      7702      7701      7703
      7701      7704      7704      7705      7704      7712      7704      7706
      7712      7713      7712      7714      7712      7715      7706      7707
      7707      7709      7707      7708      7709      7710      7709      7711
      7709      7721      7721      7722      7721      7723      7721      7724
      7724      7725      7724      7726      7724      7727      7727      7728
      7727      7729      7727      7730      7730      7731      7730      7732
      7730      7733      7733      7734      7733      7735      7733      7736
      7736      7737      7736      7738      7736      7739      7739      7740
      7739      7741      7741      7742      7741      7743      7743      7744
      7743      7745      7743      7746      7746      7747      7746      7748
      7746      7749      7749      7750      7749      7751      7749      7752
      7752      7753      7752      7754      7752      7755      7755      7756
      7755      7757      7755      7758      7758      7759      7758      7760
      7758      7761      7761      7762      7761      7763      7761      7764
      7764      7765      7764      7766      7764      7767      7715      7716
      7716      7718      7716      7717      7718      7719      7718      7720
      7718      7768      7768      7769      7768      7770      7768      7771
      7771      7772      7771      7773      7771      7774      7774      7775
      7774      7776      7774      7777      7777      7778      7777      7779
      7777      7780      7780      7781      7780      7782      7780      7783
      7783      7784      7783      7785      7783      7786      7786      7787
      7786      7788      7788      7789      7788      7790      7790      7791
      7790      7792      7790      7793      7793      7794      7793      7795
      7793      7796      7796      7797      7796      7798      7796      7799
      7799      7800      7799      7801      7799      7802      7802      7803
      7802      7804      7802      7805      7805      7806      7805      7807
      7805      7808      7808      7809      7808      7810      7808      7811
      7811      7812      7811      7813      7811      7814      7815      7819
      7815      7823      7815      7827      7819      7820      7819      7821
      7819      7822      7823      7824      7823      7825      7823      7826
      7827      7828      7827      7829      7827      7830      7815      7816
      7816      7817      7816      7818      7816      7831      7831      7832
      7831      7833      7831      7837      7838      7839      7837      7834
      7834      7838      7834      7835      7834      7836      7839      7840
      7839      7841      7839      7842      7842      7843      7842      7850
      7842      7844      7850      7851      7850      7852      7850      7853
      7844      7845      7845      7847      7845      7846      7847      7848
      7847      7849      7847      7859      7859      7860      7859      7861
      7859      7862      7862      7863      7862      7864      7862      7865
      7865      7866      7865      7867      7865      7868      7868      7869
      7868      7870      7868      7871      7871      7872      7871      7873
      7871      7874      7874      7875      7874      7876      7874      7877
      7877      7878      7877      7879      7879      7880      7879      7881
      7881      7882      7881      7883      7881      7884      7884      7885
      7884      7886      7884      7887      7887      7888      7887      7889
      7887      7890      7890      7891      7890      7892      7890      7893
      7893      7894      7893      7895      7893      7896      7896      7897
      7896      7898      7896      7899      7899      7900      7899      7901
      7899      7902      7902      7903      7902      7904      7902      7905
      7853      7854      7854      7856      7854      7855      7856      7857
      7856      7858      7856      7906      7906      7907      7906      7908
      7906      7909      7909      7910      7909      7911      7909      7912
      7912      7913      7912      7914      7912      7915      7915      7916
      7915      7917      7915      7918      7918      7919      7918      7920
      7918      7921      7921      7922      7921      7923      7921      7924
      7924      7925      7924      7926      7926      7927      7926      7928
      7928      7929      7928      7930      7928      7931      7931      7932
      7931      7933      7931      7934      7934      7935      7934      7936
      7934      7937      7937      7938      7937      7939      7937      7940
      7940      7941      7940      7942      7940      7943      7943      7944
      7943      7945      7943      7946      7946      7947      7946      7948
      7946      7949      7949      7950      7949      7951      7949      7952
      7953      7957      7953      7961      7953      7965      7957      7958
      7957      7959      7957      7960      7961      7962      7961      7963
      7961      7964      7965      7966      7965      7967      7965      7968
      7953      7954      7954      7955      7954      7956      7954      7969
      7969      7970      7969      7971      7969      7975      7976      7977
      7975      7972      7972      7976      7972      7973      7972      7974
      7977      7978      7977      7979      7977      7980      7980      7981
      7980      7988      7980      7982      7988      7989      7988      7990
      7988      7991      7982      7983      7983      7985      7983      7984
      7985      7986      7985      7987      7985      7997      7997      7998
      7997      7999      7997      8000      8000      8001      8000      8002
      8000      8003      8003      8004      8003      8005      8003      8006
      8006      8007      8006      8008      8006      8009      8009      8010
      8009      8011      8009      8012      8012      8013      8012      8014
      8012      8015      8015      8016      8015      8017      8017      8018
      8017      8019      8019      8020      8019      8021      8019      8022
      8022      8023      8022      8024      8022      8025      8025      8026
      8025      8027      8025      8028      8028      8029      8028      8030
      8028      8031      8031      8032      8031      8033      8031      8034
      8034      8035      8034      8036      8034      8037      8037      8038
      8037      8039      8037      8040      8040      8041      8040      8042
      8040      8043      7991      7992      7992      7994      7992      7993
      7994      7995      7994      7996      7994      8044      8044      8045
      8044      8046      8044      8047      8047      8048      8047      8049
      8047      8050      8050      8051      8050      8052      8050      8053
      8053      8054      8053      8055      8053      8056      8056      8057
      8056      8058      8056      8059      8059      8060      8059      8061
      8059      8062      8062      8063      8062      8064      8064      8065
      8064      8066      8066      8067      8066      8068      8066      8069
      8069      8070      8069      8071      8069      8072      8072      8073
      8072      8074      8072      8075      8075      8076      8075      8077
      8075      8078      8078      8079      8078      8080      8078      8081
      8081      8082      8081      8083      8081      8084      8084      8085
      8084      8086      8084      8087      8087      8088      8087      8089
      8087      8090      8091      8095      8091      8099      8091      8103
      8095      8096      8095      8097      8095      8098      8099      8100
      8099      8101      8099      8102      8103      8104      8103      8105
      8103      8106      8091      8092      8092      8093      8092      8094
      8092      8107      8107      8108      8107      8109      8107      8113
      8114      8115      8113      8110      8110      8114      8110      8111
      8110      8112      8115      8116      8115      8117      8115      8118
      8118      8119      8118      8126      8118      8120      8126      8127
      8126      8128      8126      8129      8120      8121      8121      8123
      8121      8122      8123      8124      8123      8125      8123      8135
      8135      8136      8135      8137      8135      8138      8138      8139
      8138      8140      8138      8141      8141      8142      8141      8143
      8141      8144      8144      8145      8144      8146      8144      8147
      8147      8148      8147      8149      8147      8150      8150      8151
      8150      8152      8150      8153      8153      8154      8153      8155
      8155      8156      8155      8157      8157      8158      8157      8159
      8157      8160      8160      8161      8160      8162      8160      8163
      8163      8164      8163      8165      8163      8166      8166      8167
      8166      8168      8166      8169      8169      8170      8169      8171
      8169      8172      8172      8173      8172      8174      8172      8175
      8175      8176      8175      8177      8175      8178      8178      8179
      8178      8180      8178      8181      8129      8130      8130      8132
      8130      8131      8132      8133      8132      8134      8132      8182
      8182      8183      8182      8184      8182      8185      8185      8186
      8185      8187      8185      8188      8188      8189      8188      8190
      8188      8191      8191      8192      8191      8193      8191      8194
      8194      8195      8194      8196      8194      8197      8197      8198
      8197      8199      8197      8200      8200      8201      8200      8202
      8202      8203      8202      8204      8204      8205      8204      8206
      8204      8207      8207      8208      8207      8209      8207      8210
      8210      8211      8210      8212      8210      8213      8213      8214
      8213      8215      8213      8216      8216      8217      8216      8218
      8216      8219      8219      8220      8219      8221      8219      8222
      8222      8223      8222      8224      8222      8225      8225      8226
      8225      8227      8225      8228      8229      8233      8229      8237
      8229      8241      8233      8234      8233      8235      8233      8236
      8237      8238      8237      8239      8237      8240      8241      8242
      8241      8243      8241      8244      8229      8230      8230      8231
      8230      8232      8230      8245      8245      8246      8245      8247
      8245      8251      8252      8253      8251      8248      8248      8252
      8248      8249      8248      8250      8253      8254      8253      8255
      8253      8256      8256      8257      8256      8264      8256      8258
      8264      8265      8264      8266      8264      8267      8258      8259
      8259      8261      8259      8260      8261      8262      8261      8263
      8261      8273      8273      8274      8273      8275      8273      8276
      8276      8277      8276      8278      8276      8279      8279      8280
      8279      8281      8279      8282      8282      8283      8282      8284
      8282      8285      8285      8286      8285      8287      8285      8288
      8288      8289      8288      8290      8288      8291      8291      8292
      8291      8293      8293      8294      8293      8295      8295      8296
      8295      8297      8295      8298      8298      8299      8298      8300
      8298      8301      8301      8302      8301      8303      8301      8304
      8304      8305      8304      8306      8304      8307      8307      8308
      8307      8309      8307      8310      8310      8311      8310      8312
      8310      8313      8313      8314      8313      8315      8313      8316
      8316      8317      8316      8318      8316      8319      8267      8268
      8268      8270      8268      8269      8270      8271      8270      8272
      8270      8320      8320      8321      8320      8322      8320      8323
      8323      8324      8323      8325      8323      8326      8326      8327
      8326      8328      8326      8329      8329      8330      8329      8331
      8329      8332      8332      8333      8332      8334      8332      8335
      8335      8336      8335      8337      8335      8338      8338      8339
      8338      8340      8340      8341      8340      8342      8342      8343
      8342      8344      8342      8345      8345      8346      8345      8347
      8345      8348      8348      8349      8348      8350      8348      8351
      8351      8352      8351      8353      8351      8354      8354      8355
      8354      8356      8354      8357      8357      8358      8357      8359
      8357      8360      8360      8361      8360      8362      8360      8363
      8363      8364      8363      8365      8363      8366      8367      8371
      8367      8375      8367      8379      8371      8372      8371      8373
      8371      8374      8375      8376      8375      8377      8375      8378
      8379      8380      8379      8381      8379      8382      8367      8368
      8368      8369      8368      8370      8368      8383      8383      8384
      8383      8385      8383      8389      8390      8391      8389      8386
      8386      8390      8386      8387      8386      8388      8391      8392
      8391      8393      8391      8394      8394      8395      8394      8402
      8394      8396      8402      8403      8402      8404      8402      8405
      8396      8397      8397      8399      8397      8398      8399      8400
      8399      8401      8399      8411      8411      8412      8411      8413
      8411      8414      8414      8415      8414      8416      8414      8417
      8417      8418      8417      8419      8417      8420      8420      8421
      8420      8422      8420      8423      8423      8424      8423      8425
      8423      8426      8426      8427      8426      8428      8426      8429
      8429      8430      8429      8431      8431      8432      8431      8433
      8433      8434      8433      8435      8433      8436      8436      8437
      8436      8438      8436      8439      8439      8440      8439      8441
      8439      8442      8442      8443      8442      8444      8442      8445
      8445      8446      8445      8447      8445      8448      8448      8449
      8448      8450      8448      8451      8451      8452      8451      8453
      8451      8454      8454      8455      8454      8456      8454      8457
      8405      8406      8406      8408      8406      8407      8408      8409
      8408      8410      8408      8458      8458      8459      8458      8460
      8458      8461      8461      8462      8461      8463      8461      8464
      8464      8465      8464      8466      8464      8467      8467      8468
      8467      8469      8467      8470      8470      8471      8470      8472
      8470      8473      8473      8474      8473      8475      8473      8476
      8476      8477      8476      8478      8478      8479      8478      8480
      8480      8481      8480      8482      8480      8483      8483      8484
      8483      8485      8483      8486      8486      8487      8486      8488
      8486      8489      8489      8490      8489      8491      8489      8492
      8492      8493      8492      8494      8492      8495      8495      8496
      8495      8497      8495      8498      8498      8499      8498      8500
      8498      8501      8501      8502      8501      8503      8501      8504
      8505      8509      8505      8513      8505      8517      8509      8510
      8509      8511      8509      8512      8513      8514      8513      8515
      8513      8516      8517      8518      8517      8519      8517      8520
      8505      8506      8506      8507      8506      8508      8506      8521
      8521      8522      8521      8523      8521      8527      8528      8529
      8527      8524      8524      8528      8524      8525      8524      8526
      8529      8530      8529      8531      8529      8532      8532      8533
      8532      8540      8532      8534      8540      8541      8540      8542
      8540      8543      8534      8535      8535      8537      8535      8536
      8537      8538      8537      8539      8537      8549      8549      8550
      8549      8551      8549      8552      8552      8553      8552      8554
      8552      8555      8555      8556      8555      8557      8555      8558
      8558      8559      8558      8560      8558      8561      8561      8562
      8561      8563      8561      8564      8564      8565      8564      8566
      8564      8567      8567      8568      8567      8569      8569      8570
      8569      8571      8571      8572      8571      8573      8571      8574
      8574      8575      8574      8576      8574      8577      8577      8578
      8577      8579      8577      8580      8580      8581      8580      8582
      8580      8583      8583      8584      8583      8585      8583      8586
      8586      8587      8586      8588      8586      8589      8589      8590
      8589      8591      8589      8592      8592      8593      8592      8594
      8592      8595      8543      8544      8544      8546      8544      8545
      8546      8547      8546      8548      8546      8596      8596      8597
      8596      8598      8596      8599      8599      8600      8599      8601
      8599      8602      8602      8603      8602      8604      8602      8605
      8605      8606      8605      8607      8605      8608      8608      8609
      8608      8610      8608      8611      8611      8612      8611      8613
      8611      8614      8614      8615      8614      8616      8616      8617
      8616      8618      8618      8619      8618      8620      8618      8621
      8621      8622      8621      8623      8621      8624      8624      8625
      8624      8626      8624      8627      8627      8628      8627      8629
      8627      8630      8630      8631      8630      8632      8630      8633
      8633      8634      8633      8635      8633      8636      8636      8637
      8636      8638      8636      8639      8639      8640      8639      8641
      8639      8642      8643      8647      8643      8651      8643      8655
      8647      8648      8647      8649      8647      8650      8651      8652
      8651      8653      8651      8654      8655      8656      8655      8657
      8655      8658      8643      8644      8644      8645      8644      8646
      8644      8659      8659      8660      8659      8661      8659      8665
      8666      8667      8665      8662      8662      8666      8662      8663
      8662      8664      8667      8668      8667      8669      8667      8670
      8670      8671      8670      8678      8670      8672      8678      8679
      8678      8680      8678      8681      8672      8673      8673      8675
      8673      8674      8675      8676      8675      8677      8675      8687
      8687      8688      8687      8689      8687      8690      8690      8691
      8690      8692      8690      8693      8693      8694      8693      8695
      8693      8696      8696      8697      8696      8698      8696      8699
      8699      8700      8699      8701      8699      8702      8702      8703
      8702      8704      8702      8705      8705      8706      8705      8707
      8707      8708      8707      8709      8709      8710      8709      8711
      8709      8712      8712      8713      8712      8714      8712      8715
      8715      8716      8715      8717      8715      8718      8718      8719
      8718      8720      8718      8721      8721      8722      8721      8723
      8721      8724      8724      8725      8724      8726      8724      8727
      8727      8728      8727      8729      8727      8730      8730      8731
      8730      8732      8730      8733      8681      8682      8682      8684
      8682      8683      8684      8685      8684      8686      8684      8734
      8734      8735      8734      8736      8734      8737      8737      8738
      8737      8739      8737      8740      8740      8741      8740      8742
      8740      8743      8743      8744      8743      8745      8743      8746
      8746      8747      8746      8748      8746      8749      8749      8750
      8749      8751      8749      8752      8752      8753      8752      8754
      8754      8755      8754      8756      8756      8757      8756      8758
      8756      8759      8759      8760      8759      8761      8759      8762
      8762      8763      8762      8764      8762      8765      8765      8766
      8765      8767      8765      8768      8768      8769      8768      8770
      8768      8771      8771      8772      8771      8773      8771      8774
      8774      8775      8774      8776      8774      8777      8777      8778
      8777      8779      8777      8780      8781      8785      8781      8789
      8781      8793      8785      8786      8785      8787      8785      8788
      8789      8790      8789      8791      8789      8792      8793      8794
      8793      8795      8793      8796      8781      8782      8782      8783
      8782      8784      8782      8797      8797      8798      8797      8799
      8797      8803      8804      8805      8803      8800      8800      8804
      8800      8801      8800      8802      8805      8806      8805      8807
      8805      8808      8808      8809      8808      8816      8808      8810
      8816      8817      8816      8818      8816      8819      8810      8811
      8811      8813      8811      8812      8813      8814      8813      8815
      8813      8825      8825      8826      8825      8827      8825      8828
      8828      8829      8828      8830      8828      8831      8831      8832
      8831      8833      8831      8834      8834      8835      8834      8836
      8834      8837      8837      8838      8837      8839      8837      8840
      8840      8841      8840      8842      8840      8843      8843      8844
      8843      8845      8845      8846      8845      8847      8847      8848
      8847      8849      8847      8850      8850      8851      8850      8852
      8850      8853      8853      8854      8853      8855      8853      8856
      8856      8857      8856      8858      8856      8859      8859      8860
      8859      8861      8859      8862      8862      8863      8862      8864
      8862      8865      8865      8866      8865      8867      8865      8868
      8868      8869      8868      8870      8868      8871      8819      8820
      8820      8822      8820      8821      8822      8823      8822      8824
      8822      8872      8872      8873      8872      8874      8872      8875
      8875      8876      8875      8877      8875      8878      8878      8879
      8878      8880      8878      8881      8881      8882      8881      8883
      8881      8884      8884      8885      8884      8886      8884      8887
      8887      8888      8887      8889      8887      8890      8890      8891
      8890      8892      8892      8893      8892      8894      8894      8895
      8894      8896      8894      8897      8897      8898      8897      8899
      8897      8900      8900      8901      8900      8902      8900      8903
      8903      8904      8903      8905      8903      8906      8906      8907
      8906      8908      8906      8909      8909      8910      8909      8911
      8909      8912      8912      8913      8912      8914      8912      8915
      8915      8916      8915      8917      8915      8918      8919      8923
      8919      8927      8919      8931      8923      8924      8923      8925
      8923      8926      8927      8928      8927      8929      8927      8930
      8931      8932      8931      8933      8931      8934      8919      8920
      8920      8921      8920      8922      8920      8935      8935      8936
      8935      8937      8935      8941      8942      8943      8941      8938
      8938      8942      8938      8939      8938      8940      8943      8944
      8943      8945      8943      8946      8946      8947      8946      8954
      8946      8948      8954      8955      8954      8956      8954      8957
      8948      8949      8949      8951      8949      8950      8951      8952
      8951      8953      8951      8963      8963      8964      8963      8965
      8963      8966      8966      8967      8966      8968      8966      8969
      8969      8970      8969      8971      8969      8972      8972      8973
      8972      8974      8972      8975      8975      8976      8975      8977
      8975      8978      8978      8979      8978      8980      8978      8981
      8981      8982      8981      8983      8983      8984      8983      8985
      8985      8986      8985      8987      8985      8988      8988      8989
      8988      8990      8988      8991      8991      8992      8991      8993
      8991      8994      8994      8995      8994      8996      8994      8997
      8997      8998      8997      8999      8997      9000      9000      9001
      9000      9002      9000      9003      9003      9004      9003      9005
      9003      9006      9006      9007      9006      9008      9006      9009
      8957      8958      8958      8960      8958      8959      8960      8961
      8960      8962      8960      9010      9010      9011      9010      9012
      9010      9013      9013      9014      9013      9015      9013      9016
      9016      9017      9016      9018      9016      9019      9019      9020
      9019      9021      9019      9022      9022      9023      9022      9024
      9022      9025      9025      9026      9025      9027      9025      9028
      9028      9029      9028      9030      9030      9031      9030      9032
      9032      9033      9032      9034      9032      9035      9035      9036
      9035      9037      9035      9038      9038      9039      9038      9040
      9038      9041      9041      9042      9041      9043      9041      9044
      9044      9045      9044      9046      9044      9047      9047      9048
      9047      9049      9047      9050      9050      9051      9050      9052
      9050      9053      9053      9054      9053      9055      9053      9056
      9057      9061      9057      9065      9057      9069      9061      9062
      9061      9063      9061      9064      9065      9066      9065      9067
      9065      9068      9069      9070      9069      9071      9069      9072
      9057      9058      9058      9059      9058      9060      9058      9073
      9073      9074      9073      9075      9073      9079      9080      9081
      9079      9076      9076      9080      9076      9077      9076      9078
      9081      9082      9081      9083      9081      9084      9084      9085
      9084      9092      9084      9086      9092      9093      9092      9094
      9092      9095      9086      9087      9087      9089      9087      9088
      9089      9090      9089      9091      9089      9101      9101      9102
      9101      9103      9101      9104      9104      9105      9104      9106
      9104      9107      9107      9108      9107      9109      9107      9110
      9110      9111      9110      9112      9110      9113      9113      9114
      9113      9115      9113      9116      9116      9117      9116      9118
      9116      9119      9119      9120      9119      9121      9121      9122
      9121      9123      9123      9124      9123      9125      9123      9126
      9126      9127      9126      9128      9126      9129      9129      9130
      9129      9131      9129      9132      9132      9133      9132      9134
      9132      9135      9135      9136      9135      9137      9135      9138
      9138      9139      9138      9140      9138      9141      9141      9142
      9141      9143      9141      9144      9144      9145      9144      9146
      9144      9147      9095      9096      9096      9098      9096      9097
      9098      9099      9098      9100      9098      9148      9148      9149
      9148      9150      9148      9151      9151      9152      9151      9153
      9151      9154      9154      9155      9154      9156      9154      9157
      9157      9158      9157      9159      9157      9160      9160      9161
      9160      9162      9160      9163      9163      9164      9163      9165
      9163      9166      9166      9167      9166      9168      9168      9169
      9168      9170      9170      9171      9170      9172      9170      9173
      9173      9174      9173      9175      9173      9176      9176      9177
      9176      9178      9176      9179      9179      9180      9179      9181
      9179      9182      9182      9183      9182      9184      9182      9185
      9185      9186      9185      9187      9185      9188      9188      9189
      9188      9190      9188      9191      9191      9192      9191      9193
      9191      9194      9195      9199      9195      9203      9195      9207
      9199      9200      9199      9201      9199      9202      9203      9204
      9203      9205      9203      9206      9207      9208      9207      9209
      9207      9210      9195      9196      9196      9197      9196      9198
      9196      9211      9211      9212      9211      9213      9211      9217
      9218      9219      9217      9214      9214      9218      9214      9215
      9214      9216      9219      9220      9219      9221      9219      9222
      9222      9223      9222      9230      9222      9224      9230      9231
      9230      9232      9230      9233      9224      9225      9225      9227
      9225      9226      9227      9228      9227      9229      9227      9239
      9239      9240      9239      9241      9239      9242      9242      9243
      9242      9244      9242      9245      9245      9246      9245      9247
      9245      9248      9248      9249      9248      9250      9248      9251
      9251      9252      9251      9253      9251      9254      9254      9255
      9254      9256      9254      9257      9257      9258      9257      9259
      9259      9260      9259      9261      9261      9262      9261      9263
      9261      9264      9264      9265      9264      9266      9264      9267
      9267      9268      9267      9269      9267      9270      9270      9271
      9270      9272      9270      9273      9273      9274      9273      9275
      9273      9276      9276      9277      9276      9278      9276      9279
      9279      9280      9279      9281      9279      9282      9282      9283
      9282      9284      9282      9285      9233      9234      9234      9236
      9234      9235      9236      9237      9236      9238      9236      9286
      9286      9287      9286      9288      9286      9289      9289      9290
      9289      9291      9289      9292      9292      9293      9292      9294
      9292      9295      9295      9296      9295      9297      9295      9298
      9298      9299      9298      9300      9298      9301      9301      9302
      9301      9303      9301      9304      9304      9305      9304      9306
      9306      9307      9306      9308      9308      9309      9308      9310
      9308      9311      9311      9312      9311      9313      9311      9314
      9314      9315      9314      9316      9314      9317      9317      9318
      9317      9319      9317      9320      9320      9321      9320      9322
      9320      9323      9323      9324      9323      9325      9323      9326
      9326      9327      9326      9328      9326      9329      9329      9330
      9329      9331      9329      9332      9333      9337      9333      9341
      9333      9345      9337      9338      9337      9339      9337      9340
      9341      9342      9341      9343      9341      9344      9345      9346
      9345      9347      9345      9348      9333      9334      9334      9335
      9334      9336      9334      9349      9349      9350      9349      9351
      9349      9355      9356      9357      9355      9352      9352      9356
      9352      9353      9352      9354      9357      9358      9357      9359
      9357      9360      9360      9361      9360      9368      9360      9362
      9368      9369      9368      9370      9368      9371      9362      9363
      9363      9365      9363      9364      9365      9366      9365      9367
      9365      9377      9377      9378      9377      9379      9377      9380
      9380      9381      9380      9382      9380      9383      9383      9384
      9383      9385      9383      9386      9386      9387      9386      9388
      9386      9389      9389      9390      9389      9391      9389      9392
      9392      9393      9392      9394      9392      9395      9395      9396
      9395      9397      9397      9398      9397      9399      9399      9400
      9399      9401      9399      9402      9402      9403      9402      9404
      9402      9405      9405      9406      9405      9407      9405      9408
      9408      9409      9408      9410      9408      9411      9411      9412
      9411      9413      9411      9414      9414      9415      9414      9416
      9414      9417      9417      9418      9417      9419      9417      9420
      9420      9421      9420      9422      9420      9423      9371      9372
      9372      9374      9372      9373      9374      9375      9374      9376
      9374      9424      9424      9425      9424      9426      9424      9427
      9427      9428      9427      9429      9427      9430      9430      9431
      9430      9432      9430      9433      9433      9434      9433      9435
      9433      9436      9436      9437      9436      9438      9436      9439
      9439      9440      9439      9441      9439      9442      9442      9443
      9442      9444      9444      9445      9444      9446      9446      9447
      9446      9448      9446      9449      9449      9450      9449      9451
      9449      9452      9452      9453      9452      9454      9452      9455
      9455      9456      9455      9457      9455      9458      9458      9459
      9458      9460      9458      9461      9461      9462      9461      9463
      9461      9464      9464      9465      9464      9466      9464      9467
      9467      9468      9467      9469      9467      9470      9471      9475
      9471      9479      9471      9483      9475      9476      9475      9477
      9475      9478      9479      9480      9479      9481      9479      9482
      9483      9484      9483      9485      9483      9486      9471      9472
      9472      9473      9472      9474      9472      9487      9487      9488
      9487      9489      9487      9493      9494      9495      9493      9490
      9490      9494      9490      9491      9490      9492      9495      9496
      9495      9497      9495      9498      9498      9499      9498      9506
      9498      9500      9506      9507      9506      9508      9506      9509
      9500      9501      9501      9503      9501      9502      9503      9504
      9503      9505      9503      9515      9515      9516      9515      9517
      9515      9518      9518      9519      9518      9520      9518      9521
      9521      9522      9521      9523      9521      9524      9524      9525
      9524      9526      9524      9527      9527      9528      9527      9529
      9527      9530      9530      9531      9530      9532      9530      9533
      9533      9534      9533      9535      9535      9536      9535      9537
      9537      9538      9537      9539      9537      9540      9540      9541
      9540      9542      9540      9543      9543      9544      9543      9545
      9543      9546      9546      9547      9546      9548      9546      9549
      9549      9550      9549      9551      9549      9552      9552      9553
      9552      9554      9552      9555      9555      9556      9555      9557
      9555      9558      9558      9559      9558      9560      9558      9561
      9509      9510      9510      9512      9510      9511      9512      9513
      9512      9514      9512      9562      9562      9563      9562      9564
      9562      9565      9565      9566      9565      9567      9565      9568
      9568      9569      9568      9570      9568      9571      9571      9572
      9571      9573      9571      9574      9574      9575      9574      9576
      9574      9577      9577      9578      9577      9579      9577      9580
      9580      9581      9580      9582      9582      9583      9582      9584
      9584      9585      9584      9586      9584      9587      9587      9588
      9587      9589      9587      9590      9590      9591      9590      9592
      9590      9593      9593      9594      9593      9595      9593      9596
      9596      9597      9596      9598      9596      9599      9599      9600
      9599      9601      9599      9602      9602      9603      9602      9604
      9602      9605      9605      9606      9605      9607      9605      9608
      9609      9613      9609      9617      9609      9621      9613      9614
      9613      9615      9613      9616      9617      9618      9617      9619
      9617      9620      9621      9622      9621      9623      9621      9624
      9609      9610      9610      9611      9610      9612      9610      9625
      9625      9626      9625      9627      9625      9631      9632      9633
      9631      9628      9628      9632      9628      9629      9628      9630
      9633      9634      9633      9635      9633      9636      9636      9637
      9636      9644      9636      9638      9644      9645      9644      9646
      9644      9647      9638      9639      9639      9641      9639      9640
      9641      9642      9641      9643      9641      9653      9653      9654
      9653      9655      9653      9656      9656      9657      9656      9658
      9656      9659      9659      9660      9659      9661      9659      9662
      9662      9663      9662      9664      9662      9665      9665      9666
      9665      9667      9665      9668      9668      9669      9668      9670
      9668      9671      9671      9672      9671      9673      9673      9674
      9673      9675      9675      9676      9675      9677      9675      9678
      9678      9679      9678      9680      9678      9681      9681      9682
      9681      9683      9681      9684      9684      9685      9684      9686
      9684      9687      9687      9688      9687      9689      9687      9690
      9690      9691      9690      9692      9690      9693      9693      9694
      9693      9695      9693      9696      9696      9697      9696      9698
      9696      9699      9647      9648      9648      9650      9648      9649
      9650      9651      9650      9652      9650      9700      9700      9701
      9700      9702      9700      9703      9703      9704      9703      9705
      9703      9706      9706      9707      9706      9708      9706      9709
      9709      9710      9709      9711      9709      9712      9712      9713
      9712      9714      9712      9715      9715      9716      9715      9717
      9715      9718      9718      9719      9718      9720      9720      9721
      9720      9722      9722      9723      9722      9724      9722      9725
      9725      9726      9725      9727      9725      9728      9728      9729
      9728      9730      9728      9731      9731      9732      9731      9733
      9731      9734      9734      9735      9734      9736      9734      9737
      9737      9738      9737      9739      9737      9740      9740      9741
      9740      9742      9740      9743      9743      9744      9743      9745
      9743      9746      9747      9751      9747      9755      9747      9759
      9751      9752      9751      9753      9751      9754      9755      9756
      9755      9757      9755      9758      9759      9760      9759      9761
      9759      9762      9747      9748      9748      9749      9748      9750
      9748      9763      9763      9764      9763      9765      9763      9769
      9770      9771      9769      9766      9766      9770      9766      9767
      9766      9768      9771      9772      9771      9773      9771      9774
      9774      9775      9774      9782      9774      9776      9782      9783
      9782      9784      9782      9785      9776      9777      9777      9779
      9777      9778      9779      9780      9779      9781      9779      9791
      9791      9792      9791      9793      9791      9794      9794      9795
      9794      9796      9794      9797      9797      9798      9797      9799
      9797      9800      9800      9801      9800      9802      9800      9803
      9803      9804      9803      9805      9803      9806      9806      9807
      9806      9808      9806      9809      9809      9810      9809      9811
      9811      9812      9811      9813      9813      9814      9813      9815
      9813      9816      9816      9817      9816      9818      9816      9819
      9819      9820      9819      9821      9819      9822      9822      9823
      9822      9824      9822      9825      9825      9826      9825      9827
      9825      9828      9828      9829      9828      9830      9828      9831
      9831      9832      9831      9833      9831      9834      9834      9835
      9834      9836      9834      9837      9785      9786      9786      9788
      9786      9787      9788      9789      9788      9790      9788      9838
      9838      9839      9838      9840      9838      9841      9841      9842
      9841      9843      9841      9844      9844      9845      9844      9846
      9844      9847      9847      9848      9847      9849      9847      9850
      9850      9851      9850      9852      9850      9853      9853      9854
      9853      9855      9853      9856      9856      9857      9856      9858
      9858      9859      9858      9860      9860      9861      9860      9862
      9860      9863      9863      9864      9863      9865      9863      9866
      9866      9867      9866      9868      9866      9869      9869      9870
      9869      9871      9869      9872      9872      9873      9872      9874
      9872      9875      9875      9876      9875      9877      9875      9878
      9878      9879      9878      9880      9878      9881      9881      9882
      9881      9883      9881      9884      9885      9889      9885      9893
      9885      9897      9889      9890      9889      9891      9889      9892
      9893      9894      9893      9895      9893      9896      9897      9898
      9897      9899      9897      9900      9885      9886      9886      9887
      9886      9888      9886      9901      9901      9902      9901      9903
      9901      9907      9908      9909      9907      9904      9904      9908
      9904      9905      9904      9906      9909      9910      9909      9911
      9909      9912      9912      9913      9912      9920      9912      9914
      9920      9921      9920      9922      9920      9923      9914      9915
      9915      9917      9915      9916      9917      9918      9917      9919
      9917      9929      9929      9930      9929      9931      9929      9932
      9932      9933      9932      9934      9932      9935      9935      9936
      9935      9937      9935      9938      9938      9939      9938      9940
      9938      9941      9941      9942      9941      9943      9941      9944
      9944      9945      9944      9946      9944      9947      9947      9948
      9947      9949      9949      9950      9949      9951      9951      9952
      9951      9953      9951      9954      9954      9955      9954      9956
      9954      9957      9957      9958      9957      9959      9957      9960
      9960      9961      9960      9962      9960      9963      9963      9964
      9963      9965      9963      9966      9966      9967      9966      9968
      9966      9969      9969      9970      9969      9971      9969      9972
      9972      9973      9972      9974      9972      9975      9923      9924
      9924      9926      9924      9925      9926      9927      9926      9928
      9926      9976      9976      9977      9976      9978      9976      9979
      9979      9980      9979      9981      9979      9982      9982      9983
      9982      9984      9982      9985      9985      9986      9985      9987
      9985      9988      9988      9989      9988      9990      9988      9991
      9991      9992      9991      9993      9991      9994      9994      9995
      9994      9996      9996      9997      9996      9998      9998      9999
      9998     10000      9998     10001     10001     10002     10001     10003
     10001     10004     10004     10005     10004     10006     10004     10007
     10007     10008     10007     10009     10007     10010     10010     10011
     10010     10012     10010     10013     10013     10014     10013     10015
     10013     10016     10016     10017     10016     10018     10016     10019
     10019     10020     10019     10021     10019     10022     10023     10027
     10023     10031     10023     10035     10027     10028     10027     10029
     10027     10030     10031     10032     10031     10033     10031     10034
     10035     10036     10035     10037     10035     10038     10023     10024
     10024     10025     10024     10026     10024     10039     10039     10040
     10039     10041     10039     10045     10046     10047     10045     10042
     10042     10046     10042     10043     10042     10044     10047     10048
     10047     10049     10047     10050     10050     10051     10050     10058
     10050     10052     10058     10059     10058     10060     10058     10061
     10052     10053     10053     10055     10053     10054     10055     10056
     10055     10057     10055     10067     10067     10068     10067     10069
     10067     10070     10070     10071     10070     10072     10070     10073
     10073     10074     10073     10075     10073     10076     10076     10077
     10076     10078     10076     10079     10079     10080     10079     10081
     10079     10082     10082     10083     10082     10084     10082     10085
     10085     10086     10085     10087     10087     10088     10087     10089
     10089     10090     10089     10091     10089     10092     10092     10093
     10092     10094     10092     10095     10095     10096     10095     10097
     10095     10098     10098     10099     10098     10100     10098     10101
     10101     10102     10101     10103     10101     10104     10104     10105
     10104     10106     10104     10107     10107     10108     10107     10109
     10107     10110     10110     10111     10110     10112     10110     10113
     10061     10062     10062     10064     10062     10063     10064     10065
     10064     10066     10064     10114     10114     10115     10114     10116
     10114     10117     10117     10118     10117     10119     10117     10120
     10120     10121     10120     10122     10120     10123     10123     10124
     10123     10125     10123     10126     10126     10127     10126     10128
     10126     10129     10129     10130     10129     10131     10129     10132
     10132     10133     10132     10134     10134     10135     10134     10136
     10136     10137     10136     10138     10136     10139     10139     10140
     10139     10141     10139     10142     10142     10143     10142     10144
     10142     10145     10145     10146     10145     10147     10145     10148
     10148     10149     10148     10150     10148     10151     10151     10152
     10151     10153     10151     10154     10154     10155     10154     10156
     10154     10157     10157     10158     10157     10159     10157     10160
     10161     10165     10161     10169     10161     10173     10165     10166
     10165     10167     10165     10168     10169     10170     10169     10171
     10169     10172     10173     10174     10173     10175     10173     10176
     10161     10162     10162     10163     10162     10164     10162     10177
     10177     10178     10177     10179     10177     10183     10184     10185
     10183     10180     10180     10184     10180     10181     10180     10182
     10185     10186     10185     10187     10185     10188     10188     10189
     10188     10196     10188     10190     10196     10197     10196     10198
     10196     10199     10190     10191     10191     10193     10191     10192
     10193     10194     10193     10195     10193     10205     10205     10206
     10205     10207     10205     10208     10208     10209     10208     10210
     10208     10211     10211     10212     10211     10213     10211     10214
     10214     10215     10214     10216     10214     10217     10217     10218
     10217     10219     10217     10220     10220     10221     10220     10222
     10220     10223     10223     10224     10223     10225     10225     10226
     10225     10227     10227     10228     10227     10229     10227     10230
     10230     10231     10230     10232     10230     10233     10233     10234
     10233     10235     10233     10236     10236     10237     10236     10238
     10236     10239     10239     10240     10239     10241     10239     10242
     10242     10243     10242     10244     10242     10245     10245     10246
     10245     10247     10245     10248     10248     10249     10248     10250
     10248     10251     10199     10200     10200     10202     10200     10201
     10202     10203     10202     10204     10202     10252     10252     10253
     10252     10254     10252     10255     10255     10256     10255     10257
     10255     10258     10258     10259     10258     10260     10258     10261
     10261     10262     10261     10263     10261     10264     10264     10265
     10264     10266     10264     10267     10267     10268     10267     10269
     10267     10270     10270     10271     10270     10272     10272     10273
     10272     10274     10274     10275     10274     10276     10274     10277
     10277     10278     10277     10279     10277     10280     10280     10281
     10280     10282     10280     10283     10283     10284     10283     10285
     10283     10286     10286     10287     10286     10288     10286     10289
     10289     10290     10289     10291     10289     10292     10292     10293
     10292     10294     10292     10295     10295     10296     10295     10297
     10295     10298     10299     10303     10299     10307     10299     10311
     10303     10304     10303     10305     10303     10306     10307     10308
     10307     10309     10307     10310     10311     10312     10311     10313
     10311     10314     10299     10300     10300     10301     10300     10302
     10300     10315     10315     10316     10315     10317     10315     10321
     10322     10323     10321     10318     10318     10322     10318     10319
     10318     10320     10323     10324     10323     10325     10323     10326
     10326     10327     10326     10334     10326     10328     10334     10335
     10334     10336     10334     10337     10328     10329     10329     10331
     10329     10330     10331     10332     10331     10333     10331     10343
     10343     10344     10343     10345     10343     10346     10346     10347
     10346     10348     10346     10349     10349     10350     10349     10351
     10349     10352     10352     10353     10352     10354     10352     10355
     10355     10356     10355     10357     10355     10358     10358     10359
     10358     10360     10358     10361     10361     10362     10361     10363
     10363     10364     10363     10365     10365     10366     10365     10367
     10365     10368     10368     10369     10368     10370     10368     10371
     10371     10372     10371     10373     10371     10374     10374     10375
     10374     10376     10374     10377     10377     10378     10377     10379
     10377     10380     10380     10381     10380     10382     10380     10383
     10383     10384     10383     10385     10383     10386     10386     10387
     10386     10388     10386     10389     10337     10338     10338     10340
     10338     10339     10340     10341     10340     10342     10340     10390
     10390     10391     10390     10392     10390     10393     10393     10394
     10393     10395     10393     10396     10396     10397     10396     10398
     10396     10399     10399     10400     10399     10401     10399     10402
     10402     10403     10402     10404     10402     10405     10405     10406
     10405     10407     10405     10408     10408     10409     10408     10410
     10410     10411     10410     10412     10412     10413     10412     10414
     10412     10415     10415     10416     10415     10417     10415     10418
     10418     10419     10418     10420     10418     10421     10421     10422
     10421     10423     10421     10424     10424     10425     10424     10426
     10424     10427     10427     10428     10427     10429     10427     10430
     10430     10431     10430     10432     10430     10433     10433     10434
     10433     10435     10433     10436     10437     10441     10437     10445
     10437     10449     10441     10442     10441     10443     10441     10444
     10445     10446     10445     10447     10445     10448     10449     10450
     10449     10451     10449     10452     10437     10438     10438     10439
     10438     10440     10438     10453     10453     10454     10453     10455
     10453     10459     10460     10461     10459     10456     10456     10460
     10456     10457     10456     10458     10461     10462     10461     10463
     10461     10464     10464     10465     10464     10472     10464     10466
     10472     10473     10472     10474     10472     10475     10466     10467
     10467     10469     10467     10468     10469     10470     10469     10471
     10469     10481     10481     10482     10481     10483     10481     10484
     10484     10485     10484     10486     10484     10487     10487     10488
     10487     10489     10487     10490     10490     10491     10490     10492
     10490     10493     10493     10494     10493     10495     10493     10496
     10496     10497     10496     10498     10496     10499     10499     10500
     10499     10501     10501     10502     10501     10503     10503     10504
     10503     10505     10503     10506     10506     10507     10506     10508
     10506     10509     10509     10510     10509     10511     10509     10512
     10512     10513     10512     10514     10512     10515     10515     10516
     10515     10517     10515     10518     10518     10519     10518     10520
     10518     10521     10521     10522     10521     10523     10521     10524
     10524     10525     10524     10526     10524     10527     10475     10476
     10476     10478     10476     10477     10478     10479     10478     10480
     10478     10528     10528     10529     10528     10530     10528     10531
     10531     10532     10531     10533     10531     10534     10534     10535
     10534     10536     10534     10537     10537     10538     10537     10539
     10537     10540     10540     10541     10540     10542     10540     10543
     10543     10544     10543     10545     10543     10546     10546     10547
     10546     10548     10548     10549     10548     10550     10550     10551
     10550     10552     10550     10553     10553     10554     10553     10555
     10553     10556     10556     10557     10556     10558     10556     10559
     10559     10560     10559     10561     10559     10562     10562     10563
     10562     10564     10562     10565     10565     10566     10565     10567
     10565     10568     10568     10569     10568     10570     10568     10571
     10571     10572     10571     10573     10571     10574     10575     10579
     10575     10583     10575     10587     10579     10580     10579     10581
     10579     10582     10583     10584     10583     10585     10583     10586
     10587     10588     10587     10589     10587     10590     10575     10576
     10576     10577     10576     10578     10576     10591     10591     10592
     10591     10593     10591     10597     10598     10599     10597     10594
     10594     10598     10594     10595     10594     10596     10599     10600
     10599     10601     10599     10602     10602     10603     10602     10610
     10602     10604     10610     10611     10610     10612     10610     10613
     10604     10605     10605     10607     10605     10606     10607     10608
     10607     10609     10607     10619     10619     10620     10619     10621
     10619     10622     10622     10623     10622     10624     10622     10625
     10625     10626     10625     10627     10625     10628     10628     10629
     10628     10630     10628     10631     10631     10632     10631     10633
     10631     10634     10634     10635     10634     10636     10634     10637
     10637     10638     10637     10639     10639     10640     10639     10641
     10641     10642     10641     10643     10641     10644     10644     10645
     10644     10646     10644     10647     10647     10648     10647     10649
     10647     10650     10650     10651     10650     10652     10650     10653
     10653     10654     10653     10655     10653     10656     10656     10657
     10656     10658     10656     10659     10659     10660     10659     10661
     10659     10662     10662     10663     10662     10664     10662     10665
     10613     10614     10614     10616     10614     10615     10616     10617
     10616     10618     10616     10666     10666     10667     10666     10668
     10666     10669     10669     10670     10669     10671     10669     10672
     10672     10673     10672     10674     10672     10675     10675     10676
     10675     10677     10675     10678     10678     10679     10678     10680
     10678     10681     10681     10682     10681     10683     10681     10684
     10684     10685     10684     10686     10686     10687     10686     10688
     10688     10689     10688     10690     10688     10691     10691     10692
     10691     10693     10691     10694     10694     10695     10694     10696
     10694     10697     10697     10698     10697     10699     10697     10700
     10700     10701     10700     10702     10700     10703     10703     10704
     10703     10705     10703     10706     10706     10707     10706     10708
     10706     10709     10709     10710     10709     10711     10709     10712
     10713     10717     10713     10721     10713     10725     10717     10718
     10717     10719     10717     10720     10721     10722     10721     10723
     10721     10724     10725     10726     10725     10727     10725     10728
     10713     10714     10714     10715     10714     10716     10714     10729
     10729     10730     10729     10731     10729     10735     10736     10737
     10735     10732     10732     10736     10732     10733     10732     10734
     10737     10738     10737     10739     10737     10740     10740     10741
     10740     10748     10740     10742     10748     10749     10748     10750
     10748     10751     10742     10743     10743     10745     10743     10744
     10745     10746     10745     10747     10745     10757     10757     10758
     10757     10759     10757     10760     10760     10761     10760     10762
     10760     10763     10763     10764     10763     10765     10763     10766
     10766     10767     10766     10768     10766     10769     10769     10770
     10769     10771     10769     10772     10772     10773     10772     10774
     10772     10775     10775     10776     10775     10777     10777     10778
     10777     10779     10779     10780     10779     10781     10779     10782
     10782     10783     10782     10784     10782     10785     10785     10786
     10785     10787     10785     10788     10788     10789     10788     10790
     10788     10791     10791     10792     10791     10793     10791     10794
     10794     10795     10794     10796     10794     10797     10797     10798
     10797     10799     10797     10800     10800     10801     10800     10802
     10800     10803     10751     10752     10752     10754     10752     10753
     10754     10755     10754     10756     10754     10804     10804     10805
     10804     10806     10804     10807     10807     10808     10807     10809
     10807     10810     10810     10811     10810     10812     10810     10813
     10813     10814     10813     10815     10813     10816     10816     10817
     10816     10818     10816     10819     10819     10820     10819     10821
     10819     10822     10822     10823     10822     10824     10824     10825
     10824     10826     10826     10827     10826     10828     10826     10829
     10829     10830     10829     10831     10829     10832     10832     10833
     10832     10834     10832     10835     10835     10836     10835     10837
     10835     10838     10838     10839     10838     10840     10838     10841
     10841     10842     10841     10843     10841     10844     10844     10845
     10844     10846     10844     10847     10847     10848     10847     10849
     10847     10850     10851     10855     10851     10859     10851     10863
     10855     10856     10855     10857     10855     10858     10859     10860
     10859     10861     10859     10862     10863     10864     10863     10865
     10863     10866     10851     10852     10852     10853     10852     10854
     10852     10867     10867     10868     10867     10869     10867     10873
     10874     10875     10873     10870     10870     10874     10870     10871
     10870     10872     10875     10876     10875     10877     10875     10878
     10878     10879     10878     10886     10878     10880     10886     10887
     10886     10888     10886     10889     10880     10881     10881     10883
     10881     10882     10883     10884     10883     10885     10883     10895
     10895     10896     10895     10897     10895     10898     10898     10899
     10898     10900     10898     10901     10901     10902     10901     10903
     10901     10904     10904     10905     10904     10906     10904     10907
     10907     10908     10907     10909     10907     10910     10910     10911
     10910     10912     10910     10913     10913     10914     10913     10915
     10915     10916     10915     10917     10917     10918     10917     10919
     10917     10920     10920     10921     10920     10922     10920     10923
     10923     10924     10923     10925     10923     10926     10926     10927
     10926     10928     10926     10929     10929     10930     10929     10931
     10929     10932     10932     10933     10932     10934     10932     10935
     10935     10936     10935     10937     10935     10938     10938     10939
     10938     10940     10938     10941     10889     10890     10890     10892
     10890     10891     10892     10893     10892     10894     10892     10942
     10942     10943     10942     10944     10942     10945     10945     10946
     10945     10947     10945     10948     10948     10949     10948     10950
     10948     10951     10951     10952     10951     10953     10951     10954
     10954     10955     10954     10956     10954     10957     10957     10958
     10957     10959     10957     10960     10960     10961     10960     10962
     10962     10963     10962     10964     10964     10965     10964     10966
     10964     10967     10967     10968     10967     10969     10967     10970
     10970     10971     10970     10972     10970     10973     10973     10974
     10973     10975     10973     10976     10976     10977     10976     10978
     10976     10979     10979     10980     10979     10981     10979     10982
     10982     10983     10982     10984     10982     10985     10985     10986
     10985     10987     10985     10988     10989     10993     10989     10997
     10989     11001     10993     10994     10993     10995     10993     10996
     10997     10998     10997     10999     10997     11000     11001     11002
     11001     11003     11001     11004     10989     10990     10990     10991
     10990     10992     10990     11005     11005     11006     11005     11007
     11005     11011     11012     11013     11011     11008     11008     11012
     11008     11009     11008     11010     11013     11014     11013     11015
     11013     11016     11016     11017     11016     11024     11016     11018
     11024     11025     11024     11026     11024     11027     11018     11019
     11019     11021     11019     11020     11021     11022     11021     11023
     11021     11033     11033     11034     11033     11035     11033     11036
     11036     11037     11036     11038     11036     11039     11039     11040
     11039     11041     11039     11042     11042     11043     11042     11044
     11042     11045     11045     11046     11045     11047     11045     11048
     11048     11049     11048     11050     11048     11051     11051     11052
     11051     11053     11053     11054     11053     11055     11055     11056
     11055     11057     11055     11058     11058     11059     11058     11060
     11058     11061     11061     11062     11061     11063     11061     11064
     11064     11065     11064     11066     11064     11067     11067     11068
     11067     11069     11067     11070     11070     11071     11070     11072
     11070     11073     11073     11074     11073     11075     11073     11076
     11076     11077     11076     11078     11076     11079     11027     11028
     11028     11030     11028     11029     11030     11031     11030     11032
     11030     11080     11080     11081     11080     11082     11080     11083
     11083     11084     11083     11085     11083     11086     11086     11087
     11086     11088     11086     11089     11089     11090     11089     11091
     11089     11092     11092     11093     11092     11094     11092     11095
     11095     11096     11095     11097     11095     11098     11098     11099
     11098     11100     11100     11101     11100     11102     11102     11103
     11102     11104     11102     11105     11105     11106     11105     11107
     11105     11108     11108     11109     11108     11110     11108     11111
     11111     11112     11111     11113     11111     11114     11114     11115
     11114     11116     11114     11117     11117     11118     11117     11119
     11117     11120     11120     11121     11120     11122     11120     11123
     11123     11124     11123     11125     11123     11126     11127     11131
     11127     11135     11127     11139     11131     11132     11131     11133
     11131     11134     11135     11136     11135     11137     11135     11138
     11139     11140     11139     11141     11139     11142     11127     11128
     11128     11129     11128     11130     11128     11143     11143     11144
     11143     11145     11143     11149     11150     11151     11149     11146
     11146     11150     11146     11147     11146     11148     11151     11152
     11151     11153     11151     11154     11154     11155     11154     11162
     11154     11156     11162     11163     11162     11164     11162     11165
     11156     11157     11157     11159     11157     11158     11159     11160
     11159     11161     11159     11171     11171     11172     11171     11173
     11171     11174     11174     11175     11174     11176     11174     11177
     11177     11178     11177     11179     11177     11180     11180     11181
     11180     11182     11180     11183     11183     11184     11183     11185
     11183     11186     11186     11187     11186     11188     11186     11189
     11189     11190     11189     11191     11191     11192     11191     11193
     11193     11194     11193     11195     11193     11196     11196     11197
     11196     11198     11196     11199     11199     11200     11199     11201
     11199     11202     11202     11203     11202     11204     11202     11205
     11205     11206     11205     11207     11205     11208     11208     11209
     11208     11210     11208     11211     11211     11212     11211     11213
     11211     11214     11214     11215     11214     11216     11214     11217
     11165     11166     11166     11168     11166     11167     11168     11169
     11168     11170     11168     11218     11218     11219     11218     11220
     11218     11221     11221     11222     11221     11223     11221     11224
     11224     11225     11224     11226     11224     11227     11227     11228
     11227     11229     11227     11230     11230     11231     11230     11232
     11230     11233     11233     11234     11233     11235     11233     11236
     11236     11237     11236     11238     11238     11239     11238     11240
     11240     11241     11240     11242     11240     11243     11243     11244
     11243     11245     11243     11246     11246     11247     11246     11248
     11246     11249     11249     11250     11249     11251     11249     11252
     11252     11253     11252     11254     11252     11255     11255     11256
     11255     11257     11255     11258     11258     11259     11258     11260
     11258     11261     11261     11262     11261     11263     11261     11264
     11265     11269     11265     11273     11265     11277     11269     11270
     11269     11271     11269     11272     11273     11274     11273     11275
     11273     11276     11277     11278     11277     11279     11277     11280
     11265     11266     11266     11267     11266     11268     11266     11281
     11281     11282     11281     11283     11281     11287     11288     11289
     11287     11284     11284     11288     11284     11285     11284     11286
     11289     11290     11289     11291     11289     11292     11292     11293
     11292     11300     11292     11294     11300     11301     11300     11302
     11300     11303     11294     11295     11295     11297     11295     11296
     11297     11298     11297     11299     11297     11309     11309     11310
     11309     11311     11309     11312     11312     11313     11312     11314
     11312     11315     11315     11316     11315     11317     11315     11318
     11318     11319     11318     11320     11318     11321     11321     11322
     11321     11323     11321     11324     11324     11325     11324     11326
     11324     11327     11327     11328     11327     11329     11329     11330
     11329     11331     11331     11332     11331     11333     11331     11334
     11334     11335     11334     11336     11334     11337     11337     11338
     11337     11339     11337     11340     11340     11341     11340     11342
     11340     11343     11343     11344     11343     11345     11343     11346
     11346     11347     11346     11348     11346     11349     11349     11350
     11349     11351     11349     11352     11352     11353     11352     11354
     11352     11355     11303     11304     11304     11306     11304     11305
     11306     11307     11306     11308     11306     11356     11356     11357
     11356     11358     11356     11359     11359     11360     11359     11361
     11359     11362     11362     11363     11362     11364     11362     11365
     11365     11366     11365     11367     11365     11368     11368     11369
     11368     11370     11368     11371     11371     11372     11371     11373
     11371     11374     11374     11375     11374     11376     11376     11377
     11376     11378     11378     11379     11378     11380     11378     11381
     11381     11382     11381     11383     11381     11384     11384     11385
     11384     11386     11384     11387     11387     11388     11387     11389
     11387     11390     11390     11391     11390     11392     11390     11393
     11393     11394     11393     11395     11393     11396     11396     11397
     11396     11398     11396     11399     11399     11400     11399     11401
     11399     11402     11403     11407     11403     11411     11403     11415
     11407     11408     11407     11409     11407     11410     11411     11412
     11411     11413     11411     11414     11415     11416     11415     11417
     11415     11418     11403     11404     11404     11405     11404     11406
     11404     11419     11419     11420     11419     11421     11419     11425
     11426     11427     11425     11422     11422     11426     11422     11423
     11422     11424     11427     11428     11427     11429     11427     11430
     11430     11431     11430     11438     11430     11432     11438     11439
     11438     11440     11438     11441     11432     11433     11433     11435
     11433     11434     11435     11436     11435     11437     11435     11447
     11447     11448     11447     11449     11447     11450     11450     11451
     11450     11452     11450     11453     11453     11454     11453     11455
     11453     11456     11456     11457     11456     11458     11456     11459
     11459     11460     11459     11461     11459     11462     11462     11463
     11462     11464     11462     11465     11465     11466     11465     11467
     11467     11468     11467     11469     11469     11470     11469     11471
     11469     11472     11472     11473     11472     11474     11472     11475
     11475     11476     11475     11477     11475     11478     11478     11479
     11478     11480     11478     11481     11481     11482     11481     11483
     11481     11484     11484     11485     11484     11486     11484     11487
     11487     11488     11487     11489     11487     11490     11490     11491
     11490     11492     11490     11493     11441     11442     11442     11444
     11442     11443     11444     11445     11444     11446     11444     11494
     11494     11495     11494     11496     11494     11497     11497     11498
     11497     11499     11497     11500     11500     11501     11500     11502
     11500     11503     11503     11504     11503     11505     11503     11506
     11506     11507     11506     11508     11506     11509     11509     11510
     11509     11511     11509     11512     11512     11513     11512     11514
     11514     11515     11514     11516     11516     11517     11516     11518
     11516     11519     11519     11520     11519     11521     11519     11522
     11522     11523     11522     11524     11522     11525     11525     11526
     11525     11527     11525     11528     11528     11529     11528     11530
     11528     11531     11531     11532     11531     11533     11531     11534
     11534     11535     11534     11536     11534     11537     11537     11538
     11537     11539     11537     11540     11541     11545     11541     11549
     11541     11553     11545     11546     11545     11547     11545     11548
     11549     11550     11549     11551     11549     11552     11553     11554
     11553     11555     11553     11556     11541     11542     11542     11543
     11542     11544     11542     11557     11557     11558     11557     11559
     11557     11563     11564     11565     11563     11560     11560     11564
     11560     11561     11560     11562     11565     11566     11565     11567
     11565     11568     11568     11569     11568     11576     11568     11570
     11576     11577     11576     11578     11576     11579     11570     11571
     11571     11573     11571     11572     11573     11574     11573     11575
     11573     11585     11585     11586     11585     11587     11585     11588
     11588     11589     11588     11590     11588     11591     11591     11592
     11591     11593     11591     11594     11594     11595     11594     11596
     11594     11597     11597     11598     11597     11599     11597     11600
     11600     11601     11600     11602     11600     11603     11603     11604
     11603     11605     11605     11606     11605     11607     11607     11608
     11607     11609     11607     11610     11610     11611     11610     11612
     11610     11613     11613     11614     11613     11615     11613     11616
     11616     11617     11616     11618     11616     11619     11619     11620
     11619     11621     11619     11622     11622     11623     11622     11624
     11622     11625     11625     11626     11625     11627     11625     11628
     11628     11629     11628     11630     11628     11631     11579     11580
     11580     11582     11580     11581     11582     11583     11582     11584
     11582     11632     11632     11633     11632     11634     11632     11635
     11635     11636     11635     11637     11635     11638     11638     11639
     11638     11640     11638     11641     11641     11642     11641     11643
     11641     11644     11644     11645     11644     11646     11644     11647
     11647     11648     11647     11649     11647     11650     11650     11651
     11650     11652     11652     11653     11652     11654     11654     11655
     11654     11656     11654     11657     11657     11658     11657     11659
     11657     11660     11660     11661     11660     11662     11660     11663
     11663     11664     11663     11665     11663     11666     11666     11667
     11666     11668     11666     11669     11669     11670     11669     11671
     11669     11672     11672     11673     11672     11674     11672     11675
     11675     11676     11675     11677     11675     11678     11679     11683
     11679     11687     11679     11691     11683     11684     11683     11685
     11683     11686     11687     11688     11687     11689     11687     11690
     11691     11692     11691     11693     11691     11694     11679     11680
     11680     11681     11680     11682     11680     11695     11695     11696
     11695     11697     11695     11701     11702     11703     11701     11698
     11698     11702     11698     11699     11698     11700     11703     11704
     11703     11705     11703     11706     11706     11707     11706     11714
     11706     11708     11714     11715     11714     11716     11714     11717
     11708     11709     11709     11711     11709     11710     11711     11712
     11711     11713     11711     11723     11723     11724     11723     11725
     11723     11726     11726     11727     11726     11728     11726     11729
     11729     11730     11729     11731     11729     11732     11732     11733
     11732     11734     11732     11735     11735     11736     11735     11737
     11735     11738     11738     11739     11738     11740     11738     11741
     11741     11742     11741     11743     11743     11744     11743     11745
     11745     11746     11745     11747     11745     11748     11748     11749
     11748     11750     11748     11751     11751     11752     11751     11753
     11751     11754     11754     11755     11754     11756     11754     11757
     11757     11758     11757     11759     11757     11760     11760     11761
     11760     11762     11760     11763     11763     11764     11763     11765
     11763     11766     11766     11767     11766     11768     11766     11769
     11717     11718     11718     11720     11718     11719     11720     11721
     11720     11722     11720     11770     11770     11771     11770     11772
     11770     11773     11773     11774     11773     11775     11773     11776
     11776     11777     11776     11778     11776     11779     11779     11780
     11779     11781     11779     11782     11782     11783     11782     11784
     11782     11785     11785     11786     11785     11787     11785     11788
     11788     11789     11788     11790     11790     11791     11790     11792
     11792     11793     11792     11794     11792     11795     11795     11796
     11795     11797     11795     11798     11798     11799     11798     11800
     11798     11801     11801     11802     11801     11803     11801     11804
     11804     11805     11804     11806     11804     11807     11807     11808
     11807     11809     11807     11810     11810     11811     11810     11812
     11810     11813     11813     11814     11813     11815     11813     11816
     11817     11821     11817     11825     11817     11829     11821     11822
     11821     11823     11821     11824     11825     11826     11825     11827
     11825     11828     11829     11830     11829     11831     11829     11832
     11817     11818     11818     11819     11818     11820     11818     11833
     11833     11834     11833     11835     11833     11839     11840     11841
     11839     11836     11836     11840     11836     11837     11836     11838
     11841     11842     11841     11843     11841     11844     11844     11845
     11844     11852     11844     11846     11852     11853     11852     11854
     11852     11855     11846     11847     11847     11849     11847     11848
     11849     11850     11849     11851     11849     11861     11861     11862
     11861     11863     11861     11864     11864     11865     11864     11866
     11864     11867     11867     11868     11867     11869     11867     11870
     11870     11871     11870     11872     11870     11873     11873     11874
     11873     11875     11873     11876     11876     11877     11876     11878
     11876     11879     11879     11880     11879     11881     11881     11882
     11881     11883     11883     11884     11883     11885     11883     11886
     11886     11887     11886     11888     11886     11889     11889     11890
     11889     11891     11889     11892     11892     11893     11892     11894
     11892     11895     11895     11896     11895     11897     11895     11898
     11898     11899     11898     11900     11898     11901     11901     11902
     11901     11903     11901     11904     11904     11905     11904     11906
     11904     11907     11855     11856     11856     11858     11856     11857
     11858     11859     11858     11860     11858     11908     11908     11909
     11908     11910     11908     11911     11911     11912     11911     11913
     11911     11914     11914     11915     11914     11916     11914     11917
     11917     11918     11917     11919     11917     11920     11920     11921
     11920     11922     11920     11923     11923     11924     11923     11925
     11923     11926     11926     11927     11926     11928     11928     11929
     11928     11930     11930     11931     11930     11932     11930     11933
     11933     11934     11933     11935     11933     11936     11936     11937
     11936     11938     11936     11939     11939     11940     11939     11941
     11939     11942     11942     11943     11942     11944     11942     11945
     11945     11946     11945     11947     11945     11948     11948     11949
     11948     11950     11948     11951     11951     11952     11951     11953
     11951     11954     11955     11959     11955     11963     11955     11967
     11959     11960     11959     11961     11959     11962     11963     11964
     11963     11965     11963     11966     11967     11968     11967     11969
     11967     11970     11955     11956     11956     11957     11956     11958
     11956     11971     11971     11972     11971     11973     11971     11977
     11978     11979     11977     11974     11974     11978     11974     11975
     11974     11976     11979     11980     11979     11981     11979     11982
     11982     11983     11982     11990     11982     11984     11990     11991
     11990     11992     11990     11993     11984     11985     11985     11987
     11985     11986     11987     11988     11987     11989     11987     11999
     11999     12000     11999     12001     11999     12002     12002     12003
     12002     12004     12002     12005     12005     12006     12005     12007
     12005     12008     12008     12009     12008     12010     12008     12011
     12011     12012     12011     12013     12011     12014     12014     12015
     12014     12016     12014     12017     12017     12018     12017     12019
     12019     12020     12019     12021     12021     12022     12021     12023
     12021     12024     12024     12025     12024     12026     12024     12027
     12027     12028     12027     12029     12027     12030     12030     12031
     12030     12032     12030     12033     12033     12034     12033     12035
     12033     12036     12036     12037     12036     12038     12036     12039
     12039     12040     12039     12041     12039     12042     12042     12043
     12042     12044     12042     12045     11993     11994     11994     11996
     11994     11995     11996     11997     11996     11998     11996     12046
     12046     12047     12046     12048     12046     12049     12049     12050
     12049     12051     12049     12052     12052     12053     12052     12054
     12052     12055     12055     12056     12055     12057     12055     12058
     12058     12059     12058     12060     12058     12061     12061     12062
     12061     12063     12061     12064     12064     12065     12064     12066
     12066     12067     12066     12068     12068     12069     12068     12070
     12068     12071     12071     12072     12071     12073     12071     12074
     12074     12075     12074     12076     12074     12077     12077     12078
     12077     12079     12077     12080     12080     12081     12080     12082
     12080     12083     12083     12084     12083     12085     12083     12086
     12086     12087     12086     12088     12086     12089     12089     12090
     12089     12091     12089     12092     12093     12097     12093     12101
     12093     12105     12097     12098     12097     12099     12097     12100
     12101     12102     12101     12103     12101     12104     12105     12106
     12105     12107     12105     12108     12093     12094     12094     12095
     12094     12096     12094     12109     12109     12110     12109     12111
     12109     12115     12116     12117     12115     12112     12112     12116
     12112     12113     12112     12114     12117     12118     12117     12119
     12117     12120     12120     12121     12120     12128     12120     12122
     12128     12129     12128     12130     12128     12131     12122     12123
     12123     12125     12123     12124     12125     12126     12125     12127
     12125     12137     12137     12138     12137     12139     12137     12140
     12140     12141     12140     12142     12140     12143     12143     12144
     12143     12145     12143     12146     12146     12147     12146     12148
     12146     12149     12149     12150     12149     12151     12149     12152
     12152     12153     12152     12154     12152     12155     12155     12156
     12155     12157     12157     12158     12157     12159     12159     12160
     12159     12161     12159     12162     12162     12163     12162     12164
     12162     12165     12165     12166     12165     12167     12165     12168
     12168     12169     12168     12170     12168     12171     12171     12172
     12171     12173     12171     12174     12174     12175     12174     12176
     12174     12177     12177     12178     12177     12179     12177     12180
     12180     12181     12180     12182     12180     12183     12131     12132
     12132     12134     12132     12133     12134     12135     12134     12136
     12134     12184     12184     12185     12184     12186     12184     12187
     12187     12188     12187     12189     12187     12190     12190     12191
     12190     12192     12190     12193     12193     12194     12193     12195
     12193     12196     12196     12197     12196     12198     12196     12199
     12199     12200     12199     12201     12199     12202     12202     12203
     12202     12204     12204     12205     12204     12206     12206     12207
     12206     12208     12206     12209     12209     12210     12209     12211
     12209     12212     12212     12213     12212     12214     12212     12215
     12215     12216     12215     12217     12215     12218     12218     12219
     12218     12220     12218     12221     12221     12222     12221     12223
     12221     12224     12224     12225     12224     12226     12224     12227
     12227     12228     12227     12229     12227     12230     12231     12235
     12231     12239     12231     12243     12235     12236     12235     12237
     12235     12238     12239     12240     12239     12241     12239     12242
     12243     12244     12243     12245     12243     12246     12231     12232
     12232     12233     12232     12234     12232     12247     12247     12248
     12247     12249     12247     12253     12254     12255     12253     12250
     12250     12254     12250     12251     12250     12252     12255     12256
     12255     12257     12255     12258     12258     12259     12258     12266
     12258     12260     12266     12267     12266     12268     12266     12269
     12260     12261     12261     12263     12261     12262     12263     12264
     12263     12265     12263     12275     12275     12276     12275     12277
     12275     12278     12278     12279     12278     12280     12278     12281
     12281     12282     12281     12283     12281     12284     12284     12285
     12284     12286     12284     12287     12287     12288     12287     12289
     12287     12290     12290     12291     12290     12292     12290     12293
     12293     12294     12293     12295     12295     12296     12295     12297
     12297     12298     12297     12299     12297     12300     12300     12301
     12300     12302     12300     12303     12303     12304     12303     12305
     12303     12306     12306     12307     12306     12308     12306     12309
     12309     12310     12309     12311     12309     12312     12312     12313
     12312     12314     12312     12315     12315     12316     12315     12317
     12315     12318     12318     12319     12318     12320     12318     12321
     12269     12270     12270     12272     12270     12271     12272     12273
     12272     12274     12272     12322     12322     12323     12322     12324
     12322     12325     12325     12326     12325     12327     12325     12328
     12328     12329     12328     12330     12328     12331     12331     12332
     12331     12333     12331     12334     12334     12335     12334     12336
     12334     12337     12337     12338     12337     12339     12337     12340
     12340     12341     12340     12342     12342     12343     12342     12344
     12344     12345     12344     12346     12344     12347     12347     12348
     12347     12349     12347     12350     12350     12351     12350     12352
     12350     12353     12353     12354     12353     12355     12353     12356
     12356     12357     12356     12358     12356     12359     12359     12360
     12359     12361     12359     12362     12362     12363     12362     12364
     12362     12365     12365     12366     12365     12367     12365     12368
     12369     12373     12369     12377     12369     12381     12373     12374
     12373     12375     12373     12376     12377     12378     12377     12379
     12377     12380     12381     12382     12381     12383     12381     12384
     12369     12370     12370     12371     12370     12372     12370     12385
     12385     12386     12385     12387     12385     12391     12392     12393
     12391     12388     12388     12392     12388     12389     12388     12390
     12393     12394     12393     12395     12393     12396     12396     12397
     12396     12404     12396     12398     12404     12405     12404     12406
     12404     12407     12398     12399     12399     12401     12399     12400
     12401     12402     12401     12403     12401     12413     12413     12414
     12413     12415     12413     12416     12416     12417     12416     12418
     12416     12419     12419     12420     12419     12421     12419     12422
     12422     12423     12422     12424     12422     12425     12425     12426
     12425     12427     12425     12428     12428     12429     12428     12430
     12428     12431     12431     12432     12431     12433     12433     12434
     12433     12435     12435     12436     12435     12437     12435     12438
     12438     12439     12438     12440     12438     12441     12441     12442
     12441     12443     12441     12444     12444     12445     12444     12446
     12444     12447     12447     12448     12447     12449     12447     12450
     12450     12451     12450     12452     12450     12453     12453     12454
     12453     12455     12453     12456     12456     12457     12456     12458
     12456     12459     12407     12408     12408     12410     12408     12409
     12410     12411     12410     12412     12410     12460     12460     12461
     12460     12462     12460     12463     12463     12464     12463     12465
     12463     12466     12466     12467     12466     12468     12466     12469
     12469     12470     12469     12471     12469     12472     12472     12473
     12472     12474     12472     12475     12475     12476     12475     12477
     12475     12478     12478     12479     12478     12480     12480     12481
     12480     12482     12482     12483     12482     12484     12482     12485
     12485     12486     12485     12487     12485     12488     12488     12489
     12488     12490     12488     12491     12491     12492     12491     12493
     12491     12494     12494     12495     12494     12496     12494     12497
     12497     12498     12497     12499     12497     12500     12500     12501
     12500     12502     12500     12503     12503     12504     12503     12505
     12503     12506     12507     12511     12507     12515     12507     12519
     12511     12512     12511     12513     12511     12514     12515     12516
     12515     12517     12515     12518     12519     12520     12519     12521
     12519     12522     12507     12508     12508     12509     12508     12510
     12508     12523     12523     12524     12523     12525     12523     12529
     12530     12531     12529     12526     12526     12530     12526     12527
     12526     12528     12531     12532     12531     12533     12531     12534
     12534     12535     12534     12542     12534     12536     12542     12543
     12542     12544     12542     12545     12536     12537     12537     12539
     12537     12538     12539     12540     12539     12541     12539     12551
     12551     12552     12551     12553     12551     12554     12554     12555
     12554     12556     12554     12557     12557     12558     12557     12559
     12557     12560     12560     12561     12560     12562     12560     12563
     12563     12564     12563     12565     12563     12566     12566     12567
     12566     12568     12566     12569     12569     12570     12569     12571
     12571     12572     12571     12573     12573     12574     12573     12575
     12573     12576     12576     12577     12576     12578     12576     12579
     12579     12580     12579     12581     12579     12582     12582     12583
     12582     12584     12582     12585     12585     12586     12585     12587
     12585     12588     12588     12589     12588     12590     12588     12591
     12591     12592     12591     12593     12591     12594     12594     12595
     12594     12596     12594     12597     12545     12546     12546     12548
     12546     12547     12548     12549     12548     12550     12548     12598
     12598     12599     12598     12600     12598     12601     12601     12602
     12601     12603     12601     12604     12604     12605     12604     12606
     12604     12607     12607     12608     12607     12609     12607     12610
     12610     12611     12610     12612     12610     12613     12613     12614
     12613     12615     12613     12616     12616     12617     12616     12618
     12618     12619     12618     12620     12620     12621     12620     12622
     12620     12623     12623     12624     12623     12625     12623     12626
     12626     12627     12626     12628     12626     12629     12629     12630
     12629     12631     12629     12632     12632     12633     12632     12634
     12632     12635     12635     12636     12635     12637     12635     12638
     12638     12639     12638     12640     12638     12641     12641     12642
     12641     12643     12641     12644     12645     12649     12645     12653
     12645     12657     12649     12650     12649     12651     12649     12652
     12653     12654     12653     12655     12653     12656     12657     12658
     12657     12659     12657     12660     12645     12646     12646     12647
     12646     12648     12646     12661     12661     12662     12661     12663
     12661     12667     12668     12669     12667     12664     12664     12668
     12664     12665     12664     12666     12669     12670     12669     12671
     12669     12672     12672     12673     12672     12680     12672     12674
     12680     12681     12680     12682     12680     12683     12674     12675
     12675     12677     12675     12676     12677     12678     12677     12679
     12677     12689     12689     12690     12689     12691     12689     12692
     12692     12693     12692     12694     12692     12695     12695     12696
     12695     12697     12695     12698     12698     12699     12698     12700
     12698     12701     12701     12702     12701     12703     12701     12704
     12704     12705     12704     12706     12704     12707     12707     12708
     12707     12709     12709     12710     12709     12711     12711     12712
     12711     12713     12711     12714     12714     12715     12714     12716
     12714     12717     12717     12718     12717     12719     12717     12720
     12720     12721     12720     12722     12720     12723     12723     12724
     12723     12725     12723     12726     12726     12727     12726     12728
     12726     12729     12729     12730     12729     12731     12729     12732
     12732     12733     12732     12734     12732     12735     12683     12684
     12684     12686     12684     12685     12686     12687     12686     12688
     12686     12736     12736     12737     12736     12738     12736     12739
     12739     12740     12739     12741     12739     12742     12742     12743
     12742     12744     12742     12745     12745     12746     12745     12747
     12745     12748     12748     12749     12748     12750     12748     12751
     12751     12752     12751     12753     12751     12754     12754     12755
     12754     12756     12756     12757     12756     12758     12758     12759
     12758     12760     12758     12761     12761     12762     12761     12763
     12761     12764     12764     12765     12764     12766     12764     12767
     12767     12768     12767     12769     12767     12770     12770     12771
     12770     12772     12770     12773     12773     12774     12773     12775
     12773     12776     12776     12777     12776     12778     12776     12779
     12779     12780     12779     12781     12779     12782     12783     12787
     12783     12791     12783     12795     12787     12788     12787     12789
     12787     12790     12791     12792     12791     12793     12791     12794
     12795     12796     12795     12797     12795     12798     12783     12784
     12784     12785     12784     12786     12784     12799     12799     12800
     12799     12801     12799     12805     12806     12807     12805     12802
     12802     12806     12802     12803     12802     12804     12807     12808
     12807     12809     12807     12810     12810     12811     12810     12818
     12810     12812     12818     12819     12818     12820     12818     12821
     12812     12813     12813     12815     12813     12814     12815     12816
     12815     12817     12815     12827     12827     12828     12827     12829
     12827     12830     12830     12831     12830     12832     12830     12833
     12833     12834     12833     12835     12833     12836     12836     12837
     12836     12838     12836     12839     12839     12840     12839     12841
     12839     12842     12842     12843     12842     12844     12842     12845
     12845     12846     12845     12847     12847     12848     12847     12849
     12849     12850     12849     12851     12849     12852     12852     12853
     12852     12854     12852     12855     12855     12856     12855     12857
     12855     12858     12858     12859     12858     12860     12858     12861
     12861     12862     12861     12863     12861     12864     12864     12865
     12864     12866     12864     12867     12867     12868     12867     12869
     12867     12870     12870     12871     12870     12872     12870     12873
     12821     12822     12822     12824     12822     12823     12824     12825
     12824     12826     12824     12874     12874     12875     12874     12876
     12874     12877     12877     12878     12877     12879     12877     12880
     12880     12881     12880     12882     12880     12883     12883     12884
     12883     12885     12883     12886     12886     12887     12886     12888
     12886     12889     12889     12890     12889     12891     12889     12892
     12892     12893     12892     12894     12894     12895     12894     12896
     12896     12897     12896     12898     12896     12899     12899     12900
     12899     12901     12899     12902     12902     12903     12902     12904
     12902     12905     12905     12906     12905     12907     12905     12908
     12908     12909     12908     12910     12908     12911     12911     12912
     12911     12913     12911     12914     12914     12915     12914     12916
     12914     12917     12917     12918     12917     12919     12917     12920
     12921     12925     12921     12929     12921     12933     12925     12926
     12925     12927     12925     12928     12929     12930     12929     12931
     12929     12932     12933     12934     12933     12935     12933     12936
     12921     12922     12922     12923     12922     12924     12922     12937
     12937     12938     12937     12939     12937     12943     12944     12945
     12943     12940     12940     12944     12940     12941     12940     12942
     12945     12946     12945     12947     12945     12948     12948     12949
     12948     12956     12948     12950     12956     12957     12956     12958
     12956     12959     12950     12951     12951     12953     12951     12952
     12953     12954     12953     12955     12953     12965     12965     12966
     12965     12967     12965     12968     12968     12969     12968     12970
     12968     12971     12971     12972     12971     12973     12971     12974
     12974     12975     12974     12976     12974     12977     12977     12978
     12977     12979     12977     12980     12980     12981     12980     12982
     12980     12983     12983     12984     12983     12985     12985     12986
     12985     12987     12987     12988     12987     12989     12987     12990
     12990     12991     12990     12992     12990     12993     12993     12994
     12993     12995     12993     12996     12996     12997     12996     12998
     12996     12999     12999     13000     12999     13001     12999     13002
     13002     13003     13002     13004     13002     13005     13005     13006
     13005     13007     13005     13008     13008     13009     13008     13010
     13008     13011     12959     12960     12960     12962     12960     12961
     12962     12963     12962     12964     12962     13012     13012     13013
     13012     13014     13012     13015     13015     13016     13015     13017
     13015     13018     13018     13019     13018     13020     13018     13021
     13021     13022     13021     13023     13021     13024     13024     13025
     13024     13026     13024     13027     13027     13028     13027     13029
     13027     13030     13030     13031     13030     13032     13032     13033
     13032     13034     13034     13035     13034     13036     13034     13037
     13037     13038     13037     13039     13037     13040     13040     13041
     13040     13042     13040     13043     13043     13044     13043     13045
     13043     13046     13046     13047     13046     13048     13046     13049
     13049     13050     13049     13051     13049     13052     13052     13053
     13052     13054     13052     13055     13055     13056     13055     13057
     13055     13058     13059     13063     13059     13067     13059     13071
     13063     13064     13063     13065     13063     13066     13067     13068
     13067     13069     13067     13070     13071     13072     13071     13073
     13071     13074     13059     13060     13060     13061     13060     13062
     13060     13075     13075     13076     13075     13077     13075     13081
     13082     13083     13081     13078     13078     13082     13078     13079
     13078     13080     13083     13084     13083     13085     13083     13086
     13086     13087     13086     13094     13086     13088     13094     13095
     13094     13096     13094     13097     13088     13089     13089     13091
     13089     13090     13091     13092     13091     13093     13091     13103
     13103     13104     13103     13105     13103     13106     13106     13107
     13106     13108     13106     13109     13109     13110     13109     13111
     13109     13112     13112     13113     13112     13114     13112     13115
     13115     13116     13115     13117     13115     13118     13118     13119
     13118     13120     13118     13121     13121     13122     13121     13123
     13123     13124     13123     13125     13125     13126     13125     13127
     13125     13128     13128     13129     13128     13130     13128     13131
     13131     13132     13131     13133     13131     13134     13134     13135
     13134     13136     13134     13137     13137     13138     13137     13139
     13137     13140     13140     13141     13140     13142     13140     13143
     13143     13144     13143     13145     13143     13146     13146     13147
     13146     13148     13146     13149     13097     13098     13098     13100
     13098     13099     13100     13101     13100     13102     13100     13150
     13150     13151     13150     13152     13150     13153     13153     13154
     13153     13155     13153     13156     13156     13157     13156     13158
     13156     13159     13159     13160     13159     13161     13159     13162
     13162     13163     13162     13164     13162     13165     13165     13166
     13165     13167     13165     13168     13168     13169     13168     13170
     13170     13171     13170     13172     13172     13173     13172     13174
     13172     13175     13175     13176     13175     13177     13175     13178
     13178     13179     13178     13180     13178     13181     13181     13182
     13181     13183     13181     13184     13184     13185     13184     13186
     13184     13187     13187     13188     13187     13189     13187     13190
     13190     13191     13190     13192     13190     13193     13193     13194
     13193     13195     13193     13196     13197     13201     13197     13205
     13197     13209     13201     13202     13201     13203     13201     13204
     13205     13206     13205     13207     13205     13208     13209     13210
     13209     13211     13209     13212     13197     13198     13198     13199
     13198     13200     13198     13213     13213     13214     13213     13215
     13213     13219     13220     13221     13219     13216     13216     13220
     13216     13217     13216     13218     13221     13222     13221     13223
     13221     13224     13224     13225     13224     13232     13224     13226
     13232     13233     13232     13234     13232     13235     13226     13227
     13227     13229     13227     13228     13229     13230     13229     13231
     13229     13241     13241     13242     13241     13243     13241     13244
     13244     13245     13244     13246     13244     13247     13247     13248
     13247     13249     13247     13250     13250     13251     13250     13252
     13250     13253     13253     13254     13253     13255     13253     13256
     13256     13257     13256     13258     13256     13259     13259     13260
     13259     13261     13261     13262     13261     13263     13263     13264
     13263     13265     13263     13266     13266     13267     13266     13268
     13266     13269     13269     13270     13269     13271     13269     13272
     13272     13273     13272     13274     13272     13275     13275     13276
     13275     13277     13275     13278     13278     13279     13278     13280
     13278     13281     13281     13282     13281     13283     13281     13284
     13284     13285     13284     13286     13284     13287     13235     13236
     13236     13238     13236     13237     13238     13239     13238     13240
     13238     13288     13288     13289     13288     13290     13288     13291
     13291     13292     13291     13293     13291     13294     13294     13295
     13294     13296     13294     13297     13297     13298     13297     13299
     13297     13300     13300     13301     13300     13302     13300     13303
     13303     13304     13303     13305     13303     13306     13306     13307
     13306     13308     13308     13309     13308     13310     13310     13311
     13310     13312     13310     13313     13313     13314     13313     13315
     13313     13316     13316     13317     13316     13318     13316     13319
     13319     13320     13319     13321     13319     13322     13322     13323
     13322     13324     13322     13325     13325     13326     13325     13327
     13325     13328     13328     13329     13328     13330     13328     13331
     13331     13332     13331     13333     13331     13334     13335     13339
     13335     13343     13335     13347     13339     13340     13339     13341
     13339     13342     13343     13344     13343     13345     13343     13346
     13347     13348     13347     13349     13347     13350     13335     13336
     13336     13337     13336     13338     13336     13351     13351     13352
     13351     13353     13351     13357     13358     13359     13357     13354
     13354     13358     13354     13355     13354     13356     13359     13360
     13359     13361     13359     13362     13362     13363     13362     13370
     13362     13364     13370     13371     13370     13372     13370     13373
     13364     13365     13365     13367     13365     13366     13367     13368
     13367     13369     13367     13379     13379     13380     13379     13381
     13379     13382     13382     13383     13382     13384     13382     13385
     13385     13386     13385     13387     13385     13388     13388     13389
     13388     13390     13388     13391     13391     13392     13391     13393
     13391     13394     13394     13395     13394     13396     13394     13397
     13397     13398     13397     13399     13399     13400     13399     13401
     13401     13402     13401     13403     13401     13404     13404     13405
     13404     13406     13404     13407     13407     13408     13407     13409
     13407     13410     13410     13411     13410     13412     13410     13413
     13413     13414     13413     13415     13413     13416     13416     13417
     13416     13418     13416     13419     13419     13420     13419     13421
     13419     13422     13422     13423     13422     13424     13422     13425
     13373     13374     13374     13376     13374     13375     13376     13377
     13376     13378     13376     13426     13426     13427     13426     13428
     13426     13429     13429     13430     13429     13431     13429     13432
     13432     13433     13432     13434     13432     13435     13435     13436
     13435     13437     13435     13438     13438     13439     13438     13440
     13438     13441     13441     13442     13441     13443     13441     13444
     13444     13445     13444     13446     13446     13447     13446     13448
     13448     13449     13448     13450     13448     13451     13451     13452
     13451     13453     13451     13454     13454     13455     13454     13456
     13454     13457     13457     13458     13457     13459     13457     13460
     13460     13461     13460     13462     13460     13463     13463     13464
     13463     13465     13463     13466     13466     13467     13466     13468
     13466     13469     13469     13470     13469     13471     13469     13472
     13473     13477     13473     13481     13473     13485     13477     13478
     13477     13479     13477     13480     13481     13482     13481     13483
     13481     13484     13485     13486     13485     13487     13485     13488
     13473     13474     13474     13475     13474     13476     13474     13489
     13489     13490     13489     13491     13489     13495     13496     13497
     13495     13492     13492     13496     13492     13493     13492     13494
     13497     13498     13497     13499     13497     13500     13500     13501
     13500     13508     13500     13502     13508     13509     13508     13510
     13508     13511     13502     13503     13503     13505     13503     13504
     13505     13506     13505     13507     13505     13517     13517     13518
     13517     13519     13517     13520     13520     13521     13520     13522
     13520     13523     13523     13524     13523     13525     13523     13526
     13526     13527     13526     13528     13526     13529     13529     13530
     13529     13531     13529     13532     13532     13533     13532     13534
     13532     13535     13535     13536     13535     13537     13537     13538
     13537     13539     13539     13540     13539     13541     13539     13542
     13542     13543     13542     13544     13542     13545     13545     13546
     13545     13547     13545     13548     13548     13549     13548     13550
     13548     13551     13551     13552     13551     13553     13551     13554
     13554     13555     13554     13556     13554     13557     13557     13558
     13557     13559     13557     13560     13560     13561     13560     13562
     13560     13563     13511     13512     13512     13514     13512     13513
     13514     13515     13514     13516     13514     13564     13564     13565
     13564     13566     13564     13567     13567     13568     13567     13569
     13567     13570     13570     13571     13570     13572     13570     13573
     13573     13574     13573     13575     13573     13576     13576     13577
     13576     13578     13576     13579     13579     13580     13579     13581
     13579     13582     13582     13583     13582     13584     13584     13585
     13584     13586     13586     13587     13586     13588     13586     13589
     13589     13590     13589     13591     13589     13592     13592     13593
     13592     13594     13592     13595     13595     13596     13595     13597
     13595     13598     13598     13599     13598     13600     13598     13601
     13601     13602     13601     13603     13601     13604     13604     13605
     13604     13606     13604     13607     13607     13608     13607     13609
     13607     13610     13611     13615     13611     13619     13611     13623
     13615     13616     13615     13617     13615     13618     13619     13620
     13619     13621     13619     13622     13623     13624     13623     13625
     13623     13626     13611     13612     13612     13613     13612     13614
     13612     13627     13627     13628     13627     13629     13627     13633
     13634     13635     13633     13630     13630     13634     13630     13631
     13630     13632     13635     13636     13635     13637     13635     13638
     13638     13639     13638     13646     13638     13640     13646     13647
     13646     13648     13646     13649     13640     13641     13641     13643
     13641     13642     13643     13644     13643     13645     13643     13655
     13655     13656     13655     13657     13655     13658     13658     13659
     13658     13660     13658     13661     13661     13662     13661     13663
     13661     13664     13664     13665     13664     13666     13664     13667
     13667     13668     13667     13669     13667     13670     13670     13671
     13670     13672     13670     13673     13673     13674     13673     13675
     13675     13676     13675     13677     13677     13678     13677     13679
     13677     13680     13680     13681     13680     13682     13680     13683
     13683     13684     13683     13685     13683     13686     13686     13687
     13686     13688     13686     13689     13689     13690     13689     13691
     13689     13692     13692     13693     13692     13694     13692     13695
     13695     13696     13695     13697     13695     13698     13698     13699
     13698     13700     13698     13701     13649     13650     13650     13652
     13650     13651     13652     13653     13652     13654     13652     13702
     13702     13703     13702     13704     13702     13705     13705     13706
     13705     13707     13705     13708     13708     13709     13708     13710
     13708     13711     13711     13712     13711     13713     13711     13714
     13714     13715     13714     13716     13714     13717     13717     13718
     13717     13719     13717     13720     13720     13721     13720     13722
     13722     13723     13722     13724     13724     13725     13724     13726
     13724     13727     13727     13728     13727     13729     13727     13730
     13730     13731     13730     13732     13730     13733     13733     13734
     13733     13735     13733     13736     13736     13737     13736     13738
     13736     13739     13739     13740     13739     13741     13739     13742
     13742     13743     13742     13744     13742     13745     13745     13746
     13745     13747     13745     13748     13749     13753     13749     13757
     13749     13761     13753     13754     13753     13755     13753     13756
     13757     13758     13757     13759     13757     13760     13761     13762
     13761     13763     13761     13764     13749     13750     13750     13751
     13750     13752     13750     13765     13765     13766     13765     13767
     13765     13771     13772     13773     13771     13768     13768     13772
     13768     13769     13768     13770     13773     13774     13773     13775
     13773     13776     13776     13777     13776     13784     13776     13778
     13784     13785     13784     13786     13784     13787     13778     13779
     13779     13781     13779     13780     13781     13782     13781     13783
     13781     13793     13793     13794     13793     13795     13793     13796
     13796     13797     13796     13798     13796     13799     13799     13800
     13799     13801     13799     13802     13802     13803     13802     13804
     13802     13805     13805     13806     13805     13807     13805     13808
     13808     13809     13808     13810     13808     13811     13811     13812
     13811     13813     13813     13814     13813     13815     13815     13816
     13815     13817     13815     13818     13818     13819     13818     13820
     13818     13821     13821     13822     13821     13823     13821     13824
     13824     13825     13824     13826     13824     13827     13827     13828
     13827     13829     13827     13830     13830     13831     13830     13832
     13830     13833     13833     13834     13833     13835     13833     13836
     13836     13837     13836     13838     13836     13839     13787     13788
     13788     13790     13788     13789     13790     13791     13790     13792
     13790     13840     13840     13841     13840     13842     13840     13843
     13843     13844     13843     13845     13843     13846     13846     13847
     13846     13848     13846     13849     13849     13850     13849     13851
     13849     13852     13852     13853     13852     13854     13852     13855
     13855     13856     13855     13857     13855     13858     13858     13859
     13858     13860     13860     13861     13860     13862     13862     13863
     13862     13864     13862     13865     13865     13866     13865     13867
     13865     13868     13868     13869     13868     13870     13868     13871
     13871     13872     13871     13873     13871     13874     13874     13875
     13874     13876     13874     13877     13877     13878     13877     13879
     13877     13880     13880     13881     13880     13882     13880     13883
     13883     13884     13883     13885     13883     13886     13887     13891
     13887     13895     13887     13899     13891     13892     13891     13893
     13891     13894     13895     13896     13895     13897     13895     13898
     13899     13900     13899     13901     13899     13902     13887     13888
     13888     13889     13888     13890     13888     13903     13903     13904
     13903     13905     13903     13909     13910     13911     13909     13906
     13906     13910     13906     13907     13906     13908     13911     13912
     13911     13913     13911     13914     13914     13915     13914     13922
     13914     13916     13922     13923     13922     13924     13922     13925
     13916     13917     13917     13919     13917     13918     13919     13920
     13919     13921     13919     13931     13931     13932     13931     13933
     13931     13934     13934     13935     13934     13936     13934     13937
     13937     13938     13937     13939     13937     13940     13940     13941
     13940     13942     13940     13943     13943     13944     13943     13945
     13943     13946     13946     13947     13946     13948     13946     13949
     13949     13950     13949     13951     13951     13952     13951     13953
     13953     13954     13953     13955     13953     13956     13956     13957
     13956     13958     13956     13959     13959     13960     13959     13961
     13959     13962     13962     13963     13962     13964     13962     13965
     13965     13966     13965     13967     13965     13968     13968     13969
     13968     13970     13968     13971     13971     13972     13971     13973
     13971     13974     13974     13975     13974     13976     13974     13977
     13925     13926     13926     13928     13926     13927     13928     13929
     13928     13930     13928     13978     13978     13979     13978     13980
     13978     13981     13981     13982     13981     13983     13981     13984
     13984     13985     13984     13986     13984     13987     13987     13988
     13987     13989     13987     13990     13990     13991     13990     13992
     13990     13993     13993     13994     13993     13995     13993     13996
     13996     13997     13996     13998     13998     13999     13998     14000
     14000     14001     14000     14002     14000     14003     14003     14004
     14003     14005     14003     14006     14006     14007     14006     14008
     14006     14009     14009     14010     14009     14011     14009     14012
     14012     14013     14012     14014     14012     14015     14015     14016
     14015     14017     14015     14018     14018     14019     14018     14020
     14018     14021     14021     14022     14021     14023     14021     14024
     14025     14029     14025     14033     14025     14037     14029     14030
     14029     14031     14029     14032     14033     14034     14033     14035
     14033     14036     14037     14038     14037     14039     14037     14040
     14025     14026     14026     14027     14026     14028     14026     14041
     14041     14042     14041     14043     14041     14047     14048     14049
     14047     14044     14044     14048     14044     14045     14044     14046
     14049     14050     14049     14051     14049     14052     14052     14053
     14052     14060     14052     14054     14060     14061     14060     14062
     14060     14063     14054     14055     14055     14057     14055     14056
     14057     14058     14057     14059     14057     14069     14069     14070
     14069     14071     14069     14072     14072     14073     14072     14074
     14072     14075     14075     14076     14075     14077     14075     14078
     14078     14079     14078     14080     14078     14081     14081     14082
     14081     14083     14081     14084     14084     14085     14084     14086
     14084     14087     14087     14088     14087     14089     14089     14090
     14089     14091     14091     14092     14091     14093     14091     14094
     14094     14095     14094     14096     14094     14097     14097     14098
     14097     14099     14097     14100     14100     14101     14100     14102
     14100     14103     14103     14104     14103     14105     14103     14106
     14106     14107     14106     14108     14106     14109     14109     14110
     14109     14111     14109     14112     14112     14113     14112     14114
     14112     14115     14063     14064     14064     14066     14064     14065
     14066     14067     14066     14068     14066     14116     14116     14117
     14116     14118     14116     14119     14119     14120     14119     14121
     14119     14122     14122     14123     14122     14124     14122     14125
     14125     14126     14125     14127     14125     14128     14128     14129
     14128     14130     14128     14131     14131     14132     14131     14133
     14131     14134     14134     14135     14134     14136     14136     14137
     14136     14138     14138     14139     14138     14140     14138     14141
     14141     14142     14141     14143     14141     14144     14144     14145
     14144     14146     14144     14147     14147     14148     14147     14149
     14147     14150     14150     14151     14150     14152     14150     14153
     14153     14154     14153     14155     14153     14156     14156     14157
     14156     14158     14156     14159     14159     14160     14159     14161
     14159     14162     14163     14167     14163     14171     14163     14175
     14167     14168     14167     14169     14167     14170     14171     14172
     14171     14173     14171     14174     14175     14176     14175     14177
     14175     14178     14163     14164     14164     14165     14164     14166
     14164     14179     14179     14180     14179     14181     14179     14185
     14186     14187     14185     14182     14182     14186     14182     14183
     14182     14184     14187     14188     14187     14189     14187     14190
     14190     14191     14190     14198     14190     14192     14198     14199
     14198     14200     14198     14201     14192     14193     14193     14195
     14193     14194     14195     14196     14195     14197     14195     14207
     14207     14208     14207     14209     14207     14210     14210     14211
     14210     14212     14210     14213     14213     14214     14213     14215
     14213     14216     14216     14217     14216     14218     14216     14219
     14219     14220     14219     14221     14219     14222     14222     14223
     14222     14224     14222     14225     14225     14226     14225     14227
     14227     14228     14227     14229     14229     14230     14229     14231
     14229     14232     14232     14233     14232     14234     14232     14235
     14235     14236     14235     14237     14235     14238     14238     14239
     14238     14240     14238     14241     14241     14242     14241     14243
     14241     14244     14244     14245     14244     14246     14244     14247
     14247     14248     14247     14249     14247     14250     14250     14251
     14250     14252     14250     14253     14201     14202     14202     14204
     14202     14203     14204     14205     14204     14206     14204     14254
     14254     14255     14254     14256     14254     14257     14257     14258
     14257     14259     14257     14260     14260     14261     14260     14262
     14260     14263     14263     14264     14263     14265     14263     14266
     14266     14267     14266     14268     14266     14269     14269     14270
     14269     14271     14269     14272     14272     14273     14272     14274
     14274     14275     14274     14276     14276     14277     14276     14278
     14276     14279     14279     14280     14279     14281     14279     14282
     14282     14283     14282     14284     14282     14285     14285     14286
     14285     14287     14285     14288     14288     14289     14288     14290
     14288     14291     14291     14292     14291     14293     14291     14294
     14294     14295     14294     14296     14294     14297     14297     14298
     14297     14299     14297     14300     14301     14305     14301     14309
     14301     14313     14305     14306     14305     14307     14305     14308
     14309     14310     14309     14311     14309     14312     14313     14314
     14313     14315     14313     14316     14301     14302     14302     14303
     14302     14304     14302     14317     14317     14318     14317     14319
     14317     14323     14324     14325     14323     14320     14320     14324
     14320     14321     14320     14322     14325     14326     14325     14327
     14325     14328     14328     14329     14328     14336     14328     14330
     14336     14337     14336     14338     14336     14339     14330     14331
     14331     14333     14331     14332     14333     14334     14333     14335
     14333     14345     14345     14346     14345     14347     14345     14348
     14348     14349     14348     14350     14348     14351     14351     14352
     14351     14353     14351     14354     14354     14355     14354     14356
     14354     14357     14357     14358     14357     14359     14357     14360
     14360     14361     14360     14362     14360     14363     14363     14364
     14363     14365     14365     14366     14365     14367     14367     14368
     14367     14369     14367     14370     14370     14371     14370     14372
     14370     14373     14373     14374     14373     14375     14373     14376
     14376     14377     14376     14378     14376     14379     14379     14380
     14379     14381     14379     14382     14382     14383     14382     14384
     14382     14385     14385     14386     14385     14387     14385     14388
     14388     14389     14388     14390     14388     14391     14339     14340
     14340     14342     14340     14341     14342     14343     14342     14344
     14342     14392     14392     14393     14392     14394     14392     14395
     14395     14396     14395     14397     14395     14398     14398     14399
     14398     14400     14398     14401     14401     14402     14401     14403
     14401     14404     14404     14405     14404     14406     14404     14407
     14407     14408     14407     14409     14407     14410     14410     14411
     14410     14412     14412     14413     14412     14414     14414     14415
     14414     14416     14414     14417     14417     14418     14417     14419
     14417     14420     14420     14421     14420     14422     14420     14423
     14423     14424     14423     14425     14423     14426     14426     14427
     14426     14428     14426     14429     14429     14430     14429     14431
     14429     14432     14432     14433     14432     14434     14432     14435
     14435     14436     14435     14437     14435     14438     14439     14443
     14439     14447     14439     14451     14443     14444     14443     14445
     14443     14446     14447     14448     14447     14449     14447     14450
     14451     14452     14451     14453     14451     14454     14439     14440
     14440     14441     14440     14442     14440     14455     14455     14456
     14455     14457     14455     14461     14462     14463     14461     14458
     14458     14462     14458     14459     14458     14460     14463     14464
     14463     14465     14463     14466     14466     14467     14466     14474
     14466     14468     14474     14475     14474     14476     14474     14477
     14468     14469     14469     14471     14469     14470     14471     14472
     14471     14473     14471     14483     14483     14484     14483     14485
     14483     14486     14486     14487     14486     14488     14486     14489
     14489     14490     14489     14491     14489     14492     14492     14493
     14492     14494     14492     14495     14495     14496     14495     14497
     14495     14498     14498     14499     14498     14500     14498     14501
     14501     14502     14501     14503     14503     14504     14503     14505
     14505     14506     14505     14507     14505     14508     14508     14509
     14508     14510     14508     14511     14511     14512     14511     14513
     14511     14514     14514     14515     14514     14516     14514     14517
     14517     14518     14517     14519     14517     14520     14520     14521
     14520     14522     14520     14523     14523     14524     14523     14525
     14523     14526     14526     14527     14526     14528     14526     14529
     14477     14478     14478     14480     14478     14479     14480     14481
     14480     14482     14480     14530     14530     14531     14530     14532
     14530     14533     14533     14534     14533     14535     14533     14536
     14536     14537     14536     14538     14536     14539     14539     14540
     14539     14541     14539     14542     14542     14543     14542     14544
     14542     14545     14545     14546     14545     14547     14545     14548
     14548     14549     14548     14550     14550     14551     14550     14552
     14552     14553     14552     14554     14552     14555     14555     14556
     14555     14557     14555     14558     14558     14559     14558     14560
     14558     14561     14561     14562     14561     14563     14561     14564
     14564     14565     14564     14566     14564     14567     14567     14568
     14567     14569     14567     14570     14570     14571     14570     14572
     14570     14573     14573     14574     14573     14575     14573     14576
     14577     14581     14577     14585     14577     14589     14581     14582
     14581     14583     14581     14584     14585     14586     14585     14587
     14585     14588     14589     14590     14589     14591     14589     14592
     14577     14578     14578     14579     14578     14580     14578     14593
     14593     14594     14593     14595     14593     14599     14600     14601
     14599     14596     14596     14600     14596     14597     14596     14598
     14601     14602     14601     14603     14601     14604     14604     14605
     14604     14612     14604     14606     14612     14613     14612     14614
     14612     14615     14606     14607     14607     14609     14607     14608
     14609     14610     14609     14611     14609     14621     14621     14622
     14621     14623     14621     14624     14624     14625     14624     14626
     14624     14627     14627     14628     14627     14629     14627     14630
     14630     14631     14630     14632     14630     14633     14633     14634
     14633     14635     14633     14636     14636     14637     14636     14638
     14636     14639     14639     14640     14639     14641     14641     14642
     14641     14643     14643     14644     14643     14645     14643     14646
     14646     14647     14646     14648     14646     14649     14649     14650
     14649     14651     14649     14652     14652     14653     14652     14654
     14652     14655     14655     14656     14655     14657     14655     14658
     14658     14659     14658     14660     14658     14661     14661     14662
     14661     14663     14661     14664     14664     14665     14664     14666
     14664     14667     14615     14616     14616     14618     14616     14617
     14618     14619     14618     14620     14618     14668     14668     14669
     14668     14670     14668     14671     14671     14672     14671     14673
     14671     14674     14674     14675     14674     14676     14674     14677
     14677     14678     14677     14679     14677     14680     14680     14681
     14680     14682     14680     14683     14683     14684     14683     14685
     14683     14686     14686     14687     14686     14688     14688     14689
     14688     14690     14690     14691     14690     14692     14690     14693
     14693     14694     14693     14695     14693     14696     14696     14697
     14696     14698     14696     14699     14699     14700     14699     14701
     14699     14702     14702     14703     14702     14704     14702     14705
     14705     14706     14705     14707     14705     14708     14708     14709
     14708     14710     14708     14711     14711     14712     14711     14713
     14711     14714     14715     14719     14715     14723     14715     14727
     14719     14720     14719     14721     14719     14722     14723     14724
     14723     14725     14723     14726     14727     14728     14727     14729
     14727     14730     14715     14716     14716     14717     14716     14718
     14716     14731     14731     14732     14731     14733     14731     14737
     14738     14739     14737     14734     14734     14738     14734     14735
     14734     14736     14739     14740     14739     14741     14739     14742
     14742     14743     14742     14750     14742     14744     14750     14751
     14750     14752     14750     14753     14744     14745     14745     14747
     14745     14746     14747     14748     14747     14749     14747     14759
     14759     14760     14759     14761     14759     14762     14762     14763
     14762     14764     14762     14765     14765     14766     14765     14767
     14765     14768     14768     14769     14768     14770     14768     14771
     14771     14772     14771     14773     14771     14774     14774     14775
     14774     14776     14774     14777     14777     14778     14777     14779
     14779     14780     14779     14781     14781     14782     14781     14783
     14781     14784     14784     14785     14784     14786     14784     14787
     14787     14788     14787     14789     14787     14790     14790     14791
     14790     14792     14790     14793     14793     14794     14793     14795
     14793     14796     14796     14797     14796     14798     14796     14799
     14799     14800     14799     14801     14799     14802     14802     14803
     14802     14804     14802     14805     14753     14754     14754     14756
     14754     14755     14756     14757     14756     14758     14756     14806
     14806     14807     14806     14808     14806     14809     14809     14810
     14809     14811     14809     14812     14812     14813     14812     14814
     14812     14815     14815     14816     14815     14817     14815     14818
     14818     14819     14818     14820     14818     14821     14821     14822
     14821     14823     14821     14824     14824     14825     14824     14826
     14826     14827     14826     14828     14828     14829     14828     14830
     14828     14831     14831     14832     14831     14833     14831     14834
     14834     14835     14834     14836     14834     14837     14837     14838
     14837     14839     14837     14840     14840     14841     14840     14842
     14840     14843     14843     14844     14843     14845     14843     14846
     14846     14847     14846     14848     14846     14849     14849     14850
     14849     14851     14849     14852     14853     14857     14853     14861
     14853     14865     14857     14858     14857     14859     14857     14860
     14861     14862     14861     14863     14861     14864     14865     14866
     14865     14867     14865     14868     14853     14854     14854     14855
     14854     14856     14854     14869     14869     14870     14869     14871
     14869     14875     14876     14877     14875     14872     14872     14876
     14872     14873     14872     14874     14877     14878     14877     14879
     14877     14880     14880     14881     14880     14888     14880     14882
     14888     14889     14888     14890     14888     14891     14882     14883
     14883     14885     14883     14884     14885     14886     14885     14887
     14885     14897     14897     14898     14897     14899     14897     14900
     14900     14901     14900     14902     14900     14903     14903     14904
     14903     14905     14903     14906     14906     14907     14906     14908
     14906     14909     14909     14910     14909     14911     14909     14912
     14912     14913     14912     14914     14912     14915     14915     14916
     14915     14917     14917     14918     14917     14919     14919     14920
     14919     14921     14919     14922     14922     14923     14922     14924
     14922     14925     14925     14926     14925     14927     14925     14928
     14928     14929     14928     14930     14928     14931     14931     14932
     14931     14933     14931     14934     14934     14935     14934     14936
     14934     14937     14937     14938     14937     14939     14937     14940
     14940     14941     14940     14942     14940     14943     14891     14892
     14892     14894     14892     14893     14894     14895     14894     14896
     14894     14944     14944     14945     14944     14946     14944     14947
     14947     14948     14947     14949     14947     14950     14950     14951
     14950     14952     14950     14953     14953     14954     14953     14955
     14953     14956     14956     14957     14956     14958     14956     14959
     14959     14960     14959     14961     14959     14962     14962     14963
     14962     14964     14964     14965     14964     14966     14966     14967
     14966     14968     14966     14969     14969     14970     14969     14971
     14969     14972     14972     14973     14972     14974     14972     14975
     14975     14976     14975     14977     14975     14978     14978     14979
     14978     14980     14978     14981     14981     14982     14981     14983
     14981     14984     14984     14985     14984     14986     14984     14987
     14987     14988     14987     14989     14987     14990     14991     14995
     14991     14999     14991     15003     14995     14996     14995     14997
     14995     14998     14999     15000     14999     15001     14999     15002
     15003     15004     15003     15005     15003     15006     14991     14992
     14992     14993     14992     14994     14992     15007     15007     15008
     15007     15009     15007     15013     15014     15015     15013     15010
     15010     15014     15010     15011     15010     15012     15015     15016
     15015     15017     15015     15018     15018     15019     15018     15026
     15018     15020     15026     15027     15026     15028     15026     15029
     15020     15021     15021     15023     15021     15022     15023     15024
     15023     15025     15023     15035     15035     15036     15035     15037
     15035     15038     15038     15039     15038     15040     15038     15041
     15041     15042     15041     15043     15041     15044     15044     15045
     15044     15046     15044     15047     15047     15048     15047     15049
     15047     15050     15050     15051     15050     15052     15050     15053
     15053     15054     15053     15055     15055     15056     15055     15057
     15057     15058     15057     15059     15057     15060     15060     15061
     15060     15062     15060     15063     15063     15064     15063     15065
     15063     15066     15066     15067     15066     15068     15066     15069
     15069     15070     15069     15071     15069     15072     15072     15073
     15072     15074     15072     15075     15075     15076     15075     15077
     15075     15078     15078     15079     15078     15080     15078     15081
     15029     15030     15030     15032     15030     15031     15032     15033
     15032     15034     15032     15082     15082     15083     15082     15084
     15082     15085     15085     15086     15085     15087     15085     15088
     15088     15089     15088     15090     15088     15091     15091     15092
     15091     15093     15091     15094     15094     15095     15094     15096
     15094     15097     15097     15098     15097     15099     15097     15100
     15100     15101     15100     15102     15102     15103     15102     15104
     15104     15105     15104     15106     15104     15107     15107     15108
     15107     15109     15107     15110     15110     15111     15110     15112
     15110     15113     15113     15114     15113     15115     15113     15116
     15116     15117     15116     15118     15116     15119     15119     15120
     15119     15121     15119     15122     15122     15123     15122     15124
     15122     15125     15125     15126     15125     15127     15125     15128
     15129     15133     15129     15137     15129     15141     15133     15134
     15133     15135     15133     15136     15137     15138     15137     15139
     15137     15140     15141     15142     15141     15143     15141     15144
     15129     15130     15130     15131     15130     15132     15130     15145
     15145     15146     15145     15147     15145     15151     15152     15153
     15151     15148     15148     15152     15148     15149     15148     15150
     15153     15154     15153     15155     15153     15156     15156     15157
     15156     15164     15156     15158     15164     15165     15164     15166
     15164     15167     15158     15159     15159     15161     15159     15160
     15161     15162     15161     15163     15161     15173     15173     15174
     15173     15175     15173     15176     15176     15177     15176     15178
     15176     15179     15179     15180     15179     15181     15179     15182
     15182     15183     15182     15184     15182     15185     15185     15186
     15185     15187     15185     15188     15188     15189     15188     15190
     15188     15191     15191     15192     15191     15193     15193     15194
     15193     15195     15195     15196     15195     15197     15195     15198
     15198     15199     15198     15200     15198     15201     15201     15202
     15201     15203     15201     15204     15204     15205     15204     15206
     15204     15207     15207     15208     15207     15209     15207     15210
     15210     15211     15210     15212     15210     15213     15213     15214
     15213     15215     15213     15216     15216     15217     15216     15218
     15216     15219     15167     15168     15168     15170     15168     15169
     15170     15171     15170     15172     15170     15220     15220     15221
     15220     15222     15220     15223     15223     15224     15223     15225
     15223     15226     15226     15227     15226     15228     15226     15229
     15229     15230     15229     15231     15229     15232     15232     15233
     15232     15234     15232     15235     15235     15236     15235     15237
     15235     15238     15238     15239     15238     15240     15240     15241
     15240     15242     15242     15243     15242     15244     15242     15245
     15245     15246     15245     15247     15245     15248     15248     15249
     15248     15250     15248     15251     15251     15252     15251     15253
     15251     15254     15254     15255     15254     15256     15254     15257
     15257     15258     15257     15259     15257     15260     15260     15261
     15260     15262     15260     15263     15263     15264     15263     15265
     15263     15266     15267     15271     15267     15275     15267     15279
     15271     15272     15271     15273     15271     15274     15275     15276
     15275     15277     15275     15278     15279     15280     15279     15281
     15279     15282     15267     15268     15268     15269     15268     15270
     15268     15283     15283     15284     15283     15285     15283     15289
     15290     15291     15289     15286     15286     15290     15286     15287
     15286     15288     15291     15292     15291     15293     15291     15294
     15294     15295     15294     15302     15294     15296     15302     15303
     15302     15304     15302     15305     15296     15297     15297     15299
     15297     15298     15299     15300     15299     15301     15299     15311
     15311     15312     15311     15313     15311     15314     15314     15315
     15314     15316     15314     15317     15317     15318     15317     15319
     15317     15320     15320     15321     15320     15322     15320     15323
     15323     15324     15323     15325     15323     15326     15326     15327
     15326     15328     15326     15329     15329     15330     15329     15331
     15331     15332     15331     15333     15333     15334     15333     15335
     15333     15336     15336     15337     15336     15338     15336     15339
     15339     15340     15339     15341     15339     15342     15342     15343
     15342     15344     15342     15345     15345     15346     15345     15347
     15345     15348     15348     15349     15348     15350     15348     15351
     15351     15352     15351     15353     15351     15354     15354     15355
     15354     15356     15354     15357     15305     15306     15306     15308
     15306     15307     15308     15309     15308     15310     15308     15358
     15358     15359     15358     15360     15358     15361     15361     15362
     15361     15363     15361     15364     15364     15365     15364     15366
     15364     15367     15367     15368     15367     15369     15367     15370
     15370     15371     15370     15372     15370     15373     15373     15374
     15373     15375     15373     15376     15376     15377     15376     15378
     15378     15379     15378     15380     15380     15381     15380     15382
     15380     15383     15383     15384     15383     15385     15383     15386
     15386     15387     15386     15388     15386     15389     15389     15390
     15389     15391     15389     15392     15392     15393     15392     15394
     15392     15395     15395     15396     15395     15397     15395     15398
     15398     15399     15398     15400     15398     15401     15401     15402
     15401     15403     15401     15404     15405     15409     15405     15413
     15405     15417     15409     15410     15409     15411     15409     15412
     15413     15414     15413     15415     15413     15416     15417     15418
     15417     15419     15417     15420     15405     15406     15406     15407
     15406     15408     15406     15421     15421     15422     15421     15423
     15421     15427     15428     15429     15427     15424     15424     15428
     15424     15425     15424     15426     15429     15430     15429     15431
     15429     15432     15432     15433     15432     15440     15432     15434
     15440     15441     15440     15442     15440     15443     15434     15435
     15435     15437     15435     15436     15437     15438     15437     15439
     15437     15449     15449     15450     15449     15451     15449     15452
     15452     15453     15452     15454     15452     15455     15455     15456
     15455     15457     15455     15458     15458     15459     15458     15460
     15458     15461     15461     15462     15461     15463     15461     15464
     15464     15465     15464     15466     15464     15467     15467     15468
     15467     15469     15469     15470     15469     15471     15471     15472
     15471     15473     15471     15474     15474     15475     15474     15476
     15474     15477     15477     15478     15477     15479     15477     15480
     15480     15481     15480     15482     15480     15483     15483     15484
     15483     15485     15483     15486     15486     15487     15486     15488
     15486     15489     15489     15490     15489     15491     15489     15492
     15492     15493     15492     15494     15492     15495     15443     15444
     15444     15446     15444     15445     15446     15447     15446     15448
     15446     15496     15496     15497     15496     15498     15496     15499
     15499     15500     15499     15501     15499     15502     15502     15503
     15502     15504     15502     15505     15505     15506     15505     15507
     15505     15508     15508     15509     15508     15510     15508     15511
     15511     15512     15511     15513     15511     15514     15514     15515
     15514     15516     15516     15517     15516     15518     15518     15519
     15518     15520     15518     15521     15521     15522     15521     15523
     15521     15524     15524     15525     15524     15526     15524     15527
     15527     15528     15527     15529     15527     15530     15530     15531
     15530     15532     15530     15533     15533     15534     15533     15535
     15533     15536     15536     15537     15536     15538     15536     15539
     15539     15540     15539     15541     15539     15542     15543     15547
     15543     15551     15543     15555     15547     15548     15547     15549
     15547     15550     15551     15552     15551     15553     15551     15554
     15555     15556     15555     15557     15555     15558     15543     15544
     15544     15545     15544     15546     15544     15559     15559     15560
     15559     15561     15559     15565     15566     15567     15565     15562
     15562     15566     15562     15563     15562     15564     15567     15568
     15567     15569     15567     15570     15570     15571     15570     15578
     15570     15572     15578     15579     15578     15580     15578     15581
     15572     15573     15573     15575     15573     15574     15575     15576
     15575     15577     15575     15587     15587     15588     15587     15589
     15587     15590     15590     15591     15590     15592     15590     15593
     15593     15594     15593     15595     15593     15596     15596     15597
     15596     15598     15596     15599     15599     15600     15599     15601
     15599     15602     15602     15603     15602     15604     15602     15605
     15605     15606     15605     15607     15607     15608     15607     15609
     15609     15610     15609     15611     15609     15612     15612     15613
     15612     15614     15612     15615     15615     15616     15615     15617
     15615     15618     15618     15619     15618     15620     15618     15621
     15621     15622     15621     15623     15621     15624     15624     15625
     15624     15626     15624     15627     15627     15628     15627     15629
     15627     15630     15630     15631     15630     15632     15630     15633
     15581     15582     15582     15584     15582     15583     15584     15585
     15584     15586     15584     15634     15634     15635     15634     15636
     15634     15637     15637     15638     15637     15639     15637     15640
     15640     15641     15640     15642     15640     15643     15643     15644
     15643     15645     15643     15646     15646     15647     15646     15648
     15646     15649     15649     15650     15649     15651     15649     15652
     15652     15653     15652     15654     15654     15655     15654     15656
     15656     15657     15656     15658     15656     15659     15659     15660
     15659     15661     15659     15662     15662     15663     15662     15664
     15662     15665     15665     15666     15665     15667     15665     15668
     15668     15669     15668     15670     15668     15671     15671     15672
     15671     15673     15671     15674     15674     15675     15674     15676
     15674     15677     15677     15678     15677     15679     15677     15680
     15681     15685     15681     15689     15681     15693     15685     15686
     15685     15687     15685     15688     15689     15690     15689     15691
     15689     15692     15693     15694     15693     15695     15693     15696
     15681     15682     15682     15683     15682     15684     15682     15697
     15697     15698     15697     15699     15697     15703     15704     15705
     15703     15700     15700     15704     15700     15701     15700     15702
     15705     15706     15705     15707     15705     15708     15708     15709
     15708     15716     15708     15710     15716     15717     15716     15718
     15716     15719     15710     15711     15711     15713     15711     15712
     15713     15714     15713     15715     15713     15725     15725     15726
     15725     15727     15725     15728     15728     15729     15728     15730
     15728     15731     15731     15732     15731     15733     15731     15734
     15734     15735     15734     15736     15734     15737     15737     15738
     15737     15739     15737     15740     15740     15741     15740     15742
     15740     15743     15743     15744     15743     15745     15745     15746
     15745     15747     15747     15748     15747     15749     15747     15750
     15750     15751     15750     15752     15750     15753     15753     15754
     15753     15755     15753     15756     15756     15757     15756     15758
     15756     15759     15759     15760     15759     15761     15759     15762
     15762     15763     15762     15764     15762     15765     15765     15766
     15765     15767     15765     15768     15768     15769     15768     15770
     15768     15771     15719     15720     15720     15722     15720     15721
     15722     15723     15722     15724     15722     15772     15772     15773
     15772     15774     15772     15775     15775     15776     15775     15777
     15775     15778     15778     15779     15778     15780     15778     15781
     15781     15782     15781     15783     15781     15784     15784     15785
     15784     15786     15784     15787     15787     15788     15787     15789
     15787     15790     15790     15791     15790     15792     15792     15793
     15792     15794     15794     15795     15794     15796     15794     15797
     15797     15798     15797     15799     15797     15800     15800     15801
     15800     15802     15800     15803     15803     15804     15803     15805
     15803     15806     15806     15807     15806     15808     15806     15809
     15809     15810     15809     15811     15809     15812     15812     15813
     15812     15814     15812     15815     15815     15816     15815     15817
     15815     15818     15819     15823     15819     15827     15819     15831
     15823     15824     15823     15825     15823     15826     15827     15828
     15827     15829     15827     15830     15831     15832     15831     15833
     15831     15834     15819     15820     15820     15821     15820     15822
     15820     15835     15835     15836     15835     15837     15835     15841
     15842     15843     15841     15838     15838     15842     15838     15839
     15838     15840     15843     15844     15843     15845     15843     15846
     15846     15847     15846     15854     15846     15848     15854     15855
     15854     15856     15854     15857     15848     15849     15849     15851
     15849     15850     15851     15852     15851     15853     15851     15863
     15863     15864     15863     15865     15863     15866     15866     15867
     15866     15868     15866     15869     15869     15870     15869     15871
     15869     15872     15872     15873     15872     15874     15872     15875
     15875     15876     15875     15877     15875     15878     15878     15879
     15878     15880     15878     15881     15881     15882     15881     15883
     15883     15884     15883     15885     15885     15886     15885     15887
     15885     15888     15888     15889     15888     15890     15888     15891
     15891     15892     15891     15893     15891     15894     15894     15895
     15894     15896     15894     15897     15897     15898     15897     15899
     15897     15900     15900     15901     15900     15902     15900     15903
     15903     15904     15903     15905     15903     15906     15906     15907
     15906     15908     15906     15909     15857     15858     15858     15860
     15858     15859     15860     15861     15860     15862     15860     15910
     15910     15911     15910     15912     15910     15913     15913     15914
     15913     15915     15913     15916     15916     15917     15916     15918
     15916     15919     15919     15920     15919     15921     15919     15922
     15922     15923     15922     15924     15922     15925     15925     15926
     15925     15927     15925     15928     15928     15929     15928     15930
     15930     15931     15930     15932     15932     15933     15932     15934
     15932     15935     15935     15936     15935     15937     15935     15938
     15938     15939     15938     15940     15938     15941     15941     15942
     15941     15943     15941     15944     15944     15945     15944     15946
     15944     15947     15947     15948     15947     15949     15947     15950
     15950     15951     15950     15952     15950     15953     15953     15954
     15953     15955     15953     15956     15957     15961     15957     15965
     15957     15969     15961     15962     15961     15963     15961     15964
     15965     15966     15965     15967     15965     15968     15969     15970
     15969     15971     15969     15972     15957     15958     15958     15959
     15958     15960     15958     15973     15973     15974     15973     15975
     15973     15979     15980     15981     15979     15976     15976     15980
     15976     15977     15976     15978     15981     15982     15981     15983
     15981     15984     15984     15985     15984     15992     15984     15986
     15992     15993     15992     15994     15992     15995     15986     15987
     15987     15989     15987     15988     15989     15990     15989     15991
     15989     16001     16001     16002     16001     16003     16001     16004
     16004     16005     16004     16006     16004     16007     16007     16008
     16007     16009     16007     16010     16010     16011     16010     16012
     16010     16013     16013     16014     16013     16015     16013     16016
     16016     16017     16016     16018     16016     16019     16019     16020
     16019     16021     16021     16022     16021     16023     16023     16024
     16023     16025     16023     16026     16026     16027     16026     16028
     16026     16029     16029     16030     16029     16031     16029     16032
     16032     16033     16032     16034     16032     16035     16035     16036
     16035     16037     16035     16038     16038     16039     16038     16040
     16038     16041     16041     16042     16041     16043     16041     16044
     16044     16045     16044     16046     16044     16047     15995     15996
     15996     15998     15996     15997     15998     15999     15998     16000
     15998     16048     16048     16049     16048     16050     16048     16051
     16051     16052     16051     16053     16051     16054     16054     16055
     16054     16056     16054     16057     16057     16058     16057     16059
     16057     16060     16060     16061     16060     16062     16060     16063
     16063     16064     16063     16065     16063     16066     16066     16067
     16066     16068     16068     16069     16068     16070     16070     16071
     16070     16072     16070     16073     16073     16074     16073     16075
     16073     16076     16076     16077     16076     16078     16076     16079
     16079     16080     16079     16081     16079     16082     16082     16083
     16082     16084     16082     16085     16085     16086     16085     16087
     16085     16088     16088     16089     16088     16090     16088     16091
     16091     16092     16091     16093     16091     16094     16095     16099
     16095     16103     16095     16107     16099     16100     16099     16101
     16099     16102     16103     16104     16103     16105     16103     16106
     16107     16108     16107     16109     16107     16110     16095     16096
     16096     16097     16096     16098     16096     16111     16111     16112
     16111     16113     16111     16117     16118     16119     16117     16114
     16114     16118     16114     16115     16114     16116     16119     16120
     16119     16121     16119     16122     16122     16123     16122     16130
     16122     16124     16130     16131     16130     16132     16130     16133
     16124     16125     16125     16127     16125     16126     16127     16128
     16127     16129     16127     16139     16139     16140     16139     16141
     16139     16142     16142     16143     16142     16144     16142     16145
     16145     16146     16145     16147     16145     16148     16148     16149
     16148     16150     16148     16151     16151     16152     16151     16153
     16151     16154     16154     16155     16154     16156     16154     16157
     16157     16158     16157     16159     16159     16160     16159     16161
     16161     16162     16161     16163     16161     16164     16164     16165
     16164     16166     16164     16167     16167     16168     16167     16169
     16167     16170     16170     16171     16170     16172     16170     16173
     16173     16174     16173     16175     16173     16176     16176     16177
     16176     16178     16176     16179     16179     16180     16179     16181
     16179     16182     16182     16183     16182     16184     16182     16185
     16133     16134     16134     16136     16134     16135     16136     16137
     16136     16138     16136     16186     16186     16187     16186     16188
     16186     16189     16189     16190     16189     16191     16189     16192
     16192     16193     16192     16194     16192     16195     16195     16196
     16195     16197     16195     16198     16198     16199     16198     16200
     16198     16201     16201     16202     16201     16203     16201     16204
     16204     16205     16204     16206     16206     16207     16206     16208
     16208     16209     16208     16210     16208     16211     16211     16212
     16211     16213     16211     16214     16214     16215     16214     16216
     16214     16217     16217     16218     16217     16219     16217     16220
     16220     16221     16220     16222     16220     16223     16223     16224
     16223     16225     16223     16226     16226     16227     16226     16228
     16226     16229     16229     16230     16229     16231     16229     16232
     16233     16237     16233     16241     16233     16245     16237     16238
     16237     16239     16237     16240     16241     16242     16241     16243
     16241     16244     16245     16246     16245     16247     16245     16248
     16233     16234     16234     16235     16234     16236     16234     16249
     16249     16250     16249     16251     16249     16255     16256     16257
     16255     16252     16252     16256     16252     16253     16252     16254
     16257     16258     16257     16259     16257     16260     16260     16261
     16260     16268     16260     16262     16268     16269     16268     16270
     16268     16271     16262     16263     16263     16265     16263     16264
     16265     16266     16265     16267     16265     16277     16277     16278
     16277     16279     16277     16280     16280     16281     16280     16282
     16280     16283     16283     16284     16283     16285     16283     16286
     16286     16287     16286     16288     16286     16289     16289     16290
     16289     16291     16289     16292     16292     16293     16292     16294
     16292     16295     16295     16296     16295     16297     16297     16298
     16297     16299     16299     16300     16299     16301     16299     16302
     16302     16303     16302     16304     16302     16305     16305     16306
     16305     16307     16305     16308     16308     16309     16308     16310
     16308     16311     16311     16312     16311     16313     16311     16314
     16314     16315     16314     16316     16314     16317     16317     16318
     16317     16319     16317     16320     16320     16321     16320     16322
     16320     16323     16271     16272     16272     16274     16272     16273
     16274     16275     16274     16276     16274     16324     16324     16325
     16324     16326     16324     16327     16327     16328     16327     16329
     16327     16330     16330     16331     16330     16332     16330     16333
     16333     16334     16333     16335     16333     16336     16336     16337
     16336     16338     16336     16339     16339     16340     16339     16341
     16339     16342     16342     16343     16342     16344     16344     16345
     16344     16346     16346     16347     16346     16348     16346     16349
     16349     16350     16349     16351     16349     16352     16352     16353
     16352     16354     16352     16355     16355     16356     16355     16357
     16355     16358     16358     16359     16358     16360     16358     16361
     16361     16362     16361     16363     16361     16364     16364     16365
     16364     16366     16364     16367     16367     16368     16367     16369
     16367     16370     16371     16375     16371     16379     16371     16383
     16375     16376     16375     16377     16375     16378     16379     16380
     16379     16381     16379     16382     16383     16384     16383     16385
     16383     16386     16371     16372     16372     16373     16372     16374
     16372     16387     16387     16388     16387     16389     16387     16393
     16394     16395     16393     16390     16390     16394     16390     16391
     16390     16392     16395     16396     16395     16397     16395     16398
     16398     16399     16398     16406     16398     16400     16406     16407
     16406     16408     16406     16409     16400     16401     16401     16403
     16401     16402     16403     16404     16403     16405     16403     16415
     16415     16416     16415     16417     16415     16418     16418     16419
     16418     16420     16418     16421     16421     16422     16421     16423
     16421     16424     16424     16425     16424     16426     16424     16427
     16427     16428     16427     16429     16427     16430     16430     16431
     16430     16432     16430     16433     16433     16434     16433     16435
     16435     16436     16435     16437     16437     16438     16437     16439
     16437     16440     16440     16441     16440     16442     16440     16443
     16443     16444     16443     16445     16443     16446     16446     16447
     16446     16448     16446     16449     16449     16450     16449     16451
     16449     16452     16452     16453     16452     16454     16452     16455
     16455     16456     16455     16457     16455     16458     16458     16459
     16458     16460     16458     16461     16409     16410     16410     16412
     16410     16411     16412     16413     16412     16414     16412     16462
     16462     16463     16462     16464     16462     16465     16465     16466
     16465     16467     16465     16468     16468     16469     16468     16470
     16468     16471     16471     16472     16471     16473     16471     16474
     16474     16475     16474     16476     16474     16477     16477     16478
     16477     16479     16477     16480     16480     16481     16480     16482
     16482     16483     16482     16484     16484     16485     16484     16486
     16484     16487     16487     16488     16487     16489     16487     16490
     16490     16491     16490     16492     16490     16493     16493     16494
     16493     16495     16493     16496     16496     16497     16496     16498
     16496     16499     16499     16500     16499     16501     16499     16502
     16502     16503     16502     16504     16502     16505     16505     16506
     16505     16507     16505     16508     16509     16513     16509     16517
     16509     16521     16513     16514     16513     16515     16513     16516
     16517     16518     16517     16519     16517     16520     16521     16522
     16521     16523     16521     16524     16509     16510     16510     16511
     16510     16512     16510     16525     16525     16526     16525     16527
     16525     16531     16532     16533     16531     16528     16528     16532
     16528     16529     16528     16530     16533     16534     16533     16535
     16533     16536     16536     16537     16536     16544     16536     16538
     16544     16545     16544     16546     16544     16547     16538     16539
     16539     16541     16539     16540     16541     16542     16541     16543
     16541     16553     16553     16554     16553     16555     16553     16556
     16556     16557     16556     16558     16556     16559     16559     16560
     16559     16561     16559     16562     16562     16563     16562     16564
     16562     16565     16565     16566     16565     16567     16565     16568
     16568     16569     16568     16570     16568     16571     16571     16572
     16571     16573     16573     16574     16573     16575     16575     16576
     16575     16577     16575     16578     16578     16579     16578     16580
     16578     16581     16581     16582     16581     16583     16581     16584
     16584     16585     16584     16586     16584     16587     16587     16588
     16587     16589     16587     16590     16590     16591     16590     16592
     16590     16593     16593     16594     16593     16595     16593     16596
     16596     16597     16596     16598     16596     16599     16547     16548
     16548     16550     16548     16549     16550     16551     16550     16552
     16550     16600     16600     16601     16600     16602     16600     16603
     16603     16604     16603     16605     16603     16606     16606     16607
     16606     16608     16606     16609     16609     16610     16609     16611
     16609     16612     16612     16613     16612     16614     16612     16615
     16615     16616     16615     16617     16615     16618     16618     16619
     16618     16620     16620     16621     16620     16622     16622     16623
     16622     16624     16622     16625     16625     16626     16625     16627
     16625     16628     16628     16629     16628     16630     16628     16631
     16631     16632     16631     16633     16631     16634     16634     16635
     16634     16636     16634     16637     16637     16638     16637     16639
     16637     16640     16640     16641     16640     16642     16640     16643
     16643     16644     16643     16645     16643     16646     16647     16651
     16647     16655     16647     16659     16651     16652     16651     16653
     16651     16654     16655     16656     16655     16657     16655     16658
     16659     16660     16659     16661     16659     16662     16647     16648
     16648     16649     16648     16650     16648     16663     16663     16664
     16663     16665     16663     16669     16670     16671     16669     16666
     16666     16670     16666     16667     16666     16668     16671     16672
     16671     16673     16671     16674     16674     16675     16674     16682
     16674     16676     16682     16683     16682     16684     16682     16685
     16676     16677     16677     16679     16677     16678     16679     16680
     16679     16681     16679     16691     16691     16692     16691     16693
     16691     16694     16694     16695     16694     16696     16694     16697
     16697     16698     16697     16699     16697     16700     16700     16701
     16700     16702     16700     16703     16703     16704     16703     16705
     16703     16706     16706     16707     16706     16708     16706     16709
     16709     16710     16709     16711     16711     16712     16711     16713
     16713     16714     16713     16715     16713     16716     16716     16717
     16716     16718     16716     16719     16719     16720     16719     16721
     16719     16722     16722     16723     16722     16724     16722     16725
     16725     16726     16725     16727     16725     16728     16728     16729
     16728     16730     16728     16731     16731     16732     16731     16733
     16731     16734     16734     16735     16734     16736     16734     16737
     16685     16686     16686     16688     16686     16687     16688     16689
     16688     16690     16688     16738     16738     16739     16738     16740
     16738     16741     16741     16742     16741     16743     16741     16744
     16744     16745     16744     16746     16744     16747     16747     16748
     16747     16749     16747     16750     16750     16751     16750     16752
     16750     16753     16753     16754     16753     16755     16753     16756
     16756     16757     16756     16758     16758     16759     16758     16760
     16760     16761     16760     16762     16760     16763     16763     16764
     16763     16765     16763     16766     16766     16767     16766     16768
     16766     16769     16769     16770     16769     16771     16769     16772
     16772     16773     16772     16774     16772     16775     16775     16776
     16775     16777     16775     16778     16778     16779     16778     16780
     16778     16781     16781     16782     16781     16783     16781     16784
     16785     16789     16785     16793     16785     16797     16789     16790
     16789     16791     16789     16792     16793     16794     16793     16795
     16793     16796     16797     16798     16797     16799     16797     16800
     16785     16786     16786     16787     16786     16788     16786     16801
     16801     16802     16801     16803     16801     16807     16808     16809
     16807     16804     16804     16808     16804     16805     16804     16806
     16809     16810     16809     16811     16809     16812     16812     16813
     16812     16820     16812     16814     16820     16821     16820     16822
     16820     16823     16814     16815     16815     16817     16815     16816
     16817     16818     16817     16819     16817     16829     16829     16830
     16829     16831     16829     16832     16832     16833     16832     16834
     16832     16835     16835     16836     16835     16837     16835     16838
     16838     16839     16838     16840     16838     16841     16841     16842
     16841     16843     16841     16844     16844     16845     16844     16846
     16844     16847     16847     16848     16847     16849     16849     16850
     16849     16851     16851     16852     16851     16853     16851     16854
     16854     16855     16854     16856     16854     16857     16857     16858
     16857     16859     16857     16860     16860     16861     16860     16862
     16860     16863     16863     16864     16863     16865     16863     16866
     16866     16867     16866     16868     16866     16869     16869     16870
     16869     16871     16869     16872     16872     16873     16872     16874
     16872     16875     16823     16824     16824     16826     16824     16825
     16826     16827     16826     16828     16826     16876     16876     16877
     16876     16878     16876     16879     16879     16880     16879     16881
     16879     16882     16882     16883     16882     16884     16882     16885
     16885     16886     16885     16887     16885     16888     16888     16889
     16888     16890     16888     16891     16891     16892     16891     16893
     16891     16894     16894     16895     16894     16896     16896     16897
     16896     16898     16898     16899     16898     16900     16898     16901
     16901     16902     16901     16903     16901     16904     16904     16905
     16904     16906     16904     16907     16907     16908     16907     16909
     16907     16910     16910     16911     16910     16912     16910     16913
     16913     16914     16913     16915     16913     16916     16916     16917
     16916     16918     16916     16919     16919     16920     16919     16921
     16919     16922     16923     16927     16923     16931     16923     16935
     16927     16928     16927     16929     16927     16930     16931     16932
     16931     16933     16931     16934     16935     16936     16935     16937
     16935     16938     16923     16924     16924     16925     16924     16926
     16924     16939     16939     16940     16939     16941     16939     16945
     16946     16947     16945     16942     16942     16946     16942     16943
     16942     16944     16947     16948     16947     16949     16947     16950
     16950     16951     16950     16958     16950     16952     16958     16959
     16958     16960     16958     16961     16952     16953     16953     16955
     16953     16954     16955     16956     16955     16957     16955     16967
     16967     16968     16967     16969     16967     16970     16970     16971
     16970     16972     16970     16973     16973     16974     16973     16975
     16973     16976     16976     16977     16976     16978     16976     16979
     16979     16980     16979     16981     16979     16982     16982     16983
     16982     16984     16982     16985     16985     16986     16985     16987
     16987     16988     16987     16989     16989     16990     16989     16991
     16989     16992     16992     16993     16992     16994     16992     16995
     16995     16996     16995     16997     16995     16998     16998     16999
     16998     17000     16998     17001     17001     17002     17001     17003
     17001     17004     17004     17005     17004     17006     17004     17007
     17007     17008     17007     17009     17007     17010     17010     17011
     17010     17012     17010     17013     16961     16962     16962     16964
     16962     16963     16964     16965     16964     16966     16964     17014
     17014     17015     17014     17016     17014     17017     17017     17018
     17017     17019     17017     17020     17020     17021     17020     17022
     17020     17023     17023     17024     17023     17025     17023     17026
     17026     17027     17026     17028     17026     17029     17029     17030
     17029     17031     17029     17032     17032     17033     17032     17034
     17034     17035     17034     17036     17036     17037     17036     17038
     17036     17039     17039     17040     17039     17041     17039     17042
     17042     17043     17042     17044     17042     17045     17045     17046
     17045     17047     17045     17048     17048     17049     17048     17050
     17048     17051     17051     17052     17051     17053     17051     17054
     17054     17055     17054     17056     17054     17057     17057     17058
     17057     17059     17057     17060     17061     17065     17061     17069
     17061     17073     17065     17066     17065     17067     17065     17068
     17069     17070     17069     17071     17069     17072     17073     17074
     17073     17075     17073     17076     17061     17062     17062     17063
     17062     17064     17062     17077     17077     17078     17077     17079
     17077     17083     17084     17085     17083     17080     17080     17084
     17080     17081     17080     17082     17085     17086     17085     17087
     17085     17088     17088     17089     17088     17096     17088     17090
     17096     17097     17096     17098     17096     17099     17090     17091
     17091     17093     17091     17092     17093     17094     17093     17095
     17093     17105     17105     17106     17105     17107     17105     17108
     17108     17109     17108     17110     17108     17111     17111     17112
     17111     17113     17111     17114     17114     17115     17114     17116
     17114     17117     17117     17118     17117     17119     17117     17120
     17120     17121     17120     17122     17120     17123     17123     17124
     17123     17125     17125     17126     17125     17127     17127     17128
     17127     17129     17127     17130     17130     17131     17130     17132
     17130     17133     17133     17134     17133     17135     17133     17136
     17136     17137     17136     17138     17136     17139     17139     17140
     17139     17141     17139     17142     17142     17143     17142     17144
     17142     17145     17145     17146     17145     17147     17145     17148
     17148     17149     17148     17150     17148     17151     17099     17100
     17100     17102     17100     17101     17102     17103     17102     17104
     17102     17152     17152     17153     17152     17154     17152     17155
     17155     17156     17155     17157     17155     17158     17158     17159
     17158     17160     17158     17161     17161     17162     17161     17163
     17161     17164     17164     17165     17164     17166     17164     17167
     17167     17168     17167     17169     17167     17170     17170     17171
     17170     17172     17172     17173     17172     17174     17174     17175
     17174     17176     17174     17177     17177     17178     17177     17179
     17177     17180     17180     17181     17180     17182     17180     17183
     17183     17184     17183     17185     17183     17186     17186     17187
     17186     17188     17186     17189     17189     17190     17189     17191
     17189     17192     17192     17193     17192     17194     17192     17195
     17195     17196     17195     17197     17195     17198     17199     17203
     17199     17207     17199     17211     17203     17204     17203     17205
     17203     17206     17207     17208     17207     17209     17207     17210
     17211     17212     17211     17213     17211     17214     17199     17200
     17200     17201     17200     17202     17200     17215     17215     17216
     17215     17217     17215     17221     17222     17223     17221     17218
     17218     17222     17218     17219     17218     17220     17223     17224
     17223     17225     17223     17226     17226     17227     17226     17234
     17226     17228     17234     17235     17234     17236     17234     17237
     17228     17229     17229     17231     17229     17230     17231     17232
     17231     17233     17231     17243     17243     17244     17243     17245
     17243     17246     17246     17247     17246     17248     17246     17249
     17249     17250     17249     17251     17249     17252     17252     17253
     17252     17254     17252     17255     17255     17256     17255     17257
     17255     17258     17258     17259     17258     17260     17258     17261
     17261     17262     17261     17263     17263     17264     17263     17265
     17265     17266     17265     17267     17265     17268     17268     17269
     17268     17270     17268     17271     17271     17272     17271     17273
     17271     17274     17274     17275     17274     17276     17274     17277
     17277     17278     17277     17279     17277     17280     17280     17281
     17280     17282     17280     17283     17283     17284     17283     17285
     17283     17286     17286     17287     17286     17288     17286     17289
     17237     17238     17238     17240     17238     17239     17240     17241
     17240     17242     17240     17290     17290     17291     17290     17292
     17290     17293     17293     17294     17293     17295     17293     17296
     17296     17297     17296     17298     17296     17299     17299     17300
     17299     17301     17299     17302     17302     17303     17302     17304
     17302     17305     17305     17306     17305     17307     17305     17308
     17308     17309     17308     17310     17310     17311     17310     17312
     17312     17313     17312     17314     17312     17315     17315     17316
     17315     17317     17315     17318     17318     17319     17318     17320
     17318     17321     17321     17322     17321     17323     17321     17324
     17324     17325     17324     17326     17324     17327     17327     17328
     17327     17329     17327     17330     17330     17331     17330     17332
     17330     17333     17333     17334     17333     17335     17333     17336
     17337     17341     17337     17345     17337     17349     17341     17342
     17341     17343     17341     17344     17345     17346     17345     17347
     17345     17348     17349     17350     17349     17351     17349     17352
     17337     17338     17338     17339     17338     17340     17338     17353
     17353     17354     17353     17355     17353     17359     17360     17361
     17359     17356     17356     17360     17356     17357     17356     17358
     17361     17362     17361     17363     17361     17364     17364     17365
     17364     17372     17364     17366     17372     17373     17372     17374
     17372     17375     17366     17367     17367     17369     17367     17368
     17369     17370     17369     17371     17369     17381     17381     17382
     17381     17383     17381     17384     17384     17385     17384     17386
     17384     17387     17387     17388     17387     17389     17387     17390
     17390     17391     17390     17392     17390     17393     17393     17394
     17393     17395     17393     17396     17396     17397     17396     17398
     17396     17399     17399     17400     17399     17401     17401     17402
     17401     17403     17403     17404     17403     17405     17403     17406
     17406     17407     17406     17408     17406     17409     17409     17410
     17409     17411     17409     17412     17412     17413     17412     17414
     17412     17415     17415     17416     17415     17417     17415     17418
     17418     17419     17418     17420     17418     17421     17421     17422
     17421     17423     17421     17424     17424     17425     17424     17426
     17424     17427     17375     17376     17376     17378     17376     17377
     17378     17379     17378     17380     17378     17428     17428     17429
     17428     17430     17428     17431     17431     17432     17431     17433
     17431     17434     17434     17435     17434     17436     17434     17437
     17437     17438     17437     17439     17437     17440     17440     17441
     17440     17442     17440     17443     17443     17444     17443     17445
     17443     17446     17446     17447     17446     17448     17448     17449
     17448     17450     17450     17451     17450     17452     17450     17453
     17453     17454     17453     17455     17453     17456     17456     17457
     17456     17458     17456     17459     17459     17460     17459     17461
     17459     17462     17462     17463     17462     17464     17462     17465
     17465     17466     17465     17467     17465     17468     17468     17469
     17468     17470     17468     17471     17471     17472     17471     17473
     17471     17474     17475     17479     17475     17483     17475     17487
     17479     17480     17479     17481     17479     17482     17483     17484
     17483     17485     17483     17486     17487     17488     17487     17489
     17487     17490     17475     17476     17476     17477     17476     17478
     17476     17491     17491     17492     17491     17493     17491     17497
     17498     17499     17497     17494     17494     17498     17494     17495
     17494     17496     17499     17500     17499     17501     17499     17502
     17502     17503     17502     17510     17502     17504     17510     17511
     17510     17512     17510     17513     17504     17505     17505     17507
     17505     17506     17507     17508     17507     17509     17507     17519
     17519     17520     17519     17521     17519     17522     17522     17523
     17522     17524     17522     17525     17525     17526     17525     17527
     17525     17528     17528     17529     17528     17530     17528     17531
     17531     17532     17531     17533     17531     17534     17534     17535
     17534     17536     17534     17537     17537     17538     17537     17539
     17539     17540     17539     17541     17541     17542     17541     17543
     17541     17544     17544     17545     17544     17546     17544     17547
     17547     17548     17547     17549     17547     17550     17550     17551
     17550     17552     17550     17553     17553     17554     17553     17555
     17553     17556     17556     17557     17556     17558     17556     17559
     17559     17560     17559     17561     17559     17562     17562     17563
     17562     17564     17562     17565     17513     17514     17514     17516
     17514     17515     17516     17517     17516     17518     17516     17566
     17566     17567     17566     17568     17566     17569     17569     17570
     17569     17571     17569     17572     17572     17573     17572     17574
     17572     17575     17575     17576     17575     17577     17575     17578
     17578     17579     17578     17580     17578     17581     17581     17582
     17581     17583     17581     17584     17584     17585     17584     17586
     17586     17587     17586     17588     17588     17589     17588     17590
     17588     17591     17591     17592     17591     17593     17591     17594
     17594     17595     17594     17596     17594     17597     17597     17598
     17597     17599     17597     17600     17600     17601     17600     17602
     17600     17603     17603     17604     17603     17605     17603     17606
     17606     17607     17606     17608     17606     17609     17609     17610
     17609     17611     17609     17612     17613     17617     17613     17621
     17613     17625     17617     17618     17617     17619     17617     17620
     17621     17622     17621     17623     17621     17624     17625     17626
     17625     17627     17625     17628     17613     17614     17614     17615
     17614     17616     17614     17629     17629     17630     17629     17631
     17629     17635     17636     17637     17635     17632     17632     17636
     17632     17633     17632     17634     17637     17638     17637     17639
     17637     17640     17640     17641     17640     17648     17640     17642
     17648     17649     17648     17650     17648     17651     17642     17643
     17643     17645     17643     17644     17645     17646     17645     17647
     17645     17657     17657     17658     17657     17659     17657     17660
     17660     17661     17660     17662     17660     17663     17663     17664
     17663     17665     17663     17666     17666     17667     17666     17668
     17666     17669     17669     17670     17669     17671     17669     17672
     17672     17673     17672     17674     17672     17675     17675     17676
     17675     17677     17677     17678     17677     17679     17679     17680
     17679     17681     17679     17682     17682     17683     17682     17684
     17682     17685     17685     17686     17685     17687     17685     17688
     17688     17689     17688     17690     17688     17691     17691     17692
     17691     17693     17691     17694     17694     17695     17694     17696
     17694     17697     17697     17698     17697     17699     17697     17700
     17700     17701     17700     17702     17700     17703     17651     17652
     17652     17654     17652     17653     17654     17655     17654     17656
     17654     17704     17704     17705     17704     17706     17704     17707
     17707     17708     17707     17709     17707     17710     17710     17711
     17710     17712     17710     17713     17713     17714     17713     17715
     17713     17716     17716     17717     17716     17718     17716     17719
     17719     17720     17719     17721     17719     17722     17722     17723
     17722     17724     17724     17725     17724     17726     17726     17727
     17726     17728     17726     17729     17729     17730     17729     17731
     17729     17732     17732     17733     17732     17734     17732     17735
     17735     17736     17735     17737     17735     17738     17738     17739
     17738     17740     17738     17741     17741     17742     17741     17743
     17741     17744     17744     17745     17744     17746     17744     17747
     17747     17748     17747     17749     17747     17750     17751     17755
     17751     17759     17751     17763     17755     17756     17755     17757
     17755     17758     17759     17760     17759     17761     17759     17762
     17763     17764     17763     17765     17763     17766     17751     17752
     17752     17753     17752     17754     17752     17767     17767     17768
     17767     17769     17767     17773     17774     17775     17773     17770
     17770     17774     17770     17771     17770     17772     17775     17776
     17775     17777     17775     17778     17778     17779     17778     17786
     17778     17780     17786     17787     17786     17788     17786     17789
     17780     17781     17781     17783     17781     17782     17783     17784
     17783     17785     17783     17795     17795     17796     17795     17797
     17795     17798     17798     17799     17798     17800     17798     17801
     17801     17802     17801     17803     17801     17804     17804     17805
     17804     17806     17804     17807     17807     17808     17807     17809
     17807     17810     17810     17811     17810     17812     17810     17813
     17813     17814     17813     17815     17815     17816     17815     17817
     17817     17818     17817     17819     17817     17820     17820     17821
     17820     17822     17820     17823     17823     17824     17823     17825
     17823     17826     17826     17827     17826     17828     17826     17829
     17829     17830     17829     17831     17829     17832     17832     17833
     17832     17834     17832     17835     17835     17836     17835     17837
     17835     17838     17838     17839     17838     17840     17838     17841
     17789     17790     17790     17792     17790     17791     17792     17793
     17792     17794     17792     17842     17842     17843     17842     17844
     17842     17845     17845     17846     17845     17847     17845     17848
     17848     17849     17848     17850     17848     17851     17851     17852
     17851     17853     17851     17854     17854     17855     17854     17856
     17854     17857     17857     17858     17857     17859     17857     17860
     17860     17861     17860     17862     17862     17863     17862     17864
     17864     17865     17864     17866     17864     17867     17867     17868
     17867     17869     17867     17870     17870     17871     17870     17872
     17870     17873     17873     17874     17873     17875     17873     17876
     17876     17877     17876     17878     17876     17879     17879     17880
     17879     17881     17879     17882     17882     17883     17882     17884
     17882     17885     17885     17886     17885     17887     17885     17888
     17889     17893     17889     17897     17889     17901     17893     17894
     17893     17895     17893     17896     17897     17898     17897     17899
     17897     17900     17901     17902     17901     17903     17901     17904
     17889     17890     17890     17891     17890     17892     17890     17905
     17905     17906     17905     17907     17905     17911     17912     17913
     17911     17908     17908     17912     17908     17909     17908     17910
     17913     17914     17913     17915     17913     17916     17916     17917
     17916     17924     17916     17918     17924     17925     17924     17926
     17924     17927     17918     17919     17919     17921     17919     17920
     17921     17922     17921     17923     17921     17933     17933     17934
     17933     17935     17933     17936     17936     17937     17936     17938
     17936     17939     17939     17940     17939     17941     17939     17942
     17942     17943     17942     17944     17942     17945     17945     17946
     17945     17947     17945     17948     17948     17949     17948     17950
     17948     17951     17951     17952     17951     17953     17953     17954
     17953     17955     17955     17956     17955     17957     17955     17958
     17958     17959     17958     17960     17958     17961     17961     17962
     17961     17963     17961     17964     17964     17965     17964     17966
     17964     17967     17967     17968     17967     17969     17967     17970
     17970     17971     17970     17972     17970     17973     17973     17974
     17973     17975     17973     17976     17976     17977     17976     17978
     17976     17979     17927     17928     17928     17930     17928     17929
     17930     17931     17930     17932     17930     17980     17980     17981
     17980     17982     17980     17983     17983     17984     17983     17985
     17983     17986     17986     17987     17986     17988     17986     17989
     17989     17990     17989     17991     17989     17992     17992     17993
     17992     17994     17992     17995     17995     17996     17995     17997
     17995     17998     17998     17999     17998     18000     18000     18001
     18000     18002     18002     18003     18002     18004     18002     18005
     18005     18006     18005     18007     18005     18008     18008     18009
     18008     18010     18008     18011     18011     18012     18011     18013
     18011     18014     18014     18015     18014     18016     18014     18017
     18017     18018     18017     18019     18017     18020     18020     18021
     18020     18022     18020     18023     18023     18024     18023     18025
     18023     18026     18027     18031     18027     18035     18027     18039
     18031     18032     18031     18033     18031     18034     18035     18036
     18035     18037     18035     18038     18039     18040     18039     18041
     18039     18042     18027     18028     18028     18029     18028     18030
     18028     18043     18043     18044     18043     18045     18043     18049
     18050     18051     18049     18046     18046     18050     18046     18047
     18046     18048     18051     18052     18051     18053     18051     18054
     18054     18055     18054     18062     18054     18056     18062     18063
     18062     18064     18062     18065     18056     18057     18057     18059
     18057     18058     18059     18060     18059     18061     18059     18071
     18071     18072     18071     18073     18071     18074     18074     18075
     18074     18076     18074     18077     18077     18078     18077     18079
     18077     18080     18080     18081     18080     18082     18080     18083
     18083     18084     18083     18085     18083     18086     18086     18087
     18086     18088     18086     18089     18089     18090     18089     18091
     18091     18092     18091     18093     18093     18094     18093     18095
     18093     18096     18096     18097     18096     18098     18096     18099
     18099     18100     18099     18101     18099     18102     18102     18103
     18102     18104     18102     18105     18105     18106     18105     18107
     18105     18108     18108     18109     18108     18110     18108     18111
     18111     18112     18111     18113     18111     18114     18114     18115
     18114     18116     18114     18117     18065     18066     18066     18068
     18066     18067     18068     18069     18068     18070     18068     18118
     18118     18119     18118     18120     18118     18121     18121     18122
     18121     18123     18121     18124     18124     18125     18124     18126
     18124     18127     18127     18128     18127     18129     18127     18130
     18130     18131     18130     18132     18130     18133     18133     18134
     18133     18135     18133     18136     18136     18137     18136     18138
     18138     18139     18138     18140     18140     18141     18140     18142
     18140     18143     18143     18144     18143     18145     18143     18146
     18146     18147     18146     18148     18146     18149     18149     18150
     18149     18151     18149     18152     18152     18153     18152     18154
     18152     18155     18155     18156     18155     18157     18155     18158
     18158     18159     18158     18160     18158     18161     18161     18162
     18161     18163     18161     18164     18165     18169     18165     18173
     18165     18177     18169     18170     18169     18171     18169     18172
     18173     18174     18173     18175     18173     18176     18177     18178
     18177     18179     18177     18180     18165     18166     18166     18167
     18166     18168     18166     18181     18181     18182     18181     18183
     18181     18187     18188     18189     18187     18184     18184     18188
     18184     18185     18184     18186     18189     18190     18189     18191
     18189     18192     18192     18193     18192     18200     18192     18194
     18200     18201     18200     18202     18200     18203     18194     18195
     18195     18197     18195     18196     18197     18198     18197     18199
     18197     18209     18209     18210     18209     18211     18209     18212
     18212     18213     18212     18214     18212     18215     18215     18216
     18215     18217     18215     18218     18218     18219     18218     18220
     18218     18221     18221     18222     18221     18223     18221     18224
     18224     18225     18224     18226     18224     18227     18227     18228
     18227     18229     18229     18230     18229     18231     18231     18232
     18231     18233     18231     18234     18234     18235     18234     18236
     18234     18237     18237     18238     18237     18239     18237     18240
     18240     18241     18240     18242     18240     18243     18243     18244
     18243     18245     18243     18246     18246     18247     18246     18248
     18246     18249     18249     18250     18249     18251     18249     18252
     18252     18253     18252     18254     18252     18255     18203     18204
     18204     18206     18204     18205     18206     18207     18206     18208
     18206     18256     18256     18257     18256     18258     18256     18259
     18259     18260     18259     18261     18259     18262     18262     18263
     18262     18264     18262     18265     18265     18266     18265     18267
     18265     18268     18268     18269     18268     18270     18268     18271
     18271     18272     18271     18273     18271     18274     18274     18275
     18274     18276     18276     18277     18276     18278     18278     18279
     18278     18280     18278     18281     18281     18282     18281     18283
     18281     18284     18284     18285     18284     18286     18284     18287
     18287     18288     18287     18289     18287     18290     18290     18291
     18290     18292     18290     18293     18293     18294     18293     18295
     18293     18296     18296     18297     18296     18298     18296     18299
     18299     18300     18299     18301     18299     18302     18303     18307
     18303     18311     18303     18315     18307     18308     18307     18309
     18307     18310     18311     18312     18311     18313     18311     18314
     18315     18316     18315     18317     18315     18318     18303     18304
     18304     18305     18304     18306     18304     18319     18319     18320
     18319     18321     18319     18325     18326     18327     18325     18322
     18322     18326     18322     18323     18322     18324     18327     18328
     18327     18329     18327     18330     18330     18331     18330     18338
     18330     18332     18338     18339     18338     18340     18338     18341
     18332     18333     18333     18335     18333     18334     18335     18336
     18335     18337     18335     18347     18347     18348     18347     18349
     18347     18350     18350     18351     18350     18352     18350     18353
     18353     18354     18353     18355     18353     18356     18356     18357
     18356     18358     18356     18359     18359     18360     18359     18361
     18359     18362     18362     18363     18362     18364     18362     18365
     18365     18366     18365     18367     18367     18368     18367     18369
     18369     18370     18369     18371     18369     18372     18372     18373
     18372     18374     18372     18375     18375     18376     18375     18377
     18375     18378     18378     18379     18378     18380     18378     18381
     18381     18382     18381     18383     18381     18384     18384     18385
     18384     18386     18384     18387     18387     18388     18387     18389
     18387     18390     18390     18391     18390     18392     18390     18393
     18341     18342     18342     18344     18342     18343     18344     18345
     18344     18346     18344     18394     18394     18395     18394     18396
     18394     18397     18397     18398     18397     18399     18397     18400
     18400     18401     18400     18402     18400     18403     18403     18404
     18403     18405     18403     18406     18406     18407     18406     18408
     18406     18409     18409     18410     18409     18411     18409     18412
     18412     18413     18412     18414     18414     18415     18414     18416
     18416     18417     18416     18418     18416     18419     18419     18420
     18419     18421     18419     18422     18422     18423     18422     18424
     18422     18425     18425     18426     18425     18427     18425     18428
     18428     18429     18428     18430     18428     18431     18431     18432
     18431     18433     18431     18434     18434     18435     18434     18436
     18434     18437     18437     18438     18437     18439     18437     18440
     18441     18445     18441     18449     18441     18453     18445     18446
     18445     18447     18445     18448     18449     18450     18449     18451
     18449     18452     18453     18454     18453     18455     18453     18456
     18441     18442     18442     18443     18442     18444     18442     18457
     18457     18458     18457     18459     18457     18463     18464     18465
     18463     18460     18460     18464     18460     18461     18460     18462
     18465     18466     18465     18467     18465     18468     18468     18469
     18468     18476     18468     18470     18476     18477     18476     18478
     18476     18479     18470     18471     18471     18473     18471     18472
     18473     18474     18473     18475     18473     18485     18485     18486
     18485     18487     18485     18488     18488     18489     18488     18490
     18488     18491     18491     18492     18491     18493     18491     18494
     18494     18495     18494     18496     18494     18497     18497     18498
     18497     18499     18497     18500     18500     18501     18500     18502
     18500     18503     18503     18504     18503     18505     18505     18506
     18505     18507     18507     18508     18507     18509     18507     18510
     18510     18511     18510     18512     18510     18513     18513     18514
     18513     18515     18513     18516     18516     18517     18516     18518
     18516     18519     18519     18520     18519     18521     18519     18522
     18522     18523     18522     18524     18522     18525     18525     18526
     18525     18527     18525     18528     18528     18529     18528     18530
     18528     18531     18479     18480     18480     18482     18480     18481
     18482     18483     18482     18484     18482     18532     18532     18533
     18532     18534     18532     18535     18535     18536     18535     18537
     18535     18538     18538     18539     18538     18540     18538     18541
     18541     18542     18541     18543     18541     18544     18544     18545
     18544     18546     18544     18547     18547     18548     18547     18549
     18547     18550     18550     18551     18550     18552     18552     18553
     18552     18554     18554     18555     18554     18556     18554     18557
     18557     18558     18557     18559     18557     18560     18560     18561
     18560     18562     18560     18563     18563     18564     18563     18565
     18563     18566     18566     18567     18566     18568     18566     18569
     18569     18570     18569     18571     18569     18572     18572     18573
     18572     18574     18572     18575     18575     18576     18575     18577
     18575     18578     18579     18583     18579     18587     18579     18591
     18583     18584     18583     18585     18583     18586     18587     18588
     18587     18589     18587     18590     18591     18592     18591     18593
     18591     18594     18579     18580     18580     18581     18580     18582
     18580     18595     18595     18596     18595     18597     18595     18601
     18602     18603     18601     18598     18598     18602     18598     18599
     18598     18600     18603     18604     18603     18605     18603     18606
     18606     18607     18606     18614     18606     18608     18614     18615
     18614     18616     18614     18617     18608     18609     18609     18611
     18609     18610     18611     18612     18611     18613     18611     18623
     18623     18624     18623     18625     18623     18626     18626     18627
     18626     18628     18626     18629     18629     18630     18629     18631
     18629     18632     18632     18633     18632     18634     18632     18635
     18635     18636     18635     18637     18635     18638     18638     18639
     18638     18640     18638     18641     18641     18642     18641     18643
     18643     18644     18643     18645     18645     18646     18645     18647
     18645     18648     18648     18649     18648     18650     18648     18651
     18651     18652     18651     18653     18651     18654     18654     18655
     18654     18656     18654     18657     18657     18658     18657     18659
     18657     18660     18660     18661     18660     18662     18660     18663
     18663     18664     18663     18665     18663     18666     18666     18667
     18666     18668     18666     18669     18617     18618     18618     18620
     18618     18619     18620     18621     18620     18622     18620     18670
     18670     18671     18670     18672     18670     18673     18673     18674
     18673     18675     18673     18676     18676     18677     18676     18678
     18676     18679     18679     18680     18679     18681     18679     18682
     18682     18683     18682     18684     18682     18685     18685     18686
     18685     18687     18685     18688     18688     18689     18688     18690
     18690     18691     18690     18692     18692     18693     18692     18694
     18692     18695     18695     18696     18695     18697     18695     18698
     18698     18699     18698     18700     18698     18701     18701     18702
     18701     18703     18701     18704     18704     18705     18704     18706
     18704     18707     18707     18708     18707     18709     18707     18710
     18710     18711     18710     18712     18710     18713     18713     18714
     18713     18715     18713     18716     18717     18718     18717     18719
     18718     18719     18720     18721     18720     18722     18721     18722
     18723     18724     18723     18725     18724     18725     18726     18727
     18726     18728     18727     18728     18729     18730     18729     18731
     18730     18731     18732     18733     18732     18734     18733     18734
     18735     18736     18735     18737     18736     18737     18738     18739
     18738     18740     18739     18740     18741     18742     18741     18743
     18742     18743     18744     18745     18744     18746     18745     18746
     18747     18748     18747     18749     18748     18749     18750     18751
     18750     18752     18751     18752     18753     18754     18753     18755
     18754     18755     18756     18757     18756     18758     18757     18758
     18759     18760     18759     18761     18760     18761     18762     18763
     18762     18764     18763     18764     18765     18766     18765     18767
     18766     18767     18768     18769     18768     18770     18769     18770
     18771     18772     18771     18773     18772     18773     18774     18775
     18774     18776     18775     18776     18777     18778     18777     18779
     18778     18779     18780     18781     18780     18782     18781     18782
     18783     18784     18783     18785     18784     18785     18786     18787
     18786     18788     18787     18788     18789     18790     18789     18791
     18790     18791     18792     18793     18792     18794     18793     18794
     18795     18796     18795     18797     18796     18797     18798     18799
     18798     18800     18799     18800     18801     18802     18801     18803
     18802     18803     18804     18805     18804     18806     18805     18806
     18807     18808     18807     18809     18808     18809     18810     18811
     18810     18812     18811     18812     18813     18814     18813     18815
     18814     18815     18816     18817     18816     18818     18817     18818
     18819     18820     18819     18821     18820     18821     18822     18823
     18822     18824     18823     18824     18825     18826     18825     18827
     18826     18827     18828     18829     18828     18830     18829     18830
     18831     18832     18831     18833     18832     18833     18834     18835
     18834     18836     18835     18836     18837     18838     18837     18839
     18838     18839     18840     18841     18840     18842     18841     18842
     18843     18844     18843     18845     18844     18845     18846     18847
     18846     18848     18847     18848     18849     18850     18849     18851
     18850     18851     18852     18853     18852     18854     18853     18854
     18855     18856     18855     18857     18856     18857     18858     18859
     18858     18860     18859     18860     18861     18862     18861     18863
     18862     18863     18864     18865     18864     18866     18865     18866
     18867     18868     18867     18869     18868     18869     18870     18871
     18870     18872     18871     18872     18873     18874     18873     18875
     18874     18875     18876     18877     18876     18878     18877     18878
     18879     18880     18879     18881     18880     18881     18882     18883
     18882     18884     18883     18884     18885     18886     18885     18887
     18886     18887     18888     18889     18888     18890     18889     18890
     18891     18892     18891     18893     18892     18893     18894     18895
     18894     18896     18895     18896     18897     18898     18897     18899
     18898     18899     18900     18901     18900     18902     18901     18902
     18903     18904     18903     18905     18904     18905     18906     18907
     18906     18908     18907     18908     18909     18910     18909     18911
     18910     18911     18912     18913     18912     18914     18913     18914
     18915     18916     18915     18917     18916     18917     18918     18919
     18918     18920     18919     18920     18921     18922     18921     18923
     18922     18923     18924     18925     18924     18926     18925     18926
     18927     18928     18927     18929     18928     18929     18930     18931
     18930     18932     18931     18932     18933     18934     18933     18935
     18934     18935     18936     18937     18936     18938     18937     18938
     18939     18940     18939     18941     18940     18941     18942     18943
     18942     18944     18943     18944     18945     18946     18945     18947
     18946     18947     18948     18949     18948     18950     18949     18950
     18951     18952     18951     18953     18952     18953     18954     18955
     18954     18956     18955     18956     18957     18958     18957     18959
     18958     18959     18960     18961     18960     18962     18961     18962
     18963     18964     18963     18965     18964     18965     18966     18967
     18966     18968     18967     18968     18969     18970     18969     18971
     18970     18971     18972     18973     18972     18974     18973     18974
     18975     18976     18975     18977     18976     18977     18978     18979
     18978     18980     18979     18980     18981     18982     18981     18983
     18982     18983     18984     18985     18984     18986     18985     18986
     18987     18988     18987     18989     18988     18989     18990     18991
     18990     18992     18991     18992     18993     18994     18993     18995
     18994     18995     18996     18997     18996     18998     18997     18998
     18999     19000     18999     19001     19000     19001     19002     19003
     19002     19004     19003     19004     19005     19006     19005     19007
     19006     19007     19008     19009     19008     19010     19009     19010
     19011     19012     19011     19013     19012     19013     19014     19015
     19014     19016     19015     19016     19017     19018     19017     19019
     19018     19019     19020     19021     19020     19022     19021     19022
     19023     19024     19023     19025     19024     19025     19026     19027
     19026     19028     19027     19028     19029     19030     19029     19031
     19030     19031     19032     19033     19032     19034     19033     19034
     19035     19036     19035     19037     19036     19037     19038     19039
     19038     19040     19039     19040     19041     19042     19041     19043
     19042     19043     19044     19045     19044     19046     19045     19046
     19047     19048     19047     19049     19048     19049     19050     19051
     19050     19052     19051     19052     19053     19054     19053     19055
     19054     19055     19056     19057     19056     19058     19057     19058
     19059     19060     19059     19061     19060     19061     19062     19063
     19062     19064     19063     19064     19065     19066     19065     19067
     19066     19067     19068     19069     19068     19070     19069     19070
     19071     19072     19071     19073     19072     19073     19074     19075
     19074     19076     19075     19076     19077     19078     19077     19079
     19078     19079     19080     19081     19080     19082     19081     19082
     19083     19084     19083     19085     19084     19085     19086     19087
     19086     19088     19087     19088     19089     19090     19089     19091
     19090     19091     19092     19093     19092     19094     19093     19094
     19095     19096     19095     19097     19096     19097     19098     19099
     19098     19100     19099     19100     19101     19102     19101     19103
     19102     19103     19104     19105     19104     19106     19105     19106
     19107     19108     19107     19109     19108     19109     19110     19111
     19110     19112     19111     19112     19113     19114     19113     19115
     19114     19115     19116     19117     19116     19118     19117     19118
     19119     19120     19119     19121     19120     19121     19122     19123
     19122     19124     19123     19124     19125     19126     19125     19127
     19126     19127     19128     19129     19128     19130     19129     19130
     19131     19132     19131     19133     19132     19133     19134     19135
     19134     19136     19135     19136     19137     19138     19137     19139
     19138     19139     19140     19141     19140     19142     19141     19142
     19143     19144     19143     19145     19144     19145     19146     19147
     19146     19148     19147     19148     19149     19150     19149     19151
     19150     19151     19152     19153     19152     19154     19153     19154
     19155     19156     19155     19157     19156     19157     19158     19159
     19158     19160     19159     19160     19161     19162     19161     19163
     19162     19163     19164     19165     19164     19166     19165     19166
     19167     19168     19167     19169     19168     19169     19170     19171
     19170     19172     19171     19172     19173     19174     19173     19175
     19174     19175     19176     19177     19176     19178     19177     19178
     19179     19180     19179     19181     19180     19181     19182     19183
     19182     19184     19183     19184     19185     19186     19185     19187
     19186     19187     19188     19189     19188     19190     19189     19190
     19191     19192     19191     19193     19192     19193     19194     19195
     19194     19196     19195     19196     19197     19198     19197     19199
     19198     19199     19200     19201     19200     19202     19201     19202
     19203     19204     19203     19205     19204     19205     19206     19207
     19206     19208     19207     19208     19209     19210     19209     19211
     19210     19211     19212     19213     19212     19214     19213     19214
     19215     19216     19215     19217     19216     19217     19218     19219
     19218     19220     19219     19220     19221     19222     19221     19223
     19222     19223     19224     19225     19224     19226     19225     19226
     19227     19228     19227     19229     19228     19229     19230     19231
     19230     19232     19231     19232     19233     19234     19233     19235
     19234     19235     19236     19237     19236     19238     19237     19238
     19239     19240     19239     19241     19240     19241     19242     19243
     19242     19244     19243     19244     19245     19246     19245     19247
     19246     19247     19248     19249     19248     19250     19249     19250
     19251     19252     19251     19253     19252     19253     19254     19255
     19254     19256     19255     19256     19257     19258     19257     19259
     19258     19259     19260     19261     19260     19262     19261     19262
     19263     19264     19263     19265     19264     19265     19266     19267
     19266     19268     19267     19268     19269     19270     19269     19271
     19270     19271     19272     19273     19272     19274     19273     19274
     19275     19276     19275     19277     19276     19277     19278     19279
     19278     19280     19279     19280     19281     19282     19281     19283
     19282     19283     19284     19285     19284     19286     19285     19286
     19287     19288     19287     19289     19288     19289     19290     19291
     19290     19292     19291     19292     19293     19294     19293     19295
     19294     19295     19296     19297     19296     19298     19297     19298
     19299     19300     19299     19301     19300     19301     19302     19303
     19302     19304     19303     19304     19305     19306     19305     19307
     19306     19307     19308     19309     19308     19310     19309     19310
     19311     19312     19311     19313     19312     19313     19314     19315
     19314     19316     19315     19316     19317     19318     19317     19319
     19318     19319     19320     19321     19320     19322     19321     19322
     19323     19324     19323     19325     19324     19325     19326     19327
     19326     19328     19327     19328     19329     19330     19329     19331
     19330     19331     19332     19333     19332     19334     19333     19334
     19335     19336     19335     19337     19336     19337     19338     19339
     19338     19340     19339     19340     19341     19342     19341     19343
     19342     19343     19344     19345     19344     19346     19345     19346
     19347     19348     19347     19349     19348     19349     19350     19351
     19350     19352     19351     19352     19353     19354     19353     19355
     19354     19355     19356     19357     19356     19358     19357     19358
     19359     19360     19359     19361     19360     19361     19362     19363
     19362     19364     19363     19364     19365     19366     19365     19367
     19366     19367     19368     19369     19368     19370     19369     19370
     19371     19372     19371     19373     19372     19373     19374     19375
     19374     19376     19375     19376     19377     19378     19377     19379
     19378     19379     19380     19381     19380     19382     19381     19382
     19383     19384     19383     19385     19384     19385     19386     19387
     19386     19388     19387     19388     19389     19390     19389     19391
     19390     19391     19392     19393     19392     19394     19393     19394
     19395     19396     19395     19397     19396     19397     19398     19399
     19398     19400     19399     19400     19401     19402     19401     19403
     19402     19403     19404     19405     19404     19406     19405     19406
     19407     19408     19407     19409     19408     19409     19410     19411
     19410     19412     19411     19412     19413     19414     19413     19415
     19414     19415     19416     19417     19416     19418     19417     19418
     19419     19420     19419     19421     19420     19421     19422     19423
     19422     19424     19423     19424     19425     19426     19425     19427
     19426     19427     19428     19429     19428     19430     19429     19430
     19431     19432     19431     19433     19432     19433     19434     19435
     19434     19436     19435     19436     19437     19438     19437     19439
     19438     19439     19440     19441     19440     19442     19441     19442
     19443     19444     19443     19445     19444     19445     19446     19447
     19446     19448     19447     19448     19449     19450     19449     19451
     19450     19451     19452     19453     19452     19454     19453     19454
     19455     19456     19455     19457     19456     19457     19458     19459
     19458     19460     19459     19460     19461     19462     19461     19463
     19462     19463     19464     19465     19464     19466     19465     19466
     19467     19468     19467     19469     19468     19469     19470     19471
     19470     19472     19471     19472     19473     19474     19473     19475
     19474     19475     19476     19477     19476     19478     19477     19478
     19479     19480     19479     19481     19480     19481     19482     19483
     19482     19484     19483     19484     19485     19486     19485     19487
     19486     19487     19488     19489     19488     19490     19489     19490
     19491     19492     19491     19493     19492     19493     19494     19495
     19494     19496     19495     19496     19497     19498     19497     19499
     19498     19499     19500     19501     19500     19502     19501     19502
     19503     19504     19503     19505     19504     19505     19506     19507
     19506     19508     19507     19508     19509     19510     19509     19511
     19510     19511     19512     19513     19512     19514     19513     19514
     19515     19516     19515     19517     19516     19517     19518     19519
     19518     19520     19519     19520     19521     19522     19521     19523
     19522     19523     19524     19525     19524     19526     19525     19526
     19527     19528     19527     19529     19528     19529     19530     19531
     19530     19532     19531     19532     19533     19534     19533     19535
     19534     19535     19536     19537     19536     19538     19537     19538
     19539     19540     19539     19541     19540     19541     19542     19543
     19542     19544     19543     19544     19545     19546     19545     19547
     19546     19547     19548     19549     19548     19550     19549     19550
     19551     19552     19551     19553     19552     19553     19554     19555
     19554     19556     19555     19556     19557     19558     19557     19559
     19558     19559     19560     19561     19560     19562     19561     19562
     19563     19564     19563     19565     19564     19565     19566     19567
     19566     19568     19567     19568     19569     19570     19569     19571
     19570     19571     19572     19573     19572     19574     19573     19574
     19575     19576     19575     19577     19576     19577     19578     19579
     19578     19580     19579     19580     19581     19582     19581     19583
     19582     19583     19584     19585     19584     19586     19585     19586
     19587     19588     19587     19589     19588     19589     19590     19591
     19590     19592     19591     19592     19593     19594     19593     19595
     19594     19595     19596     19597     19596     19598     19597     19598
     19599     19600     19599     19601     19600     19601     19602     19603
     19602     19604     19603     19604     19605     19606     19605     19607
     19606     19607     19608     19609     19608     19610     19609     19610
     19611     19612     19611     19613     19612     19613     19614     19615
     19614     19616     19615     19616     19617     19618     19617     19619
     19618     19619     19620     19621     19620     19622     19621     19622
     19623     19624     19623     19625     19624     19625     19626     19627
     19626     19628     19627     19628     19629     19630     19629     19631
     19630     19631     19632     19633     19632     19634     19633     19634
     19635     19636     19635     19637     19636     19637     19638     19639
     19638     19640     19639     19640     19641     19642     19641     19643
     19642     19643     19644     19645     19644     19646     19645     19646
     19647     19648     19647     19649     19648     19649     19650     19651
     19650     19652     19651     19652     19653     19654     19653     19655
     19654     19655     19656     19657     19656     19658     19657     19658
     19659     19660     19659     19661     19660     19661     19662     19663
     19662     19664     19663     19664     19665     19666     19665     19667
     19666     19667     19668     19669     19668     19670     19669     19670
     19671     19672     19671     19673     19672     19673     19674     19675
     19674     19676     19675     19676     19677     19678     19677     19679
     19678     19679     19680     19681     19680     19682     19681     19682
     19683     19684     19683     19685     19684     19685     19686     19687
     19686     19688     19687     19688     19689     19690     19689     19691
     19690     19691     19692     19693     19692     19694     19693     19694
     19695     19696     19695     19697     19696     19697     19698     19699
     19698     19700     19699     19700     19701     19702     19701     19703
     19702     19703     19704     19705     19704     19706     19705     19706
     19707     19708     19707     19709     19708     19709     19710     19711
     19710     19712     19711     19712     19713     19714     19713     19715
     19714     19715     19716     19717     19716     19718     19717     19718
     19719     19720     19719     19721     19720     19721     19722     19723
     19722     19724     19723     19724     19725     19726     19725     19727
     19726     19727     19728     19729     19728     19730     19729     19730
     19731     19732     19731     19733     19732     19733     19734     19735
     19734     19736     19735     19736     19737     19738     19737     19739
     19738     19739     19740     19741     19740     19742     19741     19742
     19743     19744     19743     19745     19744     19745     19746     19747
     19746     19748     19747     19748     19749     19750     19749     19751
     19750     19751     19752     19753     19752     19754     19753     19754
     19755     19756     19755     19757     19756     19757     19758     19759
     19758     19760     19759     19760     19761     19762     19761     19763
     19762     19763     19764     19765     19764     19766     19765     19766
     19767     19768     19767     19769     19768     19769     19770     19771
     19770     19772     19771     19772     19773     19774     19773     19775
     19774     19775     19776     19777     19776     19778     19777     19778
     19779     19780     19779     19781     19780     19781     19782     19783
     19782     19784     19783     19784     19785     19786     19785     19787
     19786     19787     19788     19789     19788     19790     19789     19790
     19791     19792     19791     19793     19792     19793     19794     19795
     19794     19796     19795     19796     19797     19798     19797     19799
     19798     19799     19800     19801     19800     19802     19801     19802
     19803     19804     19803     19805     19804     19805     19806     19807
     19806     19808     19807     19808     19809     19810     19809     19811
     19810     19811     19812     19813     19812     19814     19813     19814
     19815     19816     19815     19817     19816     19817     19818     19819
     19818     19820     19819     19820     19821     19822     19821     19823
     19822     19823     19824     19825     19824     19826     19825     19826
     19827     19828     19827     19829     19828     19829     19830     19831
     19830     19832     19831     19832     19833     19834     19833     19835
     19834     19835     19836     19837     19836     19838     19837     19838
     19839     19840     19839     19841     19840     19841     19842     19843
     19842     19844     19843     19844     19845     19846     19845     19847
     19846     19847     19848     19849     19848     19850     19849     19850
     19851     19852     19851     19853     19852     19853     19854     19855
     19854     19856     19855     19856     19857     19858     19857     19859
     19858     19859     19860     19861     19860     19862     19861     19862
     19863     19864     19863     19865     19864     19865     19866     19867
     19866     19868     19867     19868     19869     19870     19869     19871
     19870     19871     19872     19873     19872     19874     19873     19874
     19875     19876     19875     19877     19876     19877     19878     19879
     19878     19880     19879     19880     19881     19882     19881     19883
     19882     19883     19884     19885     19884     19886     19885     19886
     19887     19888     19887     19889     19888     19889     19890     19891
     19890     19892     19891     19892     19893     19894     19893     19895
     19894     19895     19896     19897     19896     19898     19897     19898
     19899     19900     19899     19901     19900     19901     19902     19903
     19902     19904     19903     19904     19905     19906     19905     19907
     19906     19907     19908     19909     19908     19910     19909     19910
     19911     19912     19911     19913     19912     19913     19914     19915
     19914     19916     19915     19916     19917     19918     19917     19919
     19918     19919     19920     19921     19920     19922     19921     19922
     19923     19924     19923     19925     19924     19925     19926     19927
     19926     19928     19927     19928     19929     19930     19929     19931
     19930     19931     19932     19933     19932     19934     19933     19934
     19935     19936     19935     19937     19936     19937     19938     19939
     19938     19940     19939     19940     19941     19942     19941     19943
     19942     19943     19944     19945     19944     19946     19945     19946
     19947     19948     19947     19949     19948     19949     19950     19951
     19950     19952     19951     19952     19953     19954     19953     19955
     19954     19955     19956     19957     19956     19958     19957     19958
     19959     19960     19959     19961     19960     19961     19962     19963
     19962     19964     19963     19964     19965     19966     19965     19967
     19966     19967     19968     19969     19968     19970     19969     19970
     19971     19972     19971     19973     19972     19973     19974     19975
     19974     19976     19975     19976     19977     19978     19977     19979
     19978     19979     19980     19981     19980     19982     19981     19982
     19983     19984     19983     19985     19984     19985     19986     19987
     19986     19988     19987     19988     19989     19990     19989     19991
     19990     19991     19992     19993     19992     19994     19993     19994
     19995     19996     19995     19997     19996     19997     19998     19999
     19998     20000     19999     20000     20001     20002     20001     20003
     20002     20003     20004     20005     20004     20006     20005     20006
     20007     20008     20007     20009     20008     20009     20010     20011
     20010     20012     20011     20012     20013     20014     20013     20015
     20014     20015     20016     20017     20016     20018     20017     20018
     20019     20020     20019     20021     20020     20021     20022     20023
     20022     20024     20023     20024     20025     20026     20025     20027
     20026     20027     20028     20029     20028     20030     20029     20030
     20031     20032     20031     20033     20032     20033     20034     20035
     20034     20036     20035     20036     20037     20038     20037     20039
     20038     20039     20040     20041     20040     20042     20041     20042
     20043     20044     20043     20045     20044     20045     20046     20047
     20046     20048     20047     20048     20049     20050     20049     20051
     20050     20051     20052     20053     20052     20054     20053     20054
     20055     20056     20055     20057     20056     20057     20058     20059
     20058     20060     20059     20060     20061     20062     20061     20063
     20062     20063     20064     20065     20064     20066     20065     20066
     20067     20068     20067     20069     20068     20069     20070     20071
     20070     20072     20071     20072     20073     20074     20073     20075
     20074     20075     20076     20077     20076     20078     20077     20078
     20079     20080     20079     20081     20080     20081     20082     20083
     20082     20084     20083     20084     20085     20086     20085     20087
     20086     20087     20088     20089     20088     20090     20089     20090
     20091     20092     20091     20093     20092     20093     20094     20095
     20094     20096     20095     20096     20097     20098     20097     20099
     20098     20099     20100     20101     20100     20102     20101     20102
     20103     20104     20103     20105     20104     20105     20106     20107
     20106     20108     20107     20108     20109     20110     20109     20111
     20110     20111     20112     20113     20112     20114     20113     20114
     20115     20116     20115     20117     20116     20117     20118     20119
     20118     20120     20119     20120     20121     20122     20121     20123
     20122     20123     20124     20125     20124     20126     20125     20126
     20127     20128     20127     20129     20128     20129     20130     20131
     20130     20132     20131     20132     20133     20134     20133     20135
     20134     20135     20136     20137     20136     20138     20137     20138
     20139     20140     20139     20141     20140     20141     20142     20143
     20142     20144     20143     20144     20145     20146     20145     20147
     20146     20147     20148     20149     20148     20150     20149     20150
     20151     20152     20151     20153     20152     20153     20154     20155
     20154     20156     20155     20156     20157     20158     20157     20159
     20158     20159     20160     20161     20160     20162     20161     20162
     20163     20164     20163     20165     20164     20165     20166     20167
     20166     20168     20167     20168     20169     20170     20169     20171
     20170     20171     20172     20173     20172     20174     20173     20174
     20175     20176     20175     20177     20176     20177     20178     20179
     20178     20180     20179     20180     20181     20182     20181     20183
     20182     20183     20184     20185     20184     20186     20185     20186
     20187     20188     20187     20189     20188     20189     20190     20191
     20190     20192     20191     20192     20193     20194     20193     20195
     20194     20195     20196     20197     20196     20198     20197     20198
     20199     20200     20199     20201     20200     20201     20202     20203
     20202     20204     20203     20204     20205     20206     20205     20207
     20206     20207     20208     20209     20208     20210     20209     20210
     20211     20212     20211     20213     20212     20213     20214     20215
     20214     20216     20215     20216     20217     20218     20217     20219
     20218     20219     20220     20221     20220     20222     20221     20222
     20223     20224     20223     20225     20224     20225     20226     20227
     20226     20228     20227     20228     20229     20230     20229     20231
     20230     20231     20232     20233     20232     20234     20233     20234
     20235     20236     20235     20237     20236     20237     20238     20239
     20238     20240     20239     20240     20241     20242     20241     20243
     20242     20243     20244     20245     20244     20246     20245     20246
     20247     20248     20247     20249     20248     20249     20250     20251
     20250     20252     20251     20252     20253     20254     20253     20255
     20254     20255     20256     20257     20256     20258     20257     20258
     20259     20260     20259     20261     20260     20261     20262     20263
     20262     20264     20263     20264     20265     20266     20265     20267
     20266     20267     20268     20269     20268     20270     20269     20270
     20271     20272     20271     20273     20272     20273     20274     20275
     20274     20276     20275     20276     20277     20278     20277     20279
     20278     20279     20280     20281     20280     20282     20281     20282
     20283     20284     20283     20285     20284     20285     20286     20287
     20286     20288     20287     20288     20289     20290     20289     20291
     20290     20291     20292     20293     20292     20294     20293     20294
     20295     20296     20295     20297     20296     20297     20298     20299
     20298     20300     20299     20300     20301     20302     20301     20303
     20302     20303     20304     20305     20304     20306     20305     20306
     20307     20308     20307     20309     20308     20309     20310     20311
     20310     20312     20311     20312     20313     20314     20313     20315
     20314     20315     20316     20317     20316     20318     20317     20318
     20319     20320     20319     20321     20320     20321     20322     20323
     20322     20324     20323     20324     20325     20326     20325     20327
     20326     20327     20328     20329     20328     20330     20329     20330
     20331     20332     20331     20333     20332     20333     20334     20335
     20334     20336     20335     20336     20337     20338     20337     20339
     20338     20339     20340     20341     20340     20342     20341     20342
     20343     20344     20343     20345     20344     20345     20346     20347
     20346     20348     20347     20348     20349     20350     20349     20351
     20350     20351     20352     20353     20352     20354     20353     20354
     20355     20356     20355     20357     20356     20357     20358     20359
     20358     20360     20359     20360     20361     20362     20361     20363
     20362     20363     20364     20365     20364     20366     20365     20366
     20367     20368     20367     20369     20368     20369     20370     20371
     20370     20372     20371     20372     20373     20374     20373     20375
     20374     20375     20376     20377     20376     20378     20377     20378
     20379     20380     20379     20381     20380     20381     20382     20383
     20382     20384     20383     20384     20385     20386     20385     20387
     20386     20387     20388     20389     20388     20390     20389     20390
     20391     20392     20391     20393     20392     20393     20394     20395
     20394     20396     20395     20396     20397     20398     20397     20399
     20398     20399     20400     20401     20400     20402     20401     20402
     20403     20404     20403     20405     20404     20405     20406     20407
     20406     20408     20407     20408     20409     20410     20409     20411
     20410     20411     20412     20413     20412     20414     20413     20414
     20415     20416     20415     20417     20416     20417     20418     20419
     20418     20420     20419     20420     20421     20422     20421     20423
     20422     20423     20424     20425     20424     20426     20425     20426
     20427     20428     20427     20429     20428     20429     20430     20431
     20430     20432     20431     20432     20433     20434     20433     20435
     20434     20435     20436     20437     20436     20438     20437     20438
     20439     20440     20439     20441     20440     20441     20442     20443
     20442     20444     20443     20444     20445     20446     20445     20447
     20446     20447     20448     20449     20448     20450     20449     20450
     20451     20452     20451     20453     20452     20453     20454     20455
     20454     20456     20455     20456     20457     20458     20457     20459
     20458     20459     20460     20461     20460     20462     20461     20462
     20463     20464     20463     20465     20464     20465     20466     20467
     20466     20468     20467     20468     20469     20470     20469     20471
     20470     20471     20472     20473     20472     20474     20473     20474
     20475     20476     20475     20477     20476     20477     20478     20479
     20478     20480     20479     20480     20481     20482     20481     20483
     20482     20483     20484     20485     20484     20486     20485     20486
     20487     20488     20487     20489     20488     20489     20490     20491
     20490     20492     20491     20492     20493     20494     20493     20495
     20494     20495     20496     20497     20496     20498     20497     20498
     20499     20500     20499     20501     20500     20501     20502     20503
     20502     20504     20503     20504     20505     20506     20505     20507
     20506     20507     20508     20509     20508     20510     20509     20510
     20511     20512     20511     20513     20512     20513     20514     20515
     20514     20516     20515     20516     20517     20518     20517     20519
     20518     20519     20520     20521     20520     20522     20521     20522
     20523     20524     20523     20525     20524     20525     20526     20527
     20526     20528     20527     20528     20529     20530     20529     20531
     20530     20531     20532     20533     20532     20534     20533     20534
     20535     20536     20535     20537     20536     20537     20538     20539
     20538     20540     20539     20540     20541     20542     20541     20543
     20542     20543     20544     20545     20544     20546     20545     20546
     20547     20548     20547     20549     20548     20549     20550     20551
     20550     20552     20551     20552     20553     20554     20553     20555
     20554     20555     20556     20557     20556     20558     20557     20558
     20559     20560     20559     20561     20560     20561     20562     20563
     20562     20564     20563     20564     20565     20566     20565     20567
     20566     20567     20568     20569     20568     20570     20569     20570
     20571     20572     20571     20573     20572     20573     20574     20575
     20574     20576     20575     20576     20577     20578     20577     20579
     20578     20579     20580     20581     20580     20582     20581     20582
     20583     20584     20583     20585     20584     20585     20586     20587
     20586     20588     20587     20588     20589     20590     20589     20591
     20590     20591     20592     20593     20592     20594     20593     20594
     20595     20596     20595     20597     20596     20597     20598     20599
     20598     20600     20599     20600     20601     20602     20601     20603
     20602     20603     20604     20605     20604     20606     20605     20606
     20607     20608     20607     20609     20608     20609     20610     20611
     20610     20612     20611     20612     20613     20614     20613     20615
     20614     20615     20616     20617     20616     20618     20617     20618
     20619     20620     20619     20621     20620     20621     20622     20623
     20622     20624     20623     20624     20625     20626     20625     20627
     20626     20627     20628     20629     20628     20630     20629     20630
     20631     20632     20631     20633     20632     20633     20634     20635
     20634     20636     20635     20636     20637     20638     20637     20639
     20638     20639     20640     20641     20640     20642     20641     20642
     20643     20644     20643     20645     20644     20645     20646     20647
     20646     20648     20647     20648     20649     20650     20649     20651
     20650     20651     20652     20653     20652     20654     20653     20654
     20655     20656     20655     20657     20656     20657     20658     20659
     20658     20660     20659     20660     20661     20662     20661     20663
     20662     20663     20664     20665     20664     20666     20665     20666
     20667     20668     20667     20669     20668     20669     20670     20671
     20670     20672     20671     20672     20673     20674     20673     20675
     20674     20675     20676     20677     20676     20678     20677     20678
     20679     20680     20679     20681     20680     20681     20682     20683
     20682     20684     20683     20684     20685     20686     20685     20687
     20686     20687     20688     20689     20688     20690     20689     20690
     20691     20692     20691     20693     20692     20693     20694     20695
     20694     20696     20695     20696     20697     20698     20697     20699
     20698     20699     20700     20701     20700     20702     20701     20702
     20703     20704     20703     20705     20704     20705     20706     20707
     20706     20708     20707     20708     20709     20710     20709     20711
     20710     20711     20712     20713     20712     20714     20713     20714
     20715     20716     20715     20717     20716     20717     20718     20719
     20718     20720     20719     20720     20721     20722     20721     20723
     20722     20723     20724     20725     20724     20726     20725     20726
     20727     20728     20727     20729     20728     20729     20730     20731
     20730     20732     20731     20732     20733     20734     20733     20735
     20734     20735     20736     20737     20736     20738     20737     20738
     20739     20740     20739     20741     20740     20741     20742     20743
     20742     20744     20743     20744     20745     20746     20745     20747
     20746     20747     20748     20749     20748     20750     20749     20750
     20751     20752     20751     20753     20752     20753     20754     20755
     20754     20756     20755     20756     20757     20758     20757     20759
     20758     20759     20760     20761     20760     20762     20761     20762
     20763     20764     20763     20765     20764     20765     20766     20767
     20766     20768     20767     20768     20769     20770     20769     20771
     20770     20771     20772     20773     20772     20774     20773     20774
     20775     20776     20775     20777     20776     20777     20778     20779
     20778     20780     20779     20780     20781     20782     20781     20783
     20782     20783     20784     20785     20784     20786     20785     20786
     20787     20788     20787     20789     20788     20789     20790     20791
     20790     20792     20791     20792     20793     20794     20793     20795
     20794     20795     20796     20797     20796     20798     20797     20798
     20799     20800     20799     20801     20800     20801     20802     20803
     20802     20804     20803     20804     20805     20806     20805     20807
     20806     20807     20808     20809     20808     20810     20809     20810
     20811     20812     20811     20813     20812     20813     20814     20815
     20814     20816     20815     20816     20817     20818     20817     20819
     20818     20819     20820     20821     20820     20822     20821     20822
     20823     20824     20823     20825     20824     20825     20826     20827
     20826     20828     20827     20828     20829     20830     20829     20831
     20830     20831     20832     20833     20832     20834     20833     20834
     20835     20836     20835     20837     20836     20837     20838     20839
     20838     20840     20839     20840     20841     20842     20841     20843
     20842     20843     20844     20845     20844     20846     20845     20846
     20847     20848     20847     20849     20848     20849     20850     20851
     20850     20852     20851     20852     20853     20854     20853     20855
     20854     20855     20856     20857     20856     20858     20857     20858
     20859     20860     20859     20861     20860     20861     20862     20863
     20862     20864     20863     20864     20865     20866     20865     20867
     20866     20867     20868     20869     20868     20870     20869     20870
     20871     20872     20871     20873     20872     20873     20874     20875
     20874     20876     20875     20876     20877     20878     20877     20879
     20878     20879     20880     20881     20880     20882     20881     20882
     20883     20884     20883     20885     20884     20885     20886     20887
     20886     20888     20887     20888     20889     20890     20889     20891
     20890     20891     20892     20893     20892     20894     20893     20894
     20895     20896     20895     20897     20896     20897     20898     20899
     20898     20900     20899     20900     20901     20902     20901     20903
     20902     20903     20904     20905     20904     20906     20905     20906
     20907     20908     20907     20909     20908     20909     20910     20911
     20910     20912     20911     20912     20913     20914     20913     20915
     20914     20915     20916     20917     20916     20918     20917     20918
     20919     20920     20919     20921     20920     20921     20922     20923
     20922     20924     20923     20924     20925     20926     20925     20927
     20926     20927     20928     20929     20928     20930     20929     20930
     20931     20932     20931     20933     20932     20933     20934     20935
     20934     20936     20935     20936     20937     20938     20937     20939
     20938     20939     20940     20941     20940     20942     20941     20942
     20943     20944     20943     20945     20944     20945     20946     20947
     20946     20948     20947     20948     20949     20950     20949     20951
     20950     20951     20952     20953     20952     20954     20953     20954
     20955     20956     20955     20957     20956     20957     20958     20959
     20958     20960     20959     20960     20961     20962     20961     20963
     20962     20963     20964     20965     20964     20966     20965     20966
     20967     20968     20967     20969     20968     20969     20970     20971
     20970     20972     20971     20972     20973     20974     20973     20975
     20974     20975     20976     20977     20976     20978     20977     20978
     20979     20980     20979     20981     20980     20981     20982     20983
     20982     20984     20983     20984     20985     20986     20985     20987
     20986     20987     20988     20989     20988     20990     20989     20990
     20991     20992     20991     20993     20992     20993     20994     20995
     20994     20996     20995     20996     20997     20998     20997     20999
     20998     20999     21000     21001     21000     21002     21001     21002
     21003     21004     21003     21005     21004     21005     21006     21007
     21006     21008     21007     21008     21009     21010     21009     21011
     21010     21011     21012     21013     21012     21014     21013     21014
     21015     21016     21015     21017     21016     21017     21018     21019
     21018     21020     21019     21020     21021     21022     21021     21023
     21022     21023     21024     21025     21024     21026     21025     21026
     21027     21028     21027     21029     21028     21029     21030     21031
     21030     21032     21031     21032     21033     21034     21033     21035
     21034     21035     21036     21037     21036     21038     21037     21038
     21039     21040     21039     21041     21040     21041     21042     21043
     21042     21044     21043     21044     21045     21046     21045     21047
     21046     21047     21048     21049     21048     21050     21049     21050
     21051     21052     21051     21053     21052     21053     21054     21055
     21054     21056     21055     21056     21057     21058     21057     21059
     21058     21059     21060     21061     21060     21062     21061     21062
     21063     21064     21063     21065     21064     21065     21066     21067
     21066     21068     21067     21068     21069     21070     21069     21071
     21070     21071     21072     21073     21072     21074     21073     21074
     21075     21076     21075     21077     21076     21077     21078     21079
     21078     21080     21079     21080     21081     21082     21081     21083
     21082     21083     21084     21085     21084     21086     21085     21086
     21087     21088     21087     21089     21088     21089     21090     21091
     21090     21092     21091     21092     21093     21094     21093     21095
     21094     21095     21096     21097     21096     21098     21097     21098
     21099     21100     21099     21101     21100     21101     21102     21103
     21102     21104     21103     21104     21105     21106     21105     21107
     21106     21107     21108     21109     21108     21110     21109     21110
     21111     21112     21111     21113     21112     21113     21114     21115
     21114     21116     21115     21116     21117     21118     21117     21119
     21118     21119     21120     21121     21120     21122     21121     21122
     21123     21124     21123     21125     21124     21125     21126     21127
     21126     21128     21127     21128     21129     21130     21129     21131
     21130     21131     21132     21133     21132     21134     21133     21134
     21135     21136     21135     21137     21136     21137     21138     21139
     21138     21140     21139     21140     21141     21142     21141     21143
     21142     21143     21144     21145     21144     21146     21145     21146
     21147     21148     21147     21149     21148     21149     21150     21151
     21150     21152     21151     21152     21153     21154     21153     21155
     21154     21155     21156     21157     21156     21158     21157     21158
     21159     21160     21159     21161     21160     21161     21162     21163
     21162     21164     21163     21164     21165     21166     21165     21167
     21166     21167     21168     21169     21168     21170     21169     21170
     21171     21172     21171     21173     21172     21173     21174     21175
     21174     21176     21175     21176     21177     21178     21177     21179
     21178     21179     21180     21181     21180     21182     21181     21182
     21183     21184     21183     21185     21184     21185     21186     21187
     21186     21188     21187     21188     21189     21190     21189     21191
     21190     21191     21192     21193     21192     21194     21193     21194
     21195     21196     21195     21197     21196     21197     21198     21199
     21198     21200     21199     21200     21201     21202     21201     21203
     21202     21203     21204     21205     21204     21206     21205     21206
     21207     21208     21207     21209     21208     21209     21210     21211
     21210     21212     21211     21212     21213     21214     21213     21215
     21214     21215     21216     21217     21216     21218     21217     21218
     21219     21220     21219     21221     21220     21221     21222     21223
     21222     21224     21223     21224     21225     21226     21225     21227
     21226     21227     21228     21229     21228     21230     21229     21230
     21231     21232     21231     21233     21232     21233     21234     21235
     21234     21236     21235     21236     21237     21238     21237     21239
     21238     21239     21240     21241     21240     21242     21241     21242
     21243     21244     21243     21245     21244     21245     21246     21247
     21246     21248     21247     21248     21249     21250     21249     21251
     21250     21251     21252     21253     21252     21254     21253     21254
     21255     21256     21255     21257     21256     21257     21258     21259
     21258     21260     21259     21260     21261     21262     21261     21263
     21262     21263     21264     21265     21264     21266     21265     21266
     21267     21268     21267     21269     21268     21269     21270     21271
     21270     21272     21271     21272     21273     21274     21273     21275
     21274     21275     21276     21277     21276     21278     21277     21278
     21279     21280     21279     21281     21280     21281     21282     21283
     21282     21284     21283     21284     21285     21286     21285     21287
     21286     21287     21288     21289     21288     21290     21289     21290
     21291     21292     21291     21293     21292     21293     21294     21295
     21294     21296     21295     21296     21297     21298     21297     21299
     21298     21299     21300     21301     21300     21302     21301     21302
     21303     21304     21303     21305     21304     21305     21306     21307
     21306     21308     21307     21308     21309     21310     21309     21311
     21310     21311     21312     21313     21312     21314     21313     21314
     21315     21316     21315     21317     21316     21317     21318     21319
     21318     21320     21319     21320     21321     21322     21321     21323
     21322     21323     21324     21325     21324     21326     21325     21326
     21327     21328     21327     21329     21328     21329     21330     21331
     21330     21332     21331     21332     21333     21334     21333     21335
     21334     21335     21336     21337     21336     21338     21337     21338
     21339     21340     21339     21341     21340     21341     21342     21343
     21342     21344     21343     21344     21345     21346     21345     21347
     21346     21347     21348     21349     21348     21350     21349     21350
     21351     21352     21351     21353     21352     21353     21354     21355
     21354     21356     21355     21356     21357     21358     21357     21359
     21358     21359     21360     21361     21360     21362     21361     21362
     21363     21364     21363     21365     21364     21365     21366     21367
     21366     21368     21367     21368     21369     21370     21369     21371
     21370     21371     21372     21373     21372     21374     21373     21374
     21375     21376     21375     21377     21376     21377     21378     21379
     21378     21380     21379     21380     21381     21382     21381     21383
     21382     21383     21384     21385     21384     21386     21385     21386
     21387     21388     21387     21389     21388     21389     21390     21391
     21390     21392     21391     21392     21393     21394     21393     21395
     21394     21395     21396     21397     21396     21398     21397     21398
     21399     21400     21399     21401     21400     21401     21402     21403
     21402     21404     21403     21404     21405     21406     21405     21407
     21406     21407     21408     21409     21408     21410     21409     21410
     21411     21412     21411     21413     21412     21413     21414     21415
     21414     21416     21415     21416     21417     21418     21417     21419
     21418     21419     21420     21421     21420     21422     21421     21422
     21423     21424     21423     21425     21424     21425     21426     21427
     21426     21428     21427     21428     21429     21430     21429     21431
     21430     21431     21432     21433     21432     21434     21433     21434
     21435     21436     21435     21437     21436     21437     21438     21439
     21438     21440     21439     21440     21441     21442     21441     21443
     21442     21443     21444     21445     21444     21446     21445     21446
     21447     21448     21447     21449     21448     21449     21450     21451
     21450     21452     21451     21452     21453     21454     21453     21455
     21454     21455     21456     21457     21456     21458     21457     21458
     21459     21460     21459     21461     21460     21461     21462     21463
     21462     21464     21463     21464     21465     21466     21465     21467
     21466     21467     21468     21469     21468     21470     21469     21470
     21471     21472     21471     21473     21472     21473     21474     21475
     21474     21476     21475     21476     21477     21478     21477     21479
     21478     21479     21480     21481     21480     21482     21481     21482
     21483     21484     21483     21485     21484     21485     21486     21487
     21486     21488     21487     21488     21489     21490     21489     21491
     21490     21491     21492     21493     21492     21494     21493     21494
     21495     21496     21495     21497     21496     21497     21498     21499
     21498     21500     21499     21500     21501     21502     21501     21503
     21502     21503     21504     21505     21504     21506     21505     21506
     21507     21508     21507     21509     21508     21509     21510     21511
     21510     21512     21511     21512     21513     21514     21513     21515
     21514     21515     21516     21517     21516     21518     21517     21518
     21519     21520     21519     21521     21520     21521     21522     21523
     21522     21524     21523     21524     21525     21526     21525     21527
     21526     21527     21528     21529     21528     21530     21529     21530
     21531     21532     21531     21533     21532     21533     21534     21535
     21534     21536     21535     21536     21537     21538     21537     21539
     21538     21539     21540     21541     21540     21542     21541     21542
     21543     21544     21543     21545     21544     21545     21546     21547
     21546     21548     21547     21548     21549     21550     21549     21551
     21550     21551     21552     21553     21552     21554     21553     21554
     21555     21556     21555     21557     21556     21557     21558     21559
     21558     21560     21559     21560     21561     21562     21561     21563
     21562     21563     21564     21565     21564     21566     21565     21566
     21567     21568     21567     21569     21568     21569     21570     21571
     21570     21572     21571     21572     21573     21574     21573     21575
     21574     21575     21576     21577     21576     21578     21577     21578
     21579     21580     21579     21581     21580     21581     21582     21583
     21582     21584     21583     21584     21585     21586     21585     21587
     21586     21587     21588     21589     21588     21590     21589     21590
     21591     21592     21591     21593     21592     21593     21594     21595
     21594     21596     21595     21596     21597     21598     21597     21599
     21598     21599     21600     21601     21600     21602     21601     21602
     21603     21604     21603     21605     21604     21605     21606     21607
     21606     21608     21607     21608     21609     21610     21609     21611
     21610     21611     21612     21613     21612     21614     21613     21614
     21615     21616     21615     21617     21616     21617     21618     21619
     21618     21620     21619     21620     21621     21622     21621     21623
     21622     21623     21624     21625     21624     21626     21625     21626
     21627     21628     21627     21629     21628     21629     21630     21631
     21630     21632     21631     21632     21633     21634     21633     21635
     21634     21635     21636     21637     21636     21638     21637     21638
     21639     21640     21639     21641     21640     21641     21642     21643
     21642     21644     21643     21644     21645     21646     21645     21647
     21646     21647     21648     21649     21648     21650     21649     21650
     21651     21652     21651     21653     21652     21653     21654     21655
     21654     21656     21655     21656     21657     21658     21657     21659
     21658     21659     21660     21661     21660     21662     21661     21662
     21663     21664     21663     21665     21664     21665     21666     21667
     21666     21668     21667     21668     21669     21670     21669     21671
     21670     21671     21672     21673     21672     21674     21673     21674
     21675     21676     21675     21677     21676     21677     21678     21679
     21678     21680     21679     21680     21681     21682     21681     21683
     21682     21683     21684     21685     21684     21686     21685     21686
     21687     21688     21687     21689     21688     21689     21690     21691
     21690     21692     21691     21692     21693     21694     21693     21695
     21694     21695     21696     21697     21696     21698     21697     21698
     21699     21700     21699     21701     21700     21701     21702     21703
     21702     21704     21703     21704     21705     21706     21705     21707
     21706     21707     21708     21709     21708     21710     21709     21710
     21711     21712     21711     21713     21712     21713     21714     21715
     21714     21716     21715     21716     21717     21718     21717     21719
     21718     21719     21720     21721     21720     21722     21721     21722
     21723     21724     21723     21725     21724     21725     21726     21727
     21726     21728     21727     21728     21729     21730     21729     21731
     21730     21731     21732     21733     21732     21734     21733     21734
     21735     21736     21735     21737     21736     21737     21738     21739
     21738     21740     21739     21740     21741     21742     21741     21743
     21742     21743     21744     21745     21744     21746     21745     21746
     21747     21748     21747     21749     21748     21749     21750     21751
     21750     21752     21751     21752     21753     21754     21753     21755
     21754     21755     21756     21757     21756     21758     21757     21758
     21759     21760     21759     21761     21760     21761     21762     21763
     21762     21764     21763     21764     21765     21766     21765     21767
     21766     21767     21768     21769     21768     21770     21769     21770
     21771     21772     21771     21773     21772     21773     21774     21775
     21774     21776     21775     21776     21777     21778     21777     21779
     21778     21779     21780     21781     21780     21782     21781     21782
     21783     21784     21783     21785     21784     21785     21786     21787
     21786     21788     21787     21788     21789     21790     21789     21791
     21790     21791     21792     21793     21792     21794     21793     21794
     21795     21796     21795     21797     21796     21797     21798     21799
     21798     21800     21799     21800     21801     21802     21801     21803
     21802     21803     21804     21805     21804     21806     21805     21806
     21807     21808     21807     21809     21808     21809     21810     21811
     21810     21812     21811     21812     21813     21814     21813     21815
     21814     21815     21816     21817     21816     21818     21817     21818
     21819     21820     21819     21821     21820     21821     21822     21823
     21822     21824     21823     21824     21825     21826     21825     21827
     21826     21827     21828     21829     21828     21830     21829     21830
     21831     21832     21831     21833     21832     21833     21834     21835
     21834     21836     21835     21836     21837     21838     21837     21839
     21838     21839     21840     21841     21840     21842     21841     21842
     21843     21844     21843     21845     21844     21845     21846     21847
     21846     21848     21847     21848     21849     21850     21849     21851
     21850     21851     21852     21853     21852     21854     21853     21854
     21855     21856     21855     21857     21856     21857     21858     21859
     21858     21860     21859     21860     21861     21862     21861     21863
     21862     21863     21864     21865     21864     21866     21865     21866
     21867     21868     21867     21869     21868     21869     21870     21871
     21870     21872     21871     21872     21873     21874     21873     21875
     21874     21875     21876     21877     21876     21878     21877     21878
     21879     21880     21879     21881     21880     21881     21882     21883
     21882     21884     21883     21884     21885     21886     21885     21887
     21886     21887     21888     21889     21888     21890     21889     21890
     21891     21892     21891     21893     21892     21893     21894     21895
     21894     21896     21895     21896     21897     21898     21897     21899
     21898     21899     21900     21901     21900     21902     21901     21902
     21903     21904     21903     21905     21904     21905     21906     21907
     21906     21908     21907     21908     21909     21910     21909     21911
     21910     21911     21912     21913     21912     21914     21913     21914
     21915     21916     21915     21917     21916     21917     21918     21919
     21918     21920     21919     21920     21921     21922     21921     21923
     21922     21923     21924     21925     21924     21926     21925     21926
     21927     21928     21927     21929     21928     21929     21930     21931
     21930     21932     21931     21932     21933     21934     21933     21935
     21934     21935     21936     21937     21936     21938     21937     21938
     21939     21940     21939     21941     21940     21941     21942     21943
     21942     21944     21943     21944     21945     21946     21945     21947
     21946     21947     21948     21949     21948     21950     21949     21950
     21951     21952     21951     21953     21952     21953     21954     21955
     21954     21956     21955     21956     21957     21958     21957     21959
     21958     21959     21960     21961     21960     21962     21961     21962
     21963     21964     21963     21965     21964     21965     21966     21967
     21966     21968     21967     21968     21969     21970     21969     21971
     21970     21971     21972     21973     21972     21974     21973     21974
     21975     21976     21975     21977     21976     21977     21978     21979
     21978     21980     21979     21980     21981     21982     21981     21983
     21982     21983     21984     21985     21984     21986     21985     21986
     21987     21988     21987     21989     21988     21989     21990     21991
     21990     21992     21991     21992     21993     21994     21993     21995
     21994     21995     21996     21997     21996     21998     21997     21998
     21999     22000     21999     22001     22000     22001     22002     22003
     22002     22004     22003     22004     22005     22006     22005     22007
     22006     22007     22008     22009     22008     22010     22009     22010
     22011     22012     22011     22013     22012     22013     22014     22015
     22014     22016     22015     22016     22017     22018     22017     22019
     22018     22019     22020     22021     22020     22022     22021     22022
     22023     22024     22023     22025     22024     22025     22026     22027
     22026     22028     22027     22028     22029     22030     22029     22031
     22030     22031     22032     22033     22032     22034     22033     22034
     22035     22036     22035     22037     22036     22037     22038     22039
     22038     22040     22039     22040     22041     22042     22041     22043
     22042     22043     22044     22045     22044     22046     22045     22046
     22047     22048     22047     22049     22048     22049     22050     22051
     22050     22052     22051     22052     22053     22054     22053     22055
     22054     22055     22056     22057     22056     22058     22057     22058
     22059     22060     22059     22061     22060     22061     22062     22063
     22062     22064     22063     22064     22065     22066     22065     22067
     22066     22067     22068     22069     22068     22070     22069     22070
     22071     22072     22071     22073     22072     22073     22074     22075
     22074     22076     22075     22076     22077     22078     22077     22079
     22078     22079     22080     22081     22080     22082     22081     22082
     22083     22084     22083     22085     22084     22085     22086     22087
     22086     22088     22087     22088     22089     22090     22089     22091
     22090     22091     22092     22093     22092     22094     22093     22094
     22095     22096     22095     22097     22096     22097     22098     22099
     22098     22100     22099     22100     22101     22102     22101     22103
     22102     22103     22104     22105     22104     22106     22105     22106
     22107     22108     22107     22109     22108     22109     22110     22111
     22110     22112     22111     22112     22113     22114     22113     22115
     22114     22115     22116     22117     22116     22118     22117     22118
     22119     22120     22119     22121     22120     22121     22122     22123
     22122     22124     22123     22124     22125     22126     22125     22127
     22126     22127     22128     22129     22128     22130     22129     22130
     22131     22132     22131     22133     22132     22133     22134     22135
     22134     22136     22135     22136     22137     22138     22137     22139
     22138     22139     22140     22141     22140     22142     22141     22142
     22143     22144     22143     22145     22144     22145     22146     22147
     22146     22148     22147     22148     22149     22150     22149     22151
     22150     22151     22152     22153     22152     22154     22153     22154
     22155     22156     22155     22157     22156     22157     22158     22159
     22158     22160     22159     22160     22161     22162     22161     22163
     22162     22163     22164     22165     22164     22166     22165     22166
     22167     22168     22167     22169     22168     22169     22170     22171
     22170     22172     22171     22172     22173     22174     22173     22175
     22174     22175     22176     22177     22176     22178     22177     22178
     22179     22180     22179     22181     22180     22181     22182     22183
     22182     22184     22183     22184     22185     22186     22185     22187
     22186     22187     22188     22189     22188     22190     22189     22190
     22191     22192     22191     22193     22192     22193     22194     22195
     22194     22196     22195     22196     22197     22198     22197     22199
     22198     22199     22200     22201     22200     22202     22201     22202
     22203     22204     22203     22205     22204     22205     22206     22207
     22206     22208     22207     22208     22209     22210     22209     22211
     22210     22211     22212     22213     22212     22214     22213     22214
     22215     22216     22215     22217     22216     22217     22218     22219
     22218     22220     22219     22220     22221     22222     22221     22223
     22222     22223     22224     22225     22224     22226     22225     22226
     22227     22228     22227     22229     22228     22229     22230     22231
     22230     22232     22231     22232     22233     22234     22233     22235
     22234     22235     22236     22237     22236     22238     22237     22238
     22239     22240     22239     22241     22240     22241     22242     22243
     22242     22244     22243     22244     22245     22246     22245     22247
     22246     22247     22248     22249     22248     22250     22249     22250
     22251     22252     22251     22253     22252     22253     22254     22255
     22254     22256     22255     22256     22257     22258     22257     22259
     22258     22259     22260     22261     22260     22262     22261     22262
     22263     22264     22263     22265     22264     22265     22266     22267
     22266     22268     22267     22268     22269     22270     22269     22271
     22270     22271     22272     22273     22272     22274     22273     22274
     22275     22276     22275     22277     22276     22277     22278     22279
     22278     22280     22279     22280     22281     22282     22281     22283
     22282     22283     22284     22285     22284     22286     22285     22286
     22287     22288     22287     22289     22288     22289     22290     22291
     22290     22292     22291     22292     22293     22294     22293     22295
     22294     22295     22296     22297     22296     22298     22297     22298
     22299     22300     22299     22301     22300     22301     22302     22303
     22302     22304     22303     22304     22305     22306     22305     22307
     22306     22307     22308     22309     22308     22310     22309     22310
     22311     22312     22311     22313     22312     22313     22314     22315
     22314     22316     22315     22316     22317     22318     22317     22319
     22318     22319     22320     22321     22320     22322     22321     22322
     22323     22324     22323     22325     22324     22325     22326     22327
     22326     22328     22327     22328     22329     22330     22329     22331
     22330     22331     22332     22333     22332     22334     22333     22334
     22335     22336     22335     22337     22336     22337     22338     22339
     22338     22340     22339     22340     22341     22342     22341     22343
     22342     22343     22344     22345     22344     22346     22345     22346
     22347     22348     22347     22349     22348     22349     22350     22351
     22350     22352     22351     22352     22353     22354     22353     22355
     22354     22355     22356     22357     22356     22358     22357     22358
     22359     22360     22359     22361     22360     22361     22362     22363
     22362     22364     22363     22364     22365     22366     22365     22367
     22366     22367     22368     22369     22368     22370     22369     22370
     22371     22372     22371     22373     22372     22373     22374     22375
     22374     22376     22375     22376     22377     22378     22377     22379
     22378     22379     22380     22381     22380     22382     22381     22382
     22383     22384     22383     22385     22384     22385     22386     22387
     22386     22388     22387     22388     22389     22390     22389     22391
     22390     22391     22392     22393     22392     22394     22393     22394
     22395     22396     22395     22397     22396     22397     22398     22399
     22398     22400     22399     22400     22401     22402     22401     22403
     22402     22403     22404     22405     22404     22406     22405     22406
     22407     22408     22407     22409     22408     22409     22410     22411
     22410     22412     22411     22412     22413     22414     22413     22415
     22414     22415     22416     22417     22416     22418     22417     22418
     22419     22420     22419     22421     22420     22421     22422     22423
     22422     22424     22423     22424     22425     22426     22425     22427
     22426     22427     22428     22429     22428     22430     22429     22430
     22431     22432     22431     22433     22432     22433     22434     22435
     22434     22436     22435     22436     22437     22438     22437     22439
     22438     22439     22440     22441     22440     22442     22441     22442
     22443     22444     22443     22445     22444     22445     22446     22447
     22446     22448     22447     22448     22449     22450     22449     22451
     22450     22451     22452     22453     22452     22454     22453     22454
     22455     22456     22455     22457     22456     22457     22458     22459
     22458     22460     22459     22460     22461     22462     22461     22463
     22462     22463     22464     22465     22464     22466     22465     22466
     22467     22468     22467     22469     22468     22469     22470     22471
     22470     22472     22471     22472     22473     22474     22473     22475
     22474     22475     22476     22477     22476     22478     22477     22478
     22479     22480     22479     22481     22480     22481     22482     22483
     22482     22484     22483     22484     22485     22486     22485     22487
     22486     22487     22488     22489     22488     22490     22489     22490
     22491     22492     22491     22493     22492     22493     22494     22495
     22494     22496     22495     22496     22497     22498     22497     22499
     22498     22499     22500     22501     22500     22502     22501     22502
     22503     22504     22503     22505     22504     22505     22506     22507
     22506     22508     22507     22508     22509     22510     22509     22511
     22510     22511     22512     22513     22512     22514     22513     22514
     22515     22516     22515     22517     22516     22517     22518     22519
     22518     22520     22519     22520     22521     22522     22521     22523
     22522     22523     22524     22525     22524     22526     22525     22526
     22527     22528     22527     22529     22528     22529     22530     22531
     22530     22532     22531     22532     22533     22534     22533     22535
     22534     22535     22536     22537     22536     22538     22537     22538
     22539     22540     22539     22541     22540     22541     22542     22543
     22542     22544     22543     22544     22545     22546     22545     22547
     22546     22547     22548     22549     22548     22550     22549     22550
     22551     22552     22551     22553     22552     22553     22554     22555
     22554     22556     22555     22556     22557     22558     22557     22559
     22558     22559     22560     22561     22560     22562     22561     22562
     22563     22564     22563     22565     22564     22565     22566     22567
     22566     22568     22567     22568     22569     22570     22569     22571
     22570     22571     22572     22573     22572     22574     22573     22574
     22575     22576     22575     22577     22576     22577     22578     22579
     22578     22580     22579     22580     22581     22582     22581     22583
     22582     22583     22584     22585     22584     22586     22585     22586
     22587     22588     22587     22589     22588     22589     22590     22591
     22590     22592     22591     22592     22593     22594     22593     22595
     22594     22595     22596     22597     22596     22598     22597     22598
     22599     22600     22599     22601     22600     22601     22602     22603
     22602     22604     22603     22604     22605     22606     22605     22607
     22606     22607     22608     22609     22608     22610     22609     22610
     22611     22612     22611     22613     22612     22613     22614     22615
     22614     22616     22615     22616     22617     22618     22617     22619
     22618     22619     22620     22621     22620     22622     22621     22622
     22623     22624     22623     22625     22624     22625     22626     22627
     22626     22628     22627     22628     22629     22630     22629     22631
     22630     22631     22632     22633     22632     22634     22633     22634
     22635     22636     22635     22637     22636     22637     22638     22639
     22638     22640     22639     22640     22641     22642     22641     22643
     22642     22643     22644     22645     22644     22646     22645     22646
     22647     22648     22647     22649     22648     22649     22650     22651
     22650     22652     22651     22652     22653     22654     22653     22655
     22654     22655     22656     22657     22656     22658     22657     22658
     22659     22660     22659     22661     22660     22661     22662     22663
     22662     22664     22663     22664     22665     22666     22665     22667
     22666     22667     22668     22669     22668     22670     22669     22670
     22671     22672     22671     22673     22672     22673     22674     22675
     22674     22676     22675     22676     22677     22678     22677     22679
     22678     22679     22680     22681     22680     22682     22681     22682
     22683     22684     22683     22685     22684     22685     22686     22687
     22686     22688     22687     22688     22689     22690     22689     22691
     22690     22691     22692     22693     22692     22694     22693     22694
     22695     22696     22695     22697     22696     22697     22698     22699
     22698     22700     22699     22700     22701     22702     22701     22703
     22702     22703     22704     22705     22704     22706     22705     22706
     22707     22708     22707     22709     22708     22709     22710     22711
     22710     22712     22711     22712     22713     22714     22713     22715
     22714     22715     22716     22717     22716     22718     22717     22718
     22719     22720     22719     22721     22720     22721     22722     22723
     22722     22724     22723     22724     22725     22726     22725     22727
     22726     22727     22728     22729     22728     22730     22729     22730
     22731     22732     22731     22733     22732     22733     22734     22735
     22734     22736     22735     22736     22737     22738     22737     22739
     22738     22739     22740     22741     22740     22742     22741     22742
     22743     22744     22743     22745     22744     22745     22746     22747
     22746     22748     22747     22748     22749     22750     22749     22751
     22750     22751     22752     22753     22752     22754     22753     22754
     22755     22756     22755     22757     22756     22757     22758     22759
     22758     22760     22759     22760     22761     22762     22761     22763
     22762     22763     22764     22765     22764     22766     22765     22766
     22767     22768     22767     22769     22768     22769     22770     22771
     22770     22772     22771     22772     22773     22774     22773     22775
     22774     22775     22776     22777     22776     22778     22777     22778
     22779     22780     22779     22781     22780     22781     22782     22783
     22782     22784     22783     22784     22785     22786     22785     22787
     22786     22787     22788     22789     22788     22790     22789     22790
     22791     22792     22791     22793     22792     22793     22794     22795
     22794     22796     22795     22796     22797     22798     22797     22799
     22798     22799     22800     22801     22800     22802     22801     22802
     22803     22804     22803     22805     22804     22805     22806     22807
     22806     22808     22807     22808     22809     22810     22809     22811
     22810     22811     22812     22813     22812     22814     22813     22814
     22815     22816     22815     22817     22816     22817     22818     22819
     22818     22820     22819     22820     22821     22822     22821     22823
     22822     22823     22824     22825     22824     22826     22825     22826
     22827     22828     22827     22829     22828     22829     22830     22831
     22830     22832     22831     22832     22833     22834     22833     22835
     22834     22835     22836     22837     22836     22838     22837     22838
     22839     22840     22839     22841     22840     22841     22842     22843
     22842     22844     22843     22844     22845     22846     22845     22847
     22846     22847     22848     22849     22848     22850     22849     22850
     22851     22852     22851     22853     22852     22853     22854     22855
     22854     22856     22855     22856     22857     22858     22857     22859
     22858     22859     22860     22861     22860     22862     22861     22862
     22863     22864     22863     22865     22864     22865     22866     22867
     22866     22868     22867     22868     22869     22870     22869     22871
     22870     22871     22872     22873     22872     22874     22873     22874
     22875     22876     22875     22877     22876     22877     22878     22879
     22878     22880     22879     22880     22881     22882     22881     22883
     22882     22883     22884     22885     22884     22886     22885     22886
     22887     22888     22887     22889     22888     22889     22890     22891
     22890     22892     22891     22892     22893     22894     22893     22895
     22894     22895     22896     22897     22896     22898     22897     22898
     22899     22900     22899     22901     22900     22901     22902     22903
     22902     22904     22903     22904     22905     22906     22905     22907
     22906     22907     22908     22909     22908     22910     22909     22910
     22911     22912     22911     22913     22912     22913     22914     22915
     22914     22916     22915     22916     22917     22918     22917     22919
     22918     22919     22920     22921     22920     22922     22921     22922
     22923     22924     22923     22925     22924     22925     22926     22927
     22926     22928     22927     22928     22929     22930     22929     22931
     22930     22931     22932     22933     22932     22934     22933     22934
     22935     22936     22935     22937     22936     22937     22938     22939
     22938     22940     22939     22940     22941     22942     22941     22943
     22942     22943     22944     22945     22944     22946     22945     22946
     22947     22948     22947     22949     22948     22949     22950     22951
     22950     22952     22951     22952     22953     22954     22953     22955
     22954     22955     22956     22957     22956     22958     22957     22958
     22959     22960     22959     22961     22960     22961     22962     22963
     22962     22964     22963     22964     22965     22966     22965     22967
     22966     22967     22968     22969     22968     22970     22969     22970
     22971     22972     22971     22973     22972     22973     22974     22975
     22974     22976     22975     22976     22977     22978     22977     22979
     22978     22979     22980     22981     22980     22982     22981     22982
     22983     22984     22983     22985     22984     22985     22986     22987
     22986     22988     22987     22988     22989     22990     22989     22991
     22990     22991     22992     22993     22992     22994     22993     22994
     22995     22996     22995     22997     22996     22997     22998     22999
     22998     23000     22999     23000     23001     23002     23001     23003
     23002     23003     23004     23005     23004     23006     23005     23006
     23007     23008     23007     23009     23008     23009     23010     23011
     23010     23012     23011     23012     23013     23014     23013     23015
     23014     23015     23016     23017     23016     23018     23017     23018
     23019     23020     23019     23021     23020     23021     23022     23023
     23022     23024     23023     23024     23025     23026     23025     23027
     23026     23027     23028     23029     23028     23030     23029     23030
     23031     23032     23031     23033     23032     23033     23034     23035
     23034     23036     23035     23036     23037     23038     23037     23039
     23038     23039     23040     23041     23040     23042     23041     23042
     23043     23044     23043     23045     23044     23045     23046     23047
     23046     23048     23047     23048     23049     23050     23049     23051
     23050     23051     23052     23053     23052     23054     23053     23054
     23055     23056     23055     23057     23056     23057     23058     23059
     23058     23060     23059     23060     23061     23062     23061     23063
     23062     23063     23064     23065     23064     23066     23065     23066
     23067     23068     23067     23069     23068     23069     23070     23071
     23070     23072     23071     23072     23073     23074     23073     23075
     23074     23075     23076     23077     23076     23078     23077     23078
     23079     23080     23079     23081     23080     23081     23082     23083
     23082     23084     23083     23084     23085     23086     23085     23087
     23086     23087     23088     23089     23088     23090     23089     23090
     23091     23092     23091     23093     23092     23093     23094     23095
     23094     23096     23095     23096     23097     23098     23097     23099
     23098     23099     23100     23101     23100     23102     23101     23102
     23103     23104     23103     23105     23104     23105     23106     23107
     23106     23108     23107     23108     23109     23110     23109     23111
     23110     23111     23112     23113     23112     23114     23113     23114
     23115     23116     23115     23117     23116     23117     23118     23119
     23118     23120     23119     23120     23121     23122     23121     23123
     23122     23123     23124     23125     23124     23126     23125     23126
     23127     23128     23127     23129     23128     23129     23130     23131
     23130     23132     23131     23132     23133     23134     23133     23135
     23134     23135     23136     23137     23136     23138     23137     23138
     23139     23140     23139     23141     23140     23141     23142     23143
     23142     23144     23143     23144     23145     23146     23145     23147
     23146     23147     23148     23149     23148     23150     23149     23150
     23151     23152     23151     23153     23152     23153     23154     23155
     23154     23156     23155     23156     23157     23158     23157     23159
     23158     23159     23160     23161     23160     23162     23161     23162
     23163     23164     23163     23165     23164     23165     23166     23167
     23166     23168     23167     23168     23169     23170     23169     23171
     23170     23171     23172     23173     23172     23174     23173     23174
     23175     23176     23175     23177     23176     23177     23178     23179
     23178     23180     23179     23180     23181     23182     23181     23183
     23182     23183     23184     23185     23184     23186     23185     23186
     23187     23188     23187     23189     23188     23189     23190     23191
     23190     23192     23191     23192     23193     23194     23193     23195
     23194     23195     23196     23197     23196     23198     23197     23198
     23199     23200     23199     23201     23200     23201     23202     23203
     23202     23204     23203     23204     23205     23206     23205     23207
     23206     23207     23208     23209     23208     23210     23209     23210
     23211     23212     23211     23213     23212     23213     23214     23215
     23214     23216     23215     23216     23217     23218     23217     23219
     23218     23219     23220     23221     23220     23222     23221     23222
     23223     23224     23223     23225     23224     23225     23226     23227
     23226     23228     23227     23228     23229     23230     23229     23231
     23230     23231     23232     23233     23232     23234     23233     23234
     23235     23236     23235     23237     23236     23237     23238     23239
     23238     23240     23239     23240     23241     23242     23241     23243
     23242     23243     23244     23245     23244     23246     23245     23246
     23247     23248     23247     23249     23248     23249     23250     23251
     23250     23252     23251     23252     23253     23254     23253     23255
     23254     23255     23256     23257     23256     23258     23257     23258
     23259     23260     23259     23261     23260     23261     23262     23263
     23262     23264     23263     23264     23265     23266     23265     23267
     23266     23267     23268     23269     23268     23270     23269     23270
     23271     23272     23271     23273     23272     23273     23274     23275
     23274     23276     23275     23276     23277     23278     23277     23279
     23278     23279     23280     23281     23280     23282     23281     23282
     23283     23284     23283     23285     23284     23285     23286     23287
     23286     23288     23287     23288     23289     23290     23289     23291
     23290     23291     23292     23293     23292     23294     23293     23294
     23295     23296     23295     23297     23296     23297     23298     23299
     23298     23300     23299     23300     23301     23302     23301     23303
     23302     23303     23304     23305     23304     23306     23305     23306
     23307     23308     23307     23309     23308     23309     23310     23311
     23310     23312     23311     23312     23313     23314     23313     23315
     23314     23315     23316     23317     23316     23318     23317     23318
     23319     23320     23319     23321     23320     23321     23322     23323
     23322     23324     23323     23324     23325     23326     23325     23327
     23326     23327     23328     23329     23328     23330     23329     23330
     23331     23332     23331     23333     23332     23333     23334     23335
     23334     23336     23335     23336     23337     23338     23337     23339
     23338     23339     23340     23341     23340     23342     23341     23342
     23343     23344     23343     23345     23344     23345     23346     23347
     23346     23348     23347     23348     23349     23350     23349     23351
     23350     23351     23352     23353     23352     23354     23353     23354
     23355     23356     23355     23357     23356     23357     23358     23359
     23358     23360     23359     23360     23361     23362     23361     23363
     23362     23363     23364     23365     23364     23366     23365     23366
     23367     23368     23367     23369     23368     23369     23370     23371
     23370     23372     23371     23372     23373     23374     23373     23375
     23374     23375     23376     23377     23376     23378     23377     23378
     23379     23380     23379     23381     23380     23381     23382     23383
     23382     23384     23383     23384     23385     23386     23385     23387
     23386     23387     23388     23389     23388     23390     23389     23390
     23391     23392     23391     23393     23392     23393     23394     23395
     23394     23396     23395     23396     23397     23398     23397     23399
     23398     23399     23400     23401     23400     23402     23401     23402
     23403     23404     23403     23405     23404     23405     23406     23407
     23406     23408     23407     23408     23409     23410     23409     23411
     23410     23411     23412     23413     23412     23414     23413     23414
     23415     23416     23415     23417     23416     23417     23418     23419
     23418     23420     23419     23420     23421     23422     23421     23423
     23422     23423     23424     23425     23424     23426     23425     23426
     23427     23428     23427     23429     23428     23429     23430     23431
     23430     23432     23431     23432     23433     23434     23433     23435
     23434     23435     23436     23437     23436     23438     23437     23438
     23439     23440     23439     23441     23440     23441     23442     23443
     23442     23444     23443     23444     23445     23446     23445     23447
     23446     23447     23448     23449     23448     23450     23449     23450
     23451     23452     23451     23453     23452     23453     23454     23455
     23454     23456     23455     23456     23457     23458     23457     23459
     23458     23459     23460     23461     23460     23462     23461     23462
     23463     23464     23463     23465     23464     23465     23466     23467
     23466     23468     23467     23468     23469     23470     23469     23471
     23470     23471     23472     23473     23472     23474     23473     23474
     23475     23476     23475     23477     23476     23477     23478     23479
     23478     23480     23479     23480     23481     23482     23481     23483
     23482     23483     23484     23485     23484     23486     23485     23486
     23487     23488     23487     23489     23488     23489     23490     23491
     23490     23492     23491     23492     23493     23494     23493     23495
     23494     23495     23496     23497     23496     23498     23497     23498
     23499     23500     23499     23501     23500     23501     23502     23503
     23502     23504     23503     23504     23505     23506     23505     23507
     23506     23507     23508     23509     23508     23510     23509     23510
     23511     23512     23511     23513     23512     23513     23514     23515
     23514     23516     23515     23516     23517     23518     23517     23519
     23518     23519     23520     23521     23520     23522     23521     23522
     23523     23524     23523     23525     23524     23525     23526     23527
     23526     23528     23527     23528     23529     23530     23529     23531
     23530     23531     23532     23533     23532     23534     23533     23534
     23535     23536     23535     23537     23536     23537     23538     23539
     23538     23540     23539     23540     23541     23542     23541     23543
     23542     23543     23544     23545     23544     23546     23545     23546
     23547     23548     23547     23549     23548     23549     23550     23551
     23550     23552     23551     23552     23553     23554     23553     23555
     23554     23555     23556     23557     23556     23558     23557     23558
     23559     23560     23559     23561     23560     23561     23562     23563
     23562     23564     23563     23564     23565     23566     23565     23567
     23566     23567     23568     23569     23568     23570     23569     23570
     23571     23572     23571     23573     23572     23573     23574     23575
     23574     23576     23575     23576     23577     23578     23577     23579
     23578     23579     23580     23581     23580     23582     23581     23582
     23583     23584     23583     23585     23584     23585     23586     23587
     23586     23588     23587     23588     23589     23590     23589     23591
     23590     23591     23592     23593     23592     23594     23593     23594
     23595     23596     23595     23597     23596     23597     23598     23599
     23598     23600     23599     23600     23601     23602     23601     23603
     23602     23603     23604     23605     23604     23606     23605     23606
     23607     23608     23607     23609     23608     23609     23610     23611
     23610     23612     23611     23612     23613     23614     23613     23615
     23614     23615     23616     23617     23616     23618     23617     23618
     23619     23620     23619     23621     23620     23621     23622     23623
     23622     23624     23623     23624     23625     23626     23625     23627
     23626     23627     23628     23629     23628     23630     23629     23630
     23631     23632     23631     23633     23632     23633     23634     23635
     23634     23636     23635     23636     23637     23638     23637     23639
     23638     23639     23640     23641     23640     23642     23641     23642
     23643     23644     23643     23645     23644     23645     23646     23647
     23646     23648     23647     23648     23649     23650     23649     23651
     23650     23651     23652     23653     23652     23654     23653     23654
     23655     23656     23655     23657     23656     23657     23658     23659
     23658     23660     23659     23660     23661     23662     23661     23663
     23662     23663     23664     23665     23664     23666     23665     23666
     23667     23668     23667     23669     23668     23669     23670     23671
     23670     23672     23671     23672     23673     23674     23673     23675
     23674     23675     23676     23677     23676     23678     23677     23678
     23679     23680     23679     23681     23680     23681     23682     23683
     23682     23684     23683     23684     23685     23686     23685     23687
     23686     23687     23688     23689     23688     23690     23689     23690
     23691     23692     23691     23693     23692     23693     23694     23695
     23694     23696     23695     23696     23697     23698     23697     23699
     23698     23699     23700     23701     23700     23702     23701     23702
     23703     23704     23703     23705     23704     23705     23706     23707
     23706     23708     23707     23708     23709     23710     23709     23711
     23710     23711     23712     23713     23712     23714     23713     23714
     23715     23716     23715     23717     23716     23717     23718     23719
     23718     23720     23719     23720     23721     23722     23721     23723
     23722     23723     23724     23725     23724     23726     23725     23726
     23727     23728     23727     23729     23728     23729     23730     23731
     23730     23732     23731     23732     23733     23734     23733     23735
     23734     23735     23736     23737     23736     23738     23737     23738
     23739     23740     23739     23741     23740     23741     23742     23743
     23742     23744     23743     23744     23745     23746     23745     23747
     23746     23747     23748     23749     23748     23750     23749     23750
     23751     23752     23751     23753     23752     23753     23754     23755
     23754     23756     23755     23756     23757     23758     23757     23759
     23758     23759     23760     23761     23760     23762     23761     23762
     23763     23764     23763     23765     23764     23765     23766     23767
     23766     23768     23767     23768     23769     23770     23769     23771
     23770     23771     23772     23773     23772     23774     23773     23774
     23775     23776     23775     23777     23776     23777     23778     23779
     23778     23780     23779     23780     23781     23782     23781     23783
     23782     23783     23784     23785     23784     23786     23785     23786
     23787     23788     23787     23789     23788     23789     23790     23791
     23790     23792     23791     23792     23793     23794     23793     23795
     23794     23795     23796     23797     23796     23798     23797     23798
     23799     23800     23799     23801     23800     23801     23802     23803
     23802     23804     23803     23804     23805     23806     23805     23807
     23806     23807     23808     23809     23808     23810     23809     23810
     23811     23812     23811     23813     23812     23813     23814     23815
     23814     23816     23815     23816     23817     23818     23817     23819
     23818     23819     23820     23821     23820     23822     23821     23822
     23823     23824     23823     23825     23824     23825     23826     23827
     23826     23828     23827     23828     23829     23830     23829     23831
     23830     23831     23832     23833     23832     23834     23833     23834
     23835     23836     23835     23837     23836     23837     23838     23839
     23838     23840     23839     23840     23841     23842     23841     23843
     23842     23843     23844     23845     23844     23846     23845     23846
     23847     23848     23847     23849     23848     23849     23850     23851
     23850     23852     23851     23852     23853     23854     23853     23855
     23854     23855     23856     23857     23856     23858     23857     23858
     23859     23860     23859     23861     23860     23861     23862     23863
     23862     23864     23863     23864     23865     23866     23865     23867
     23866     23867     23868     23869     23868     23870     23869     23870
     23871     23872     23871     23873     23872     23873     23874     23875
     23874     23876     23875     23876     23877     23878     23877     23879
     23878     23879     23880     23881     23880     23882     23881     23882
     23883     23884     23883     23885     23884     23885     23886     23887
     23886     23888     23887     23888     23889     23890     23889     23891
     23890     23891     23892     23893     23892     23894     23893     23894
     23895     23896     23895     23897     23896     23897     23898     23899
     23898     23900     23899     23900     23901     23902     23901     23903
     23902     23903     23904     23905     23904     23906     23905     23906
     23907     23908     23907     23909     23908     23909     23910     23911
     23910     23912     23911     23912     23913     23914     23913     23915
     23914     23915     23916     23917     23916     23918     23917     23918
     23919     23920     23919     23921     23920     23921     23922     23923
     23922     23924     23923     23924     23925     23926     23925     23927
     23926     23927     23928     23929     23928     23930     23929     23930
     23931     23932     23931     23933     23932     23933     23934     23935
     23934     23936     23935     23936     23937     23938     23937     23939
     23938     23939     23940     23941     23940     23942     23941     23942
     23943     23944     23943     23945     23944     23945     23946     23947
     23946     23948     23947     23948     23949     23950     23949     23951
     23950     23951     23952     23953     23952     23954     23953     23954
     23955     23956     23955     23957     23956     23957     23958     23959
     23958     23960     23959     23960     23961     23962     23961     23963
     23962     23963     23964     23965     23964     23966     23965     23966
     23967     23968     23967     23969     23968     23969     23970     23971
     23970     23972     23971     23972     23973     23974     23973     23975
     23974     23975     23976     23977     23976     23978     23977     23978
     23979     23980     23979     23981     23980     23981     23982     23983
     23982     23984     23983     23984     23985     23986     23985     23987
     23986     23987     23988     23989     23988     23990     23989     23990
     23991     23992     23991     23993     23992     23993     23994     23995
     23994     23996     23995     23996     23997     23998     23997     23999
     23998     23999     24000     24001     24000     24002     24001     24002
     24003     24004     24003     24005     24004     24005     24006     24007
     24006     24008     24007     24008     24009     24010     24009     24011
     24010     24011     24012     24013     24012     24014     24013     24014
     24015     24016     24015     24017     24016     24017     24018     24019
     24018     24020     24019     24020     24021     24022     24021     24023
     24022     24023     24024     24025     24024     24026     24025     24026
     24027     24028     24027     24029     24028     24029     24030     24031
     24030     24032     24031     24032     24033     24034     24033     24035
     24034     24035     24036     24037     24036     24038     24037     24038
     24039     24040     24039     24041     24040     24041     24042     24043
     24042     24044     24043     24044     24045     24046     24045     24047
     24046     24047     24048     24049     24048     24050     24049     24050
     24051     24052     24051     24053     24052     24053     24054     24055
     24054     24056     24055     24056     24057     24058     24057     24059
     24058     24059     24060     24061     24060     24062     24061     24062
     24063     24064     24063     24065     24064     24065     24066     24067
     24066     24068     24067     24068     24069     24070     24069     24071
     24070     24071     24072     24073     24072     24074     24073     24074
     24075     24076     24075     24077     24076     24077     24078     24079
     24078     24080     24079     24080     24081     24082     24081     24083
     24082     24083     24084     24085     24084     24086     24085     24086
     24087     24088     24087     24089     24088     24089     24090     24091
     24090     24092     24091     24092     24093     24094     24093     24095
     24094     24095     24096     24097     24096     24098     24097     24098
     24099     24100     24099     24101     24100     24101     24102     24103
     24102     24104     24103     24104     24105     24106     24105     24107
     24106     24107     24108     24109     24108     24110     24109     24110
     24111     24112     24111     24113     24112     24113     24114     24115
     24114     24116     24115     24116     24117     24118     24117     24119
     24118     24119     24120     24121     24120     24122     24121     24122
     24123     24124     24123     24125     24124     24125     24126     24127
     24126     24128     24127     24128     24129     24130     24129     24131
     24130     24131     24132     24133     24132     24134     24133     24134
     24135     24136     24135     24137     24136     24137     24138     24139
     24138     24140     24139     24140     24141     24142     24141     24143
     24142     24143     24144     24145     24144     24146     24145     24146
     24147     24148     24147     24149     24148     24149     24150     24151
     24150     24152     24151     24152     24153     24154     24153     24155
     24154     24155     24156     24157     24156     24158     24157     24158
     24159     24160     24159     24161     24160     24161     24162     24163
     24162     24164     24163     24164     24165     24166     24165     24167
     24166     24167     24168     24169     24168     24170     24169     24170
     24171     24172     24171     24173     24172     24173     24174     24175
     24174     24176     24175     24176     24177     24178     24177     24179
     24178     24179     24180     24181     24180     24182     24181     24182
     24183     24184     24183     24185     24184     24185     24186     24187
     24186     24188     24187     24188     24189     24190     24189     24191
     24190     24191     24192     24193     24192     24194     24193     24194
     24195     24196     24195     24197     24196     24197     24198     24199
     24198     24200     24199     24200     24201     24202     24201     24203
     24202     24203     24204     24205     24204     24206     24205     24206
     24207     24208     24207     24209     24208     24209     24210     24211
     24210     24212     24211     24212     24213     24214     24213     24215
     24214     24215     24216     24217     24216     24218     24217     24218
     24219     24220     24219     24221     24220     24221     24222     24223
     24222     24224     24223     24224     24225     24226     24225     24227
     24226     24227     24228     24229     24228     24230     24229     24230
     24231     24232     24231     24233     24232     24233     24234     24235
     24234     24236     24235     24236     24237     24238     24237     24239
     24238     24239     24240     24241     24240     24242     24241     24242
     24243     24244     24243     24245     24244     24245     24246     24247
     24246     24248     24247     24248     24249     24250     24249     24251
     24250     24251     24252     24253     24252     24254     24253     24254
     24255     24256     24255     24257     24256     24257     24258     24259
     24258     24260     24259     24260     24261     24262     24261     24263
     24262     24263     24264     24265     24264     24266     24265     24266
     24267     24268     24267     24269     24268     24269     24270     24271
     24270     24272     24271     24272     24273     24274     24273     24275
     24274     24275     24276     24277     24276     24278     24277     24278
     24279     24280     24279     24281     24280     24281     24282     24283
     24282     24284     24283     24284     24285     24286     24285     24287
     24286     24287     24288     24289     24288     24290     24289     24290
     24291     24292     24291     24293     24292     24293     24294     24295
     24294     24296     24295     24296     24297     24298     24297     24299
     24298     24299     24300     24301     24300     24302     24301     24302
     24303     24304     24303     24305     24304     24305     24306     24307
     24306     24308     24307     24308     24309     24310     24309     24311
     24310     24311     24312     24313     24312     24314     24313     24314
     24315     24316     24315     24317     24316     24317     24318     24319
     24318     24320     24319     24320     24321     24322     24321     24323
     24322     24323     24324     24325     24324     24326     24325     24326
     24327     24328     24327     24329     24328     24329     24330     24331
     24330     24332     24331     24332     24333     24334     24333     24335
     24334     24335     24336     24337     24336     24338     24337     24338
     24339     24340     24339     24341     24340     24341     24342     24343
     24342     24344     24343     24344     24345     24346     24345     24347
     24346     24347     24348     24349     24348     24350     24349     24350
     24351     24352     24351     24353     24352     24353     24354     24355
     24354     24356     24355     24356     24357     24358     24357     24359
     24358     24359     24360     24361     24360     24362     24361     24362
     24363     24364     24363     24365     24364     24365     24366     24367
     24366     24368     24367     24368     24369     24370     24369     24371
     24370     24371     24372     24373     24372     24374     24373     24374
     24375     24376     24375     24377     24376     24377     24378     24379
     24378     24380     24379     24380     24381     24382     24381     24383
     24382     24383     24384     24385     24384     24386     24385     24386
     24387     24388     24387     24389     24388     24389     24390     24391
     24390     24392     24391     24392     24393     24394     24393     24395
     24394     24395     24396     24397     24396     24398     24397     24398
     24399     24400     24399     24401     24400     24401     24402     24403
     24402     24404     24403     24404     24405     24406     24405     24407
     24406     24407     24408     24409     24408     24410     24409     24410
     24411     24412     24411     24413     24412     24413     24414     24415
     24414     24416     24415     24416     24417     24418     24417     24419
     24418     24419     24420     24421     24420     24422     24421     24422
     24423     24424     24423     24425     24424     24425     24426     24427
     24426     24428     24427     24428     24429     24430     24429     24431
     24430     24431     24432     24433     24432     24434     24433     24434
     24435     24436     24435     24437     24436     24437     24438     24439
     24438     24440     24439     24440     24441     24442     24441     24443
     24442     24443     24444     24445     24444     24446     24445     24446
     24447     24448     24447     24449     24448     24449     24450     24451
     24450     24452     24451     24452     24453     24454     24453     24455
     24454     24455     24456     24457     24456     24458     24457     24458
     24459     24460     24459     24461     24460     24461     24462     24463
     24462     24464     24463     24464     24465     24466     24465     24467
     24466     24467     24468     24469     24468     24470     24469     24470
     24471     24472     24471     24473     24472     24473     24474     24475
     24474     24476     24475     24476     24477     24478     24477     24479
     24478     24479     24480     24481     24480     24482     24481     24482
     24483     24484     24483     24485     24484     24485     24486     24487
     24486     24488     24487     24488     24489     24490     24489     24491
     24490     24491     24492     24493     24492     24494     24493     24494
     24495     24496     24495     24497     24496     24497     24498     24499
     24498     24500     24499     24500     24501     24502     24501     24503
     24502     24503     24504     24505     24504     24506     24505     24506
     24507     24508     24507     24509     24508     24509     24510     24511
     24510     24512     24511     24512     24513     24514     24513     24515
     24514     24515     24516     24517     24516     24518     24517     24518
     24519     24520     24519     24521     24520     24521     24522     24523
     24522     24524     24523     24524     24525     24526     24525     24527
     24526     24527     24528     24529     24528     24530     24529     24530
     24531     24532     24531     24533     24532     24533     24534     24535
     24534     24536     24535     24536     24537     24538     24537     24539
     24538     24539     24540     24541     24540     24542     24541     24542
     24543     24544     24543     24545     24544     24545     24546     24547
     24546     24548     24547     24548     24549     24550     24549     24551
     24550     24551     24552     24553     24552     24554     24553     24554
     24555     24556     24555     24557     24556     24557     24558     24559
     24558     24560     24559     24560     24561     24562     24561     24563
     24562     24563     24564     24565     24564     24566     24565     24566
     24567     24568     24567     24569     24568     24569     24570     24571
     24570     24572     24571     24572     24573     24574     24573     24575
     24574     24575     24576     24577     24576     24578     24577     24578
     24579     24580     24579     24581     24580     24581     24582     24583
     24582     24584     24583     24584     24585     24586     24585     24587
     24586     24587     24588     24589     24588     24590     24589     24590
     24591     24592     24591     24593     24592     24593     24594     24595
     24594     24596     24595     24596     24597     24598     24597     24599
     24598     24599     24600     24601     24600     24602     24601     24602
     24603     24604     24603     24605     24604     24605     24606     24607
     24606     24608     24607     24608     24609     24610     24609     24611
     24610     24611     24612     24613     24612     24614     24613     24614
     24615     24616     24615     24617     24616     24617     24618     24619
     24618     24620     24619     24620     24621     24622     24621     24623
     24622     24623     24624     24625     24624     24626     24625     24626
     24627     24628     24627     24629     24628     24629     24630     24631
     24630     24632     24631     24632     24633     24634     24633     24635
     24634     24635     24636     24637     24636     24638     24637     24638
     24639     24640     24639     24641     24640     24641     24642     24643
     24642     24644     24643     24644     24645     24646     24645     24647
     24646     24647     24648     24649     24648     24650     24649     24650
     24651     24652     24651     24653     24652     24653     24654     24655
     24654     24656     24655     24656     24657     24658     24657     24659
     24658     24659     24660     24661     24660     24662     24661     24662
     24663     24664     24663     24665     24664     24665     24666     24667
     24666     24668     24667     24668     24669     24670     24669     24671
     24670     24671     24672     24673     24672     24674     24673     24674
     24675     24676     24675     24677     24676     24677     24678     24679
     24678     24680     24679     24680     24681     24682     24681     24683
     24682     24683     24684     24685     24684     24686     24685     24686
     24687     24688     24687     24689     24688     24689     24690     24691
     24690     24692     24691     24692     24693     24694     24693     24695
     24694     24695     24696     24697     24696     24698     24697     24698
     24699     24700     24699     24701     24700     24701     24702     24703
     24702     24704     24703     24704     24705     24706     24705     24707
     24706     24707     24708     24709     24708     24710     24709     24710
     24711     24712     24711     24713     24712     24713     24714     24715
     24714     24716     24715     24716     24717     24718     24717     24719
     24718     24719     24720     24721     24720     24722     24721     24722
     24723     24724     24723     24725     24724     24725     24726     24727
     24726     24728     24727     24728     24729     24730     24729     24731
     24730     24731     24732     24733     24732     24734     24733     24734
     24735     24736     24735     24737     24736     24737     24738     24739
     24738     24740     24739     24740     24741     24742     24741     24743
     24742     24743     24744     24745     24744     24746     24745     24746
     24747     24748     24747     24749     24748     24749     24750     24751
     24750     24752     24751     24752     24753     24754     24753     24755
     24754     24755     24756     24757     24756     24758     24757     24758
     24759     24760     24759     24761     24760     24761     24762     24763
     24762     24764     24763     24764     24765     24766     24765     24767
     24766     24767     24768     24769     24768     24770     24769     24770
     24771     24772     24771     24773     24772     24773     24774     24775
     24774     24776     24775     24776     24777     24778     24777     24779
     24778     24779     24780     24781     24780     24782     24781     24782
     24783     24784     24783     24785     24784     24785     24786     24787
     24786     24788     24787     24788     24789     24790     24789     24791
     24790     24791     24792     24793     24792     24794     24793     24794
     24795     24796     24795     24797     24796     24797     24798     24799
     24798     24800     24799     24800     24801     24802     24801     24803
     24802     24803     24804     24805     24804     24806     24805     24806
     24807     24808     24807     24809     24808     24809     24810     24811
     24810     24812     24811     24812     24813     24814     24813     24815
     24814     24815     24816     24817     24816     24818     24817     24818
     24819     24820     24819     24821     24820     24821     24822     24823
     24822     24824     24823     24824     24825     24826     24825     24827
     24826     24827     24828     24829     24828     24830     24829     24830
     24831     24832     24831     24833     24832     24833     24834     24835
     24834     24836     24835     24836     24837     24838     24837     24839
     24838     24839     24840     24841     24840     24842     24841     24842
     24843     24844     24843     24845     24844     24845     24846     24847
     24846     24848     24847     24848     24849     24850     24849     24851
     24850     24851     24852     24853     24852     24854     24853     24854
     24855     24856     24855     24857     24856     24857     24858     24859
     24858     24860     24859     24860     24861     24862     24861     24863
     24862     24863     24864     24865     24864     24866     24865     24866
     24867     24868     24867     24869     24868     24869     24870     24871
     24870     24872     24871     24872     24873     24874     24873     24875
     24874     24875     24876     24877     24876     24878     24877     24878
     24879     24880     24879     24881     24880     24881     24882     24883
     24882     24884     24883     24884     24885     24886     24885     24887
     24886     24887     24888     24889     24888     24890     24889     24890
     24891     24892     24891     24893     24892     24893     24894     24895
     24894     24896     24895     24896     24897     24898     24897     24899
     24898     24899     24900     24901     24900     24902     24901     24902
     24903     24904     24903     24905     24904     24905     24906     24907
     24906     24908     24907     24908     24909     24910     24909     24911
     24910     24911     24912     24913     24912     24914     24913     24914
     24915     24916     24915     24917     24916     24917     24918     24919
     24918     24920     24919     24920     24921     24922     24921     24923
     24922     24923     24924     24925     24924     24926     24925     24926
     24927     24928     24927     24929     24928     24929     24930     24931
     24930     24932     24931     24932     24933     24934     24933     24935
     24934     24935     24936     24937     24936     24938     24937     24938
     24939     24940     24939     24941     24940     24941     24942     24943
     24942     24944     24943     24944     24945     24946     24945     24947
     24946     24947     24948     24949     24948     24950     24949     24950
     24951     24952     24951     24953     24952     24953     24954     24955
     24954     24956     24955     24956     24957     24958     24957     24959
     24958     24959     24960     24961     24960     24962     24961     24962
     24963     24964     24963     24965     24964     24965     24966     24967
     24966     24968     24967     24968     24969     24970     24969     24971
     24970     24971     24972     24973     24972     24974     24973     24974
     24975     24976     24975     24977     24976     24977     24978     24979
     24978     24980     24979     24980     24981     24982     24981     24983
     24982     24983     24984     24985     24984     24986     24985     24986
     24987     24988     24987     24989     24988     24989     24990     24991
     24990     24992     24991     24992     24993     24994     24993     24995
     24994     24995     24996     24997     24996     24998     24997     24998
     24999     25000     24999     25001     25000     25001     25002     25003
     25002     25004     25003     25004     25005     25006     25005     25007
     25006     25007     25008     25009     25008     25010     25009     25010
     25011     25012     25011     25013     25012     25013     25014     25015
     25014     25016     25015     25016     25017     25018     25017     25019
     25018     25019     25020     25021     25020     25022     25021     25022
     25023     25024     25023     25025     25024     25025     25026     25027
     25026     25028     25027     25028     25029     25030     25029     25031
     25030     25031     25032     25033     25032     25034     25033     25034
     25035     25036     25035     25037     25036     25037     25038     25039
     25038     25040     25039     25040     25041     25042     25041     25043
     25042     25043     25044     25045     25044     25046     25045     25046
     25047     25048     25047     25049     25048     25049     25050     25051
     25050     25052     25051     25052     25053     25054     25053     25055
     25054     25055     25056     25057     25056     25058     25057     25058
     25059     25060     25059     25061     25060     25061     25062     25063
     25062     25064     25063     25064     25065     25066     25065     25067
     25066     25067     25068     25069     25068     25070     25069     25070
     25071     25072     25071     25073     25072     25073     25074     25075
     25074     25076     25075     25076     25077     25078     25077     25079
     25078     25079     25080     25081     25080     25082     25081     25082
     25083     25084     25083     25085     25084     25085     25086     25087
     25086     25088     25087     25088     25089     25090     25089     25091
     25090     25091     25092     25093     25092     25094     25093     25094
     25095     25096     25095     25097     25096     25097     25098     25099
     25098     25100     25099     25100     25101     25102     25101     25103
     25102     25103     25104     25105     25104     25106     25105     25106
     25107     25108     25107     25109     25108     25109     25110     25111
     25110     25112     25111     25112     25113     25114     25113     25115
     25114     25115     25116     25117     25116     25118     25117     25118
     25119     25120     25119     25121     25120     25121     25122     25123
     25122     25124     25123     25124     25125     25126     25125     25127
     25126     25127     25128     25129     25128     25130     25129     25130
     25131     25132     25131     25133     25132     25133     25134     25135
     25134     25136     25135     25136     25137     25138     25137     25139
     25138     25139     25140     25141     25140     25142     25141     25142
     25143     25144     25143     25145     25144     25145     25146     25147
     25146     25148     25147     25148     25149     25150     25149     25151
     25150     25151     25152     25153     25152     25154     25153     25154
     25155     25156     25155     25157     25156     25157     25158     25159
     25158     25160     25159     25160     25161     25162     25161     25163
     25162     25163     25164     25165     25164     25166     25165     25166
     25167     25168     25167     25169     25168     25169     25170     25171
     25170     25172     25171     25172     25173     25174     25173     25175
     25174     25175     25176     25177     25176     25178     25177     25178
     25179     25180     25179     25181     25180     25181     25182     25183
     25182     25184     25183     25184     25185     25186     25185     25187
     25186     25187     25188     25189     25188     25190     25189     25190
     25191     25192     25191     25193     25192     25193     25194     25195
     25194     25196     25195     25196     25197     25198     25197     25199
     25198     25199     25200     25201     25200     25202     25201     25202
     25203     25204     25203     25205     25204     25205     25206     25207
     25206     25208     25207     25208     25209     25210     25209     25211
     25210     25211     25212     25213     25212     25214     25213     25214
     25215     25216     25215     25217     25216     25217     25218     25219
     25218     25220     25219     25220     25221     25222     25221     25223
     25222     25223     25224     25225     25224     25226     25225     25226
     25227     25228     25227     25229     25228     25229     25230     25231
     25230     25232     25231     25232     25233     25234     25233     25235
     25234     25235     25236     25237     25236     25238     25237     25238
     25239     25240     25239     25241     25240     25241     25242     25243
     25242     25244     25243     25244     25245     25246     25245     25247
     25246     25247     25248     25249     25248     25250     25249     25250
     25251     25252     25251     25253     25252     25253     25254     25255
     25254     25256     25255     25256     25257     25258     25257     25259
     25258     25259     25260     25261     25260     25262     25261     25262
     25263     25264     25263     25265     25264     25265     25266     25267
     25266     25268     25267     25268     25269     25270     25269     25271
     25270     25271     25272     25273     25272     25274     25273     25274
     25275     25276     25275     25277     25276     25277     25278     25279
     25278     25280     25279     25280     25281     25282     25281     25283
     25282     25283     25284     25285     25284     25286     25285     25286
     25287     25288     25287     25289     25288     25289     25290     25291
     25290     25292     25291     25292     25293     25294     25293     25295
     25294     25295     25296     25297     25296     25298     25297     25298
     25299     25300     25299     25301     25300     25301     25302     25303
     25302     25304     25303     25304     25305     25306     25305     25307
     25306     25307     25308     25309     25308     25310     25309     25310
     25311     25312     25311     25313     25312     25313     25314     25315
     25314     25316     25315     25316     25317     25318     25317     25319
     25318     25319     25320     25321     25320     25322     25321     25322
     25323     25324     25323     25325     25324     25325     25326     25327
     25326     25328     25327     25328     25329     25330     25329     25331
     25330     25331     25332     25333     25332     25334     25333     25334
     25335     25336     25335     25337     25336     25337     25338     25339
     25338     25340     25339     25340     25341     25342     25341     25343
     25342     25343     25344     25345     25344     25346     25345     25346
     25347     25348     25347     25349     25348     25349     25350     25351
     25350     25352     25351     25352     25353     25354     25353     25355
     25354     25355     25356     25357     25356     25358     25357     25358
     25359     25360     25359     25361     25360     25361     25362     25363
     25362     25364     25363     25364     25365     25366     25365     25367
     25366     25367     25368     25369     25368     25370     25369     25370
     25371     25372     25371     25373     25372     25373     25374     25375
     25374     25376     25375     25376     25377     25378     25377     25379
     25378     25379     25380     25381     25380     25382     25381     25382
     25383     25384     25383     25385     25384     25385     25386     25387
     25386     25388     25387     25388     25389     25390     25389     25391
     25390     25391     25392     25393     25392     25394     25393     25394
     25395     25396     25395     25397     25396     25397     25398     25399
     25398     25400     25399     25400     25401     25402     25401     25403
     25402     25403     25404     25405     25404     25406     25405     25406
     25407     25408     25407     25409     25408     25409     25410     25411
     25410     25412     25411     25412     25413     25414     25413     25415
     25414     25415     25416     25417     25416     25418     25417     25418
     25419     25420     25419     25421     25420     25421     25422     25423
     25422     25424     25423     25424     25425     25426     25425     25427
     25426     25427     25428     25429     25428     25430     25429     25430
     25431     25432     25431     25433     25432     25433     25434     25435
     25434     25436     25435     25436     25437     25438     25437     25439
     25438     25439     25440     25441     25440     25442     25441     25442
     25443     25444     25443     25445     25444     25445     25446     25447
     25446     25448     25447     25448     25449     25450     25449     25451
     25450     25451     25452     25453     25452     25454     25453     25454
     25455     25456     25455     25457     25456     25457     25458     25459
     25458     25460     25459     25460     25461     25462     25461     25463
     25462     25463     25464     25465     25464     25466     25465     25466
     25467     25468     25467     25469     25468     25469     25470     25471
     25470     25472     25471     25472     25473     25474     25473     25475
     25474     25475     25476     25477     25476     25478     25477     25478
     25479     25480     25479     25481     25480     25481     25482     25483
     25482     25484     25483     25484     25485     25486     25485     25487
     25486     25487     25488     25489     25488     25490     25489     25490
     25491     25492     25491     25493     25492     25493     25494     25495
     25494     25496     25495     25496     25497     25498     25497     25499
     25498     25499     25500     25501     25500     25502     25501     25502
     25503     25504     25503     25505     25504     25505     25506     25507
     25506     25508     25507     25508     25509     25510     25509     25511
     25510     25511     25512     25513     25512     25514     25513     25514
     25515     25516     25515     25517     25516     25517     25518     25519
     25518     25520     25519     25520     25521     25522     25521     25523
     25522     25523     25524     25525     25524     25526     25525     25526
     25527     25528     25527     25529     25528     25529     25530     25531
     25530     25532     25531     25532     25533     25534     25533     25535
     25534     25535     25536     25537     25536     25538     25537     25538
     25539     25540     25539     25541     25540     25541     25542     25543
     25542     25544     25543     25544     25545     25546     25545     25547
     25546     25547     25548     25549     25548     25550     25549     25550
     25551     25552     25551     25553     25552     25553     25554     25555
     25554     25556     25555     25556     25557     25558     25557     25559
     25558     25559     25560     25561     25560     25562     25561     25562
     25563     25564     25563     25565     25564     25565     25566     25567
     25566     25568     25567     25568     25569     25570     25569     25571
     25570     25571     25572     25573     25572     25574     25573     25574
     25575     25576     25575     25577     25576     25577     25578     25579
     25578     25580     25579     25580     25581     25582     25581     25583
     25582     25583     25584     25585     25584     25586     25585     25586
     25587     25588     25587     25589     25588     25589     25590     25591
     25590     25592     25591     25592     25593     25594     25593     25595
     25594     25595     25596     25597     25596     25598     25597     25598
     25599     25600     25599     25601     25600     25601     25602     25603
     25602     25604     25603     25604     25605     25606     25605     25607
     25606     25607     25608     25609     25608     25610     25609     25610
     25611     25612     25611     25613     25612     25613     25614     25615
     25614     25616     25615     25616     25617     25618     25617     25619
     25618     25619     25620     25621     25620     25622     25621     25622
     25623     25624     25623     25625     25624     25625     25626     25627
     25626     25628     25627     25628     25629     25630     25629     25631
     25630     25631     25632     25633     25632     25634     25633     25634
     25635     25636     25635     25637     25636     25637     25638     25639
     25638     25640     25639     25640     25641     25642     25641     25643
     25642     25643     25644     25645     25644     25646     25645     25646
     25647     25648     25647     25649     25648     25649     25650     25651
     25650     25652     25651     25652     25653     25654     25653     25655
     25654     25655     25656     25657     25656     25658     25657     25658
     25659     25660     25659     25661     25660     25661     25662     25663
     25662     25664     25663     25664     25665     25666     25665     25667
     25666     25667     25668     25669     25668     25670     25669     25670
     25671     25672     25671     25673     25672     25673     25674     25675
     25674     25676     25675     25676     25677     25678     25677     25679
     25678     25679     25680     25681     25680     25682     25681     25682
     25683     25684     25683     25685     25684     25685     25686     25687
     25686     25688     25687     25688     25689     25690     25689     25691
     25690     25691     25692     25693     25692     25694     25693     25694
     25695     25696     25695     25697     25696     25697     25698     25699
     25698     25700     25699     25700     25701     25702     25701     25703
     25702     25703     25704     25705     25704     25706     25705     25706
     25707     25708     25707     25709     25708     25709     25710     25711
     25710     25712     25711     25712     25713     25714     25713     25715
     25714     25715     25716     25717     25716     25718     25717     25718
     25719     25720     25719     25721     25720     25721     25722     25723
     25722     25724     25723     25724     25725     25726     25725     25727
     25726     25727     25728     25729     25728     25730     25729     25730
     25731     25732     25731     25733     25732     25733     25734     25735
     25734     25736     25735     25736     25737     25738     25737     25739
     25738     25739     25740     25741     25740     25742     25741     25742
     25743     25744     25743     25745     25744     25745     25746     25747
     25746     25748     25747     25748     25749     25750     25749     25751
     25750     25751     25752     25753     25752     25754     25753     25754
     25755     25756     25755     25757     25756     25757     25758     25759
     25758     25760     25759     25760     25761     25762     25761     25763
     25762     25763     25764     25765     25764     25766     25765     25766
     25767     25768     25767     25769     25768     25769     25770     25771
     25770     25772     25771     25772     25773     25774     25773     25775
     25774     25775     25776     25777     25776     25778     25777     25778
     25779     25780     25779     25781     25780     25781     25782     25783
     25782     25784     25783     25784     25785     25786     25785     25787
     25786     25787     25788     25789     25788     25790     25789     25790
     25791     25792     25791     25793     25792     25793     25794     25795
     25794     25796     25795     25796     25797     25798     25797     25799
     25798     25799     25800     25801     25800     25802     25801     25802
     25803     25804     25803     25805     25804     25805     25806     25807
     25806     25808     25807     25808     25809     25810     25809     25811
     25810     25811     25812     25813     25812     25814     25813     25814
     25815     25816     25815     25817     25816     25817     25818     25819
     25818     25820     25819     25820     25821     25822     25821     25823
     25822     25823     25824     25825     25824     25826     25825     25826
     25827     25828     25827     25829     25828     25829     25830     25831
     25830     25832     25831     25832     25833     25834     25833     25835
     25834     25835     25836     25837     25836     25838     25837     25838
     25839     25840     25839     25841     25840     25841     25842     25843
     25842     25844     25843     25844     25845     25846     25845     25847
     25846     25847     25848     25849     25848     25850     25849     25850
     25851     25852     25851     25853     25852     25853     25854     25855
     25854     25856     25855     25856     25857     25858     25857     25859
     25858     25859     25860     25861     25860     25862     25861     25862
     25863     25864     25863     25865     25864     25865     25866     25867
     25866     25868     25867     25868     25869     25870     25869     25871
     25870     25871     25872     25873     25872     25874     25873     25874
     25875     25876     25875     25877     25876     25877     25878     25879
     25878     25880     25879     25880     25881     25882     25881     25883
     25882     25883     25884     25885     25884     25886     25885     25886
     25887     25888     25887     25889     25888     25889     25890     25891
     25890     25892     25891     25892     25893     25894     25893     25895
     25894     25895     25896     25897     25896     25898     25897     25898
     25899     25900     25899     25901     25900     25901     25902     25903
     25902     25904     25903     25904     25905     25906     25905     25907
     25906     25907     25908     25909     25908     25910     25909     25910
     25911     25912     25911     25913     25912     25913     25914     25915
     25914     25916     25915     25916     25917     25918     25917     25919
     25918     25919     25920     25921     25920     25922     25921     25922
     25923     25924     25923     25925     25924     25925     25926     25927
     25926     25928     25927     25928     25929     25930     25929     25931
     25930     25931     25932     25933     25932     25934     25933     25934
     25935     25936     25935     25937     25936     25937     25938     25939
     25938     25940     25939     25940     25941     25942     25941     25943
     25942     25943     25944     25945     25944     25946     25945     25946
     25947     25948     25947     25949     25948     25949     25950     25951
     25950     25952     25951     25952     25953     25954     25953     25955
     25954     25955     25956     25957     25956     25958     25957     25958
     25959     25960     25959     25961     25960     25961     25962     25963
     25962     25964     25963     25964     25965     25966     25965     25967
     25966     25967     25968     25969     25968     25970     25969     25970
     25971     25972     25971     25973     25972     25973     25974     25975
     25974     25976     25975     25976     25977     25978     25977     25979
     25978     25979     25980     25981     25980     25982     25981     25982
     25983     25984     25983     25985     25984     25985     25986     25987
     25986     25988     25987     25988     25989     25990     25989     25991
     25990     25991     25992     25993     25992     25994     25993     25994
     25995     25996     25995     25997     25996     25997     25998     25999
     25998     26000     25999     26000     26001     26002     26001     26003
     26002     26003     26004     26005     26004     26006     26005     26006
     26007     26008     26007     26009     26008     26009     26010     26011
     26010     26012     26011     26012     26013     26014     26013     26015
     26014     26015     26016     26017     26016     26018     26017     26018
     26019     26020     26019     26021     26020     26021     26022     26023
     26022     26024     26023     26024     26025     26026     26025     26027
     26026     26027     26028     26029     26028     26030     26029     26030
     26031     26032     26031     26033     26032     26033     26034     26035
     26034     26036     26035     26036     26037     26038     26037     26039
     26038     26039     26040     26041     26040     26042     26041     26042
     26043     26044     26043     26045     26044     26045     26046     26047
     26046     26048     26047     26048     26049     26050     26049     26051
     26050     26051     26052     26053     26052     26054     26053     26054
     26055     26056     26055     26057     26056     26057     26058     26059
     26058     26060     26059     26060     26061     26062     26061     26063
     26062     26063     26064     26065     26064     26066     26065     26066
     26067     26068     26067     26069     26068     26069     26070     26071
     26070     26072     26071     26072     26073     26074     26073     26075
     26074     26075     26076     26077     26076     26078     26077     26078
     26079     26080     26079     26081     26080     26081     26082     26083
     26082     26084     26083     26084     26085     26086     26085     26087
     26086     26087     26088     26089     26088     26090     26089     26090
     26091     26092     26091     26093     26092     26093     26094     26095
     26094     26096     26095     26096     26097     26098     26097     26099
     26098     26099     26100     26101     26100     26102     26101     26102
     26103     26104     26103     26105     26104     26105     26106     26107
     26106     26108     26107     26108     26109     26110     26109     26111
     26110     26111     26112     26113     26112     26114     26113     26114
     26115     26116     26115     26117     26116     26117     26118     26119
     26118     26120     26119     26120     26121     26122     26121     26123
     26122     26123     26124     26125     26124     26126     26125     26126
     26127     26128     26127     26129     26128     26129     26130     26131
     26130     26132     26131     26132     26133     26134     26133     26135
     26134     26135     26136     26137     26136     26138     26137     26138
     26139     26140     26139     26141     26140     26141     26142     26143
     26142     26144     26143     26144     26145     26146     26145     26147
     26146     26147     26148     26149     26148     26150     26149     26150
     26151     26152     26151     26153     26152     26153     26154     26155
     26154     26156     26155     26156     26157     26158     26157     26159
     26158     26159     26160     26161     26160     26162     26161     26162
     26163     26164     26163     26165     26164     26165     26166     26167
     26166     26168     26167     26168     26169     26170     26169     26171
     26170     26171     26172     26173     26172     26174     26173     26174
     26175     26176     26175     26177     26176     26177     26178     26179
     26178     26180     26179     26180     26181     26182     26181     26183
     26182     26183     26184     26185     26184     26186     26185     26186
     26187     26188     26187     26189     26188     26189     26190     26191
     26190     26192     26191     26192     26193     26194     26193     26195
     26194     26195     26196     26197     26196     26198     26197     26198
     26199     26200     26199     26201     26200     26201     26202     26203
     26202     26204     26203     26204     26205     26206     26205     26207
     26206     26207     26208     26209     26208     26210     26209     26210
     26211     26212     26211     26213     26212     26213     26214     26215
     26214     26216     26215     26216     26217     26218     26217     26219
     26218     26219     26220     26221     26220     26222     26221     26222
     26223     26224     26223     26225     26224     26225     26226     26227
     26226     26228     26227     26228     26229     26230     26229     26231
     26230     26231     26232     26233     26232     26234     26233     26234
     26235     26236     26235     26237     26236     26237     26238     26239
     26238     26240     26239     26240     26241     26242     26241     26243
     26242     26243     26244     26245     26244     26246     26245     26246
     26247     26248     26247     26249     26248     26249     26250     26251
     26250     26252     26251     26252     26253     26254     26253     26255
     26254     26255     26256     26257     26256     26258     26257     26258
     26259     26260     26259     26261     26260     26261     26262     26263
     26262     26264     26263     26264     26265     26266     26265     26267
     26266     26267     26268     26269     26268     26270     26269     26270
     26271     26272     26271     26273     26272     26273     26274     26275
     26274     26276     26275     26276     26277     26278     26277     26279
     26278     26279     26280     26281     26280     26282     26281     26282
     26283     26284     26283     26285     26284     26285     26286     26287
     26286     26288     26287     26288     26289     26290     26289     26291
     26290     26291     26292     26293     26292     26294     26293     26294
     26295     26296     26295     26297     26296     26297     26298     26299
     26298     26300     26299     26300     26301     26302     26301     26303
     26302     26303     26304     26305     26304     26306     26305     26306
     26307     26308     26307     26309     26308     26309     26310     26311
     26310     26312     26311     26312     26313     26314     26313     26315
     26314     26315     26316     26317     26316     26318     26317     26318
     26319     26320     26319     26321     26320     26321     26322     26323
     26322     26324     26323     26324     26325     26326     26325     26327
     26326     26327     26328     26329     26328     26330     26329     26330
     26331     26332     26331     26333     26332     26333     26334     26335
     26334     26336     26335     26336     26337     26338     26337     26339
     26338     26339     26340     26341     26340     26342     26341     26342
     26343     26344     26343     26345     26344     26345     26346     26347
     26346     26348     26347     26348     26349     26350     26349     26351
     26350     26351     26352     26353     26352     26354     26353     26354
     26355     26356     26355     26357     26356     26357     26358     26359
     26358     26360     26359     26360     26361     26362     26361     26363
     26362     26363     26364     26365     26364     26366     26365     26366
     26367     26368     26367     26369     26368     26369     26370     26371
     26370     26372     26371     26372     26373     26374     26373     26375
     26374     26375     26376     26377     26376     26378     26377     26378
     26379     26380     26379     26381     26380     26381     26382     26383
     26382     26384     26383     26384     26385     26386     26385     26387
     26386     26387     26388     26389     26388     26390     26389     26390
     26391     26392     26391     26393     26392     26393     26394     26395
     26394     26396     26395     26396     26397     26398     26397     26399
     26398     26399     26400     26401     26400     26402     26401     26402
     26403     26404     26403     26405     26404     26405     26406     26407
     26406     26408     26407     26408     26409     26410     26409     26411
     26410     26411     26412     26413     26412     26414     26413     26414
     26415     26416     26415     26417     26416     26417     26418     26419
     26418     26420     26419     26420     26421     26422     26421     26423
     26422     26423     26424     26425     26424     26426     26425     26426
     26427     26428     26427     26429     26428     26429     26430     26431
     26430     26432     26431     26432     26433     26434     26433     26435
     26434     26435     26436     26437     26436     26438     26437     26438
     26439     26440     26439     26441     26440     26441     26442     26443
     26442     26444     26443     26444     26445     26446     26445     26447
     26446     26447     26448     26449     26448     26450     26449     26450
     26451     26452     26451     26453     26452     26453     26454     26455
     26454     26456     26455     26456     26457     26458     26457     26459
     26458     26459     26460     26461     26460     26462     26461     26462
     26463     26464     26463     26465     26464     26465     26466     26467
     26466     26468     26467     26468     26469     26470     26469     26471
     26470     26471     26472     26473     26472     26474     26473     26474
     26475     26476     26475     26477     26476     26477     26478     26479
     26478     26480     26479     26480     26481     26482     26481     26483
     26482     26483     26484     26485     26484     26486     26485     26486
     26487     26488     26487     26489     26488     26489     26490     26491
     26490     26492     26491     26492     26493     26494     26493     26495
     26494     26495     26496     26497     26496     26498     26497     26498
     26499     26500     26499     26501     26500     26501     26502     26503
     26502     26504     26503     26504     26505     26506     26505     26507
     26506     26507     26508     26509     26508     26510     26509     26510
     26511     26512     26511     26513     26512     26513     26514     26515
     26514     26516     26515     26516     26517     26518     26517     26519
     26518     26519     26520     26521     26520     26522     26521     26522
     26523     26524     26523     26525     26524     26525     26526     26527
     26526     26528     26527     26528     26529     26530     26529     26531
     26530     26531     26532     26533     26532     26534     26533     26534
     26535     26536     26535     26537     26536     26537     26538     26539
     26538     26540     26539     26540     26541     26542     26541     26543
     26542     26543     26544     26545     26544     26546     26545     26546
     26547     26548     26547     26549     26548     26549     26550     26551
     26550     26552     26551     26552     26553     26554     26553     26555
     26554     26555     26556     26557     26556     26558     26557     26558
     26559     26560     26559     26561     26560     26561     26562     26563
     26562     26564     26563     26564     26565     26566     26565     26567
     26566     26567     26568     26569     26568     26570     26569     26570
     26571     26572     26571     26573     26572     26573     26574     26575
     26574     26576     26575     26576     26577     26578     26577     26579
     26578     26579     26580     26581     26580     26582     26581     26582
     26583     26584     26583     26585     26584     26585     26586     26587
     26586     26588     26587     26588     26589     26590     26589     26591
     26590     26591     26592     26593     26592     26594     26593     26594
     26595     26596     26595     26597     26596     26597     26598     26599
     26598     26600     26599     26600     26601     26602     26601     26603
     26602     26603     26604     26605     26604     26606     26605     26606
     26607     26608     26607     26609     26608     26609     26610     26611
     26610     26612     26611     26612     26613     26614     26613     26615
     26614     26615     26616     26617     26616     26618     26617     26618
     26619     26620     26619     26621     26620     26621     26622     26623
     26622     26624     26623     26624     26625     26626     26625     26627
     26626     26627     26628     26629     26628     26630     26629     26630
     26631     26632     26631     26633     26632     26633     26634     26635
     26634     26636     26635     26636     26637     26638     26637     26639
     26638     26639     26640     26641     26640     26642     26641     26642
     26643     26644     26643     26645     26644     26645     26646     26647
     26646     26648     26647     26648     26649     26650     26649     26651
     26650     26651     26652     26653     26652     26654     26653     26654
     26655     26656     26655     26657     26656     26657     26658     26659
     26658     26660     26659     26660     26661     26662     26661     26663
     26662     26663     26664     26665     26664     26666     26665     26666
     26667     26668     26667     26669     26668     26669     26670     26671
     26670     26672     26671     26672     26673     26674     26673     26675
     26674     26675     26676     26677     26676     26678     26677     26678
     26679     26680     26679     26681     26680     26681     26682     26683
     26682     26684     26683     26684     26685     26686     26685     26687
     26686     26687     26688     26689     26688     26690     26689     26690
     26691     26692     26691     26693     26692     26693     26694     26695
     26694     26696     26695     26696     26697     26698     26697     26699
     26698     26699     26700     26701     26700     26702     26701     26702
     26703     26704     26703     26705     26704     26705     26706     26707
     26706     26708     26707     26708     26709     26710     26709     26711
     26710     26711     26712     26713     26712     26714     26713     26714
     26715     26716     26715     26717     26716     26717     26718     26719
     26718     26720     26719     26720     26721     26722     26721     26723
     26722     26723     26724     26725     26724     26726     26725     26726
     26727     26728     26727     26729     26728     26729     26730     26731
     26730     26732     26731     26732     26733     26734     26733     26735
     26734     26735     26736     26737     26736     26738     26737     26738
     26739     26740     26739     26741     26740     26741     26742     26743
     26742     26744     26743     26744     26745     26746     26745     26747
     26746     26747     26748     26749     26748     26750     26749     26750
     26751     26752     26751     26753     26752     26753     26754     26755
     26754     26756     26755     26756     26757     26758     26757     26759
     26758     26759     26760     26761     26760     26762     26761     26762
     26763     26764     26763     26765     26764     26765     26766     26767
     26766     26768     26767     26768     26769     26770     26769     26771
     26770     26771     26772     26773     26772     26774     26773     26774
     26775     26776     26775     26777     26776     26777     26778     26779
     26778     26780     26779     26780     26781     26782     26781     26783
     26782     26783     26784     26785     26784     26786     26785     26786
     26787     26788     26787     26789     26788     26789     26790     26791
     26790     26792     26791     26792     26793     26794     26793     26795
     26794     26795     26796     26797     26796     26798     26797     26798
     26799     26800     26799     26801     26800     26801     26802     26803
     26802     26804     26803     26804     26805     26806     26805     26807
     26806     26807     26808     26809     26808     26810     26809     26810
     26811     26812     26811     26813     26812     26813     26814     26815
     26814     26816     26815     26816     26817     26818     26817     26819
     26818     26819     26820     26821     26820     26822     26821     26822
     26823     26824     26823     26825     26824     26825     26826     26827
     26826     26828     26827     26828     26829     26830     26829     26831
     26830     26831     26832     26833     26832     26834     26833     26834
     26835     26836     26835     26837     26836     26837     26838     26839
     26838     26840     26839     26840     26841     26842     26841     26843
     26842     26843     26844     26845     26844     26846     26845     26846
     26847     26848     26847     26849     26848     26849     26850     26851
     26850     26852     26851     26852     26853     26854     26853     26855
     26854     26855     26856     26857     26856     26858     26857     26858
     26859     26860     26859     26861     26860     26861     26862     26863
     26862     26864     26863     26864     26865     26866     26865     26867
     26866     26867     26868     26869     26868     26870     26869     26870
     26871     26872     26871     26873     26872     26873     26874     26875
     26874     26876     26875     26876     26877     26878     26877     26879
     26878     26879     26880     26881     26880     26882     26881     26882
     26883     26884     26883     26885     26884     26885     26886     26887
     26886     26888     26887     26888     26889     26890     26889     26891
     26890     26891     26892     26893     26892     26894     26893     26894
     26895     26896     26895     26897     26896     26897     26898     26899
     26898     26900     26899     26900     26901     26902     26901     26903
     26902     26903     26904     26905     26904     26906     26905     26906
     26907     26908     26907     26909     26908     26909     26910     26911
     26910     26912     26911     26912     26913     26914     26913     26915
     26914     26915     26916     26917     26916     26918     26917     26918
     26919     26920     26919     26921     26920     26921     26922     26923
     26922     26924     26923     26924     26925     26926     26925     26927
     26926     26927     26928     26929     26928     26930     26929     26930
     26931     26932     26931     26933     26932     26933     26934     26935
     26934     26936     26935     26936     26937     26938     26937     26939
     26938     26939     26940     26941     26940     26942     26941     26942
     26943     26944     26943     26945     26944     26945     26946     26947
     26946     26948     26947     26948     26949     26950     26949     26951
     26950     26951     26952     26953     26952     26954     26953     26954
     26955     26956     26955     26957     26956     26957     26958     26959
     26958     26960     26959     26960     26961     26962     26961     26963
     26962     26963     26964     26965     26964     26966     26965     26966
     26967     26968     26967     26969     26968     26969     26970     26971
     26970     26972     26971     26972     26973     26974     26973     26975
     26974     26975     26976     26977     26976     26978     26977     26978
     26979     26980     26979     26981     26980     26981     26982     26983
     26982     26984     26983     26984     26985     26986     26985     26987
     26986     26987     26988     26989     26988     26990     26989     26990
     26991     26992     26991     26993     26992     26993     26994     26995
     26994     26996     26995     26996     26997     26998     26997     26999
     26998     26999     27000     27001     27000     27002     27001     27002
     27003     27004     27003     27005     27004     27005     27006     27007
     27006     27008     27007     27008     27009     27010     27009     27011
     27010     27011     27012     27013     27012     27014     27013     27014
     27015     27016     27015     27017     27016     27017     27018     27019
     27018     27020     27019     27020     27021     27022     27021     27023
     27022     27023     27024     27025     27024     27026     27025     27026
     27027     27028     27027     27029     27028     27029     27030     27031
     27030     27032     27031     27032     27033     27034     27033     27035
     27034     27035     27036     27037     27036     27038     27037     27038
     27039     27040     27039     27041     27040     27041     27042     27043
     27042     27044     27043     27044     27045     27046     27045     27047
     27046     27047     27048     27049     27048     27050     27049     27050
     27051     27052     27051     27053     27052     27053     27054     27055
     27054     27056     27055     27056     27057     27058     27057     27059
     27058     27059     27060     27061     27060     27062     27061     27062
     27063     27064     27063     27065     27064     27065     27066     27067
     27066     27068     27067     27068     27069     27070     27069     27071
     27070     27071     27072     27073     27072     27074     27073     27074
     27075     27076     27075     27077     27076     27077     27078     27079
     27078     27080     27079     27080     27081     27082     27081     27083
     27082     27083     27084     27085     27084     27086     27085     27086
     27087     27088     27087     27089     27088     27089     27090     27091
     27090     27092     27091     27092     27093     27094     27093     27095
     27094     27095     27096     27097     27096     27098     27097     27098
     27099     27100     27099     27101     27100     27101     27102     27103
     27102     27104     27103     27104     27105     27106     27105     27107
     27106     27107     27108     27109     27108     27110     27109     27110
     27111     27112     27111     27113     27112     27113     27114     27115
     27114     27116     27115     27116     27117     27118     27117     27119
     27118     27119     27120     27121     27120     27122     27121     27122
     27123     27124     27123     27125     27124     27125     27126     27127
     27126     27128     27127     27128     27129     27130     27129     27131
     27130     27131     27132     27133     27132     27134     27133     27134
     27135     27136     27135     27137     27136     27137     27138     27139
     27138     27140     27139     27140     27141     27142     27141     27143
     27142     27143     27144     27145     27144     27146     27145     27146
     27147     27148     27147     27149     27148     27149     27150     27151
     27150     27152     27151     27152     27153     27154     27153     27155
     27154     27155     27156     27157     27156     27158     27157     27158
     27159     27160     27159     27161     27160     27161     27162     27163
     27162     27164     27163     27164     27165     27166     27165     27167
     27166     27167     27168     27169     27168     27170     27169     27170
     27171     27172     27171     27173     27172     27173     27174     27175
     27174     27176     27175     27176     27177     27178     27177     27179
     27178     27179     27180     27181     27180     27182     27181     27182
     27183     27184     27183     27185     27184     27185     27186     27187
     27186     27188     27187     27188     27189     27190     27189     27191
     27190     27191     27192     27193     27192     27194     27193     27194
     27195     27196     27195     27197     27196     27197     27198     27199
     27198     27200     27199     27200     27201     27202     27201     27203
     27202     27203     27204     27205     27204     27206     27205     27206
     27207     27208     27207     27209     27208     27209     27210     27211
     27210     27212     27211     27212     27213     27214     27213     27215
     27214     27215     27216     27217     27216     27218     27217     27218
     27219     27220     27219     27221     27220     27221     27222     27223
     27222     27224     27223     27224     27225     27226     27225     27227
     27226     27227     27228     27229     27228     27230     27229     27230
     27231     27232     27231     27233     27232     27233     27234     27235
     27234     27236     27235     27236     27237     27238     27237     27239
     27238     27239     27240     27241     27240     27242     27241     27242
     27243     27244     27243     27245     27244     27245     27246     27247
     27246     27248     27247     27248     27249     27250     27249     27251
     27250     27251     27252     27253     27252     27254     27253     27254
     27255     27256     27255     27257     27256     27257     27258     27259
     27258     27260     27259     27260     27261     27262     27261     27263
     27262     27263     27264     27265     27264     27266     27265     27266
     27267     27268     27267     27269     27268     27269     27270     27271
     27270     27272     27271     27272     27273     27274     27273     27275
     27274     27275     27276     27277     27276     27278     27277     27278
     27279     27280     27279     27281     27280     27281     27282     27283
     27282     27284     27283     27284     27285     27286     27285     27287
     27286     27287     27288     27289     27288     27290     27289     27290
     27291     27292     27291     27293     27292     27293     27294     27295
     27294     27296     27295     27296     27297     27298     27297     27299
     27298     27299     27300     27301     27300     27302     27301     27302
     27303     27304     27303     27305     27304     27305     27306     27307
     27306     27308     27307     27308     27309     27310     27309     27311
     27310     27311     27312     27313     27312     27314     27313     27314
     27315     27316     27315     27317     27316     27317     27318     27319
     27318     27320     27319     27320     27321     27322     27321     27323
     27322     27323     27324     27325     27324     27326     27325     27326
     27327     27328     27327     27329     27328     27329     27330     27331
     27330     27332     27331     27332     27333     27334     27333     27335
     27334     27335     27336     27337     27336     27338     27337     27338
     27339     27340     27339     27341     27340     27341     27342     27343
     27342     27344     27343     27344     27345     27346     27345     27347
     27346     27347     27348     27349     27348     27350     27349     27350
     27351     27352     27351     27353     27352     27353     27354     27355
     27354     27356     27355     27356     27357     27358     27357     27359
     27358     27359     27360     27361     27360     27362     27361     27362
     27363     27364     27363     27365     27364     27365     27366     27367
     27366     27368     27367     27368     27369     27370     27369     27371
     27370     27371     27372     27373     27372     27374     27373     27374
     27375     27376     27375     27377     27376     27377     27378     27379
     27378     27380     27379     27380     27381     27382     27381     27383
     27382     27383     27384     27385     27384     27386     27385     27386
     27387     27388     27387     27389     27388     27389     27390     27391
     27390     27392     27391     27392     27393     27394     27393     27395
     27394     27395     27396     27397     27396     27398     27397     27398
     27399     27400     27399     27401     27400     27401     27402     27403
     27402     27404     27403     27404     27405     27406     27405     27407
     27406     27407     27408     27409     27408     27410     27409     27410
     27411     27412     27411     27413     27412     27413     27414     27415
     27414     27416     27415     27416     27417     27418     27417     27419
     27418     27419     27420     27421     27420     27422     27421     27422
     27423     27424     27423     27425     27424     27425     27426     27427
     27426     27428     27427     27428     27429     27430     27429     27431
     27430     27431     27432     27433     27432     27434     27433     27434
     27435     27436     27435     27437     27436     27437     27438     27439
     27438     27440     27439     27440     27441     27442     27441     27443
     27442     27443     27444     27445     27444     27446     27445     27446
     27447     27448     27447     27449     27448     27449     27450     27451
     27450     27452     27451     27452     27453     27454     27453     27455
     27454     27455     27456     27457     27456     27458     27457     27458
     27459     27460     27459     27461     27460     27461     27462     27463
     27462     27464     27463     27464     27465     27466     27465     27467
     27466     27467     27468     27469     27468     27470     27469     27470
     27471     27472     27471     27473     27472     27473     27474     27475
     27474     27476     27475     27476     27477     27478     27477     27479
     27478     27479     27480     27481     27480     27482     27481     27482
     27483     27484     27483     27485     27484     27485     27486     27487
     27486     27488     27487     27488     27489     27490     27489     27491
     27490     27491     27492     27493     27492     27494     27493     27494
     27495     27496     27495     27497     27496     27497     27498     27499
     27498     27500     27499     27500     27501     27502     27501     27503
     27502     27503     27504     27505     27504     27506     27505     27506
     27507     27508     27507     27509     27508     27509     27510     27511
     27510     27512     27511     27512     27513     27514     27513     27515
     27514     27515     27516     27517     27516     27518     27517     27518
     27519     27520     27519     27521     27520     27521     27522     27523
     27522     27524     27523     27524     27525     27526     27525     27527
     27526     27527     27528     27529     27528     27530     27529     27530
     27531     27532     27531     27533     27532     27533     27534     27535
     27534     27536     27535     27536     27537     27538     27537     27539
     27538     27539     27540     27541     27540     27542     27541     27542
     27543     27544     27543     27545     27544     27545     27546     27547
     27546     27548     27547     27548     27549     27550     27549     27551
     27550     27551     27552     27553     27552     27554     27553     27554
     27555     27556     27555     27557     27556     27557     27558     27559
     27558     27560     27559     27560     27561     27562     27561     27563
     27562     27563     27564     27565     27564     27566     27565     27566
     27567     27568     27567     27569     27568     27569     27570     27571
     27570     27572     27571     27572     27573     27574     27573     27575
     27574     27575     27576     27577     27576     27578     27577     27578
     27579     27580     27579     27581     27580     27581     27582     27583
     27582     27584     27583     27584     27585     27586     27585     27587
     27586     27587     27588     27589     27588     27590     27589     27590
     27591     27592     27591     27593     27592     27593     27594     27595
     27594     27596     27595     27596     27597     27598     27597     27599
     27598     27599     27600     27601     27600     27602     27601     27602
     27603     27604     27603     27605     27604     27605     27606     27607
     27606     27608     27607     27608     27609     27610     27609     27611
     27610     27611     27612     27613     27612     27614     27613     27614
     27615     27616     27615     27617     27616     27617     27618     27619
     27618     27620     27619     27620     27621     27622     27621     27623
     27622     27623     27624     27625     27624     27626     27625     27626
     27627     27628     27627     27629     27628     27629     27630     27631
     27630     27632     27631     27632     27633     27634     27633     27635
     27634     27635     27636     27637     27636     27638     27637     27638
     27639     27640     27639     27641     27640     27641     27642     27643
     27642     27644     27643     27644     27645     27646     27645     27647
     27646     27647     27648     27649     27648     27650     27649     27650
     27651     27652     27651     27653     27652     27653     27654     27655
     27654     27656     27655     27656     27657     27658     27657     27659
     27658     27659     27660     27661     27660     27662     27661     27662
     27663     27664     27663     27665     27664     27665     27666     27667
     27666     27668     27667     27668     27669     27670     27669     27671
     27670     27671     27672     27673     27672     27674     27673     27674
     27675     27676     27675     27677     27676     27677     27678     27679
     27678     27680     27679     27680     27681     27682     27681     27683
     27682     27683     27684     27685     27684     27686     27685     27686
     27687     27688     27687     27689     27688     27689     27690     27691
     27690     27692     27691     27692     27693     27694     27693     27695
     27694     27695     27696     27697     27696     27698     27697     27698
     27699     27700     27699     27701     27700     27701     27702     27703
     27702     27704     27703     27704     27705     27706     27705     27707
     27706     27707     27708     27709     27708     27710     27709     27710
     27711     27712     27711     27713     27712     27713     27714     27715
     27714     27716     27715     27716     27717     27718     27717     27719
     27718     27719     27720     27721     27720     27722     27721     27722
     27723     27724     27723     27725     27724     27725     27726     27727
     27726     27728     27727     27728     27729     27730     27729     27731
     27730     27731     27732     27733     27732     27734     27733     27734
     27735     27736     27735     27737     27736     27737     27738     27739
     27738     27740     27739     27740     27741     27742     27741     27743
     27742     27743     27744     27745     27744     27746     27745     27746
     27747     27748     27747     27749     27748     27749     27750     27751
     27750     27752     27751     27752     27753     27754     27753     27755
     27754     27755     27756     27757     27756     27758     27757     27758
     27759     27760     27759     27761     27760     27761     27762     27763
     27762     27764     27763     27764     27765     27766     27765     27767
     27766     27767     27768     27769     27768     27770     27769     27770
     27771     27772     27771     27773     27772     27773     27774     27775
     27774     27776     27775     27776     27777     27778     27777     27779
     27778     27779     27780     27781     27780     27782     27781     27782
     27783     27784     27783     27785     27784     27785     27786     27787
     27786     27788     27787     27788     27789     27790     27789     27791
     27790     27791     27792     27793     27792     27794     27793     27794
     27795     27796     27795     27797     27796     27797     27798     27799
     27798     27800     27799     27800     27801     27802     27801     27803
     27802     27803     27804     27805     27804     27806     27805     27806
     27807     27808     27807     27809     27808     27809     27810     27811
     27810     27812     27811     27812     27813     27814     27813     27815
     27814     27815     27816     27817     27816     27818     27817     27818
     27819     27820     27819     27821     27820     27821     27822     27823
     27822     27824     27823     27824     27825     27826     27825     27827
     27826     27827     27828     27829     27828     27830     27829     27830
     27831     27832     27831     27833     27832     27833     27834     27835
     27834     27836     27835     27836     27837     27838     27837     27839
     27838     27839     27840     27841     27840     27842     27841     27842
     27843     27844     27843     27845     27844     27845     27846     27847
     27846     27848     27847     27848     27849     27850     27849     27851
     27850     27851     27852     27853     27852     27854     27853     27854
     27855     27856     27855     27857     27856     27857     27858     27859
     27858     27860     27859     27860     27861     27862     27861     27863
     27862     27863     27864     27865     27864     27866     27865     27866
     27867     27868     27867     27869     27868     27869     27870     27871
     27870     27872     27871     27872     27873     27874     27873     27875
     27874     27875     27876     27877     27876     27878     27877     27878
     27879     27880     27879     27881     27880     27881     27882     27883
     27882     27884     27883     27884     27885     27886     27885     27887
     27886     27887     27888     27889     27888     27890     27889     27890
     27891     27892     27891     27893     27892     27893     27894     27895
     27894     27896     27895     27896     27897     27898     27897     27899
     27898     27899     27900     27901     27900     27902     27901     27902
     27903     27904     27903     27905     27904     27905     27906     27907
     27906     27908     27907     27908     27909     27910     27909     27911
     27910     27911     27912     27913     27912     27914     27913     27914
     27915     27916     27915     27917     27916     27917     27918     27919
     27918     27920     27919     27920     27921     27922     27921     27923
     27922     27923     27924     27925     27924     27926     27925     27926
     27927     27928     27927     27929     27928     27929     27930     27931
     27930     27932     27931     27932     27933     27934     27933     27935
     27934     27935     27936     27937     27936     27938     27937     27938
     27939     27940     27939     27941     27940     27941     27942     27943
     27942     27944     27943     27944     27945     27946     27945     27947
     27946     27947     27948     27949     27948     27950     27949     27950
     27951     27952     27951     27953     27952     27953     27954     27955
     27954     27956     27955     27956     27957     27958     27957     27959
     27958     27959     27960     27961     27960     27962     27961     27962
     27963     27964     27963     27965     27964     27965     27966     27967
     27966     27968     27967     27968     27969     27970     27969     27971
     27970     27971     27972     27973     27972     27974     27973     27974
     27975     27976     27975     27977     27976     27977     27978     27979
     27978     27980     27979     27980     27981     27982     27981     27983
     27982     27983     27984     27985     27984     27986     27985     27986
     27987     27988     27987     27989     27988     27989     27990     27991
     27990     27992     27991     27992     27993     27994     27993     27995
     27994     27995     27996     27997     27996     27998     27997     27998
     27999     28000     27999     28001     28000     28001     28002     28003
     28002     28004     28003     28004     28005     28006     28005     28007
     28006     28007     28008     28009     28008     28010     28009     28010
     28011     28012     28011     28013     28012     28013     28014     28015
     28014     28016     28015     28016     28017     28018     28017     28019
     28018     28019     28020     28021     28020     28022     28021     28022
     28023     28024     28023     28025     28024     28025     28026     28027
     28026     28028     28027     28028     28029     28030     28029     28031
     28030     28031     28032     28033     28032     28034     28033     28034
     28035     28036     28035     28037     28036     28037     28038     28039
     28038     28040     28039     28040     28041     28042     28041     28043
     28042     28043     28044     28045     28044     28046     28045     28046
     28047     28048     28047     28049     28048     28049     28050     28051
     28050     28052     28051     28052     28053     28054     28053     28055
     28054     28055     28056     28057     28056     28058     28057     28058
     28059     28060     28059     28061     28060     28061     28062     28063
     28062     28064     28063     28064     28065     28066     28065     28067
     28066     28067     28068     28069     28068     28070     28069     28070
     28071     28072     28071     28073     28072     28073     28074     28075
     28074     28076     28075     28076     28077     28078     28077     28079
     28078     28079     28080     28081     28080     28082     28081     28082
     28083     28084     28083     28085     28084     28085     28086     28087
     28086     28088     28087     28088     28089     28090     28089     28091
     28090     28091     28092     28093     28092     28094     28093     28094
     28095     28096     28095     28097     28096     28097     28098     28099
     28098     28100     28099     28100     28101     28102     28101     28103
     28102     28103     28104     28105     28104     28106     28105     28106
     28107     28108     28107     28109     28108     28109     28110     28111
     28110     28112     28111     28112     28113     28114     28113     28115
     28114     28115     28116     28117     28116     28118     28117     28118
     28119     28120     28119     28121     28120     28121     28122     28123
     28122     28124     28123     28124     28125     28126     28125     28127
     28126     28127     28128     28129     28128     28130     28129     28130
     28131     28132     28131     28133     28132     28133     28134     28135
     28134     28136     28135     28136     28137     28138     28137     28139
     28138     28139     28140     28141     28140     28142     28141     28142
     28143     28144     28143     28145     28144     28145     28146     28147
     28146     28148     28147     28148     28149     28150     28149     28151
     28150     28151     28152     28153     28152     28154     28153     28154
     28155     28156     28155     28157     28156     28157     28158     28159
     28158     28160     28159     28160     28161     28162     28161     28163
     28162     28163     28164     28165     28164     28166     28165     28166
     28167     28168     28167     28169     28168     28169     28170     28171
     28170     28172     28171     28172     28173     28174     28173     28175
     28174     28175     28176     28177     28176     28178     28177     28178
     28179     28180     28179     28181     28180     28181     28182     28183
     28182     28184     28183     28184     28185     28186     28185     28187
     28186     28187     28188     28189     28188     28190     28189     28190
     28191     28192     28191     28193     28192     28193     28194     28195
     28194     28196     28195     28196     28197     28198     28197     28199
     28198     28199     28200     28201     28200     28202     28201     28202
     28203     28204     28203     28205     28204     28205     28206     28207
     28206     28208     28207     28208     28209     28210     28209     28211
     28210     28211     28212     28213     28212     28214     28213     28214
     28215     28216     28215     28217     28216     28217     28218     28219
     28218     28220     28219     28220     28221     28222     28221     28223
     28222     28223     28224     28225     28224     28226     28225     28226
     28227     28228     28227     28229     28228     28229     28230     28231
     28230     28232     28231     28232     28233     28234     28233     28235
     28234     28235     28236     28237     28236     28238     28237     28238
     28239     28240     28239     28241     28240     28241     28242     28243
     28242     28244     28243     28244     28245     28246     28245     28247
     28246     28247     28248     28249     28248     28250     28249     28250
     28251     28252     28251     28253     28252     28253     28254     28255
     28254     28256     28255     28256     28257     28258     28257     28259
     28258     28259     28260     28261     28260     28262     28261     28262
     28263     28264     28263     28265     28264     28265     28266     28267
     28266     28268     28267     28268     28269     28270     28269     28271
     28270     28271     28272     28273     28272     28274     28273     28274
     28275     28276     28275     28277     28276     28277     28278     28279
     28278     28280     28279     28280     28281     28282     28281     28283
     28282     28283     28284     28285     28284     28286     28285     28286
     28287     28288     28287     28289     28288     28289     28290     28291
     28290     28292     28291     28292     28293     28294     28293     28295
     28294     28295     28296     28297     28296     28298     28297     28298
     28299     28300     28299     28301     28300     28301     28302     28303
     28302     28304     28303     28304     28305     28306     28305     28307
     28306     28307     28308     28309     28308     28310     28309     28310
     28311     28312     28311     28313     28312     28313     28314     28315
     28314     28316     28315     28316     28317     28318     28317     28319
     28318     28319     28320     28321     28320     28322     28321     28322
     28323     28324     28323     28325     28324     28325     28326     28327
     28326     28328     28327     28328     28329     28330     28329     28331
     28330     28331     28332     28333     28332     28334     28333     28334
     28335     28336     28335     28337     28336     28337     28338     28339
     28338     28340     28339     28340     28341     28342     28341     28343
     28342     28343     28344     28345     28344     28346     28345     28346
     28347     28348     28347     28349     28348     28349     28350     28351
     28350     28352     28351     28352     28353     28354     28353     28355
     28354     28355     28356     28357     28356     28358     28357     28358
     28359     28360     28359     28361     28360     28361     28362     28363
     28362     28364     28363     28364     28365     28366     28365     28367
     28366     28367     28368     28369     28368     28370     28369     28370
     28371     28372     28371     28373     28372     28373     28374     28375
     28374     28376     28375     28376     28377     28378     28377     28379
     28378     28379     28380     28381     28380     28382     28381     28382
     28383     28384     28383     28385     28384     28385     28386     28387
     28386     28388     28387     28388     28389     28390     28389     28391
     28390     28391     28392     28393     28392     28394     28393     28394
     28395     28396     28395     28397     28396     28397     28398     28399
     28398     28400     28399     28400     28401     28402     28401     28403
     28402     28403     28404     28405     28404     28406     28405     28406
     28407     28408     28407     28409     28408     28409     28410     28411
     28410     28412     28411     28412     28413     28414     28413     28415
     28414     28415     28416     28417     28416     28418     28417     28418
     28419     28420     28419     28421     28420     28421     28422     28423
     28422     28424     28423     28424     28425     28426     28425     28427
     28426     28427     28428     28429     28428     28430     28429     28430
     28431     28432     28431     28433     28432     28433     28434     28435
     28434     28436     28435     28436     28437     28438     28437     28439
     28438     28439     28440     28441     28440     28442     28441     28442
     28443     28444     28443     28445     28444     28445     28446     28447
     28446     28448     28447     28448     28449     28450     28449     28451
     28450     28451     28452     28453     28452     28454     28453     28454
     28455     28456     28455     28457     28456     28457     28458     28459
     28458     28460     28459     28460     28461     28462     28461     28463
     28462     28463     28464     28465     28464     28466     28465     28466
     28467     28468     28467     28469     28468     28469     28470     28471
     28470     28472     28471     28472     28473     28474     28473     28475
     28474     28475     28476     28477     28476     28478     28477     28478
     28479     28480     28479     28481     28480     28481     28482     28483
     28482     28484     28483     28484     28485     28486     28485     28487
     28486     28487     28488     28489     28488     28490     28489     28490
     28491     28492     28491     28493     28492     28493     28494     28495
     28494     28496     28495     28496     28497     28498     28497     28499
     28498     28499     28500     28501     28500     28502     28501     28502
     28503     28504     28503     28505     28504     28505     28506     28507
     28506     28508     28507     28508     28509     28510     28509     28511
     28510     28511     28512     28513     28512     28514     28513     28514
     28515     28516     28515     28517     28516     28517     28518     28519
     28518     28520     28519     28520     28521     28522     28521     28523
     28522     28523     28524     28525     28524     28526     28525     28526
     28527     28528     28527     28529     28528     28529     28530     28531
     28530     28532     28531     28532     28533     28534     28533     28535
     28534     28535     28536     28537     28536     28538     28537     28538
     28539     28540     28539     28541     28540     28541     28542     28543
     28542     28544     28543     28544     28545     28546     28545     28547
     28546     28547     28548     28549     28548     28550     28549     28550
     28551     28552     28551     28553     28552     28553     28554     28555
     28554     28556     28555     28556     28557     28558     28557     28559
     28558     28559     28560     28561     28560     28562     28561     28562
     28563     28564     28563     28565     28564     28565     28566     28567
     28566     28568     28567     28568     28569     28570     28569     28571
     28570     28571     28572     28573     28572     28574     28573     28574
     28575     28576     28575     28577     28576     28577     28578     28579
     28578     28580     28579     28580     28581     28582     28581     28583
     28582     28583     28584     28585     28584     28586     28585     28586
     28587     28588     28587     28589     28588     28589     28590     28591
     28590     28592     28591     28592     28593     28594     28593     28595
     28594     28595     28596     28597     28596     28598     28597     28598
     28599     28600     28599     28601     28600     28601     28602     28603
     28602     28604     28603     28604     28605     28606     28605     28607
     28606     28607     28608     28609     28608     28610     28609     28610
     28611     28612     28611     28613     28612     28613     28614     28615
     28614     28616     28615     28616     28617     28618     28617     28619
     28618     28619     28620     28621     28620     28622     28621     28622
     28623     28624     28623     28625     28624     28625     28626     28627
     28626     28628     28627     28628     28629     28630     28629     28631
     28630     28631     28632     28633     28632     28634     28633     28634
     28635     28636     28635     28637     28636     28637     28638     28639
     28638     28640     28639     28640     28641     28642     28641     28643
     28642     28643     28644     28645     28644     28646     28645     28646
     28647     28648     28647     28649     28648     28649     28650     28651
     28650     28652     28651     28652     28653     28654     28653     28655
     28654     28655     28656     28657     28656     28658     28657     28658
     28659     28660     28659     28661     28660     28661     28662     28663
     28662     28664     28663     28664     28665     28666     28665     28667
     28666     28667     28668     28669     28668     28670     28669     28670
     28671     28672     28671     28673     28672     28673     28674     28675
     28674     28676     28675     28676     28677     28678     28677     28679
     28678     28679     28680     28681     28680     28682     28681     28682
     28683     28684     28683     28685     28684     28685     28686     28687
     28686     28688     28687     28688     28689     28690     28689     28691
     28690     28691     28692     28693     28692     28694     28693     28694
     28695     28696     28695     28697     28696     28697     28698     28699
     28698     28700     28699     28700     28701     28702     28701     28703
     28702     28703     28704     28705     28704     28706     28705     28706
     28707     28708     28707     28709     28708     28709     28710     28711
     28710     28712     28711     28712     28713     28714     28713     28715
     28714     28715     28716     28717     28716     28718     28717     28718
     28719     28720     28719     28721     28720     28721     28722     28723
     28722     28724     28723     28724     28725     28726     28725     28727
     28726     28727     28728     28729     28728     28730     28729     28730
     28731     28732     28731     28733     28732     28733     28734     28735
     28734     28736     28735     28736     28737     28738     28737     28739
     28738     28739     28740     28741     28740     28742     28741     28742
     28743     28744     28743     28745     28744     28745     28746     28747
     28746     28748     28747     28748     28749     28750     28749     28751
     28750     28751     28752     28753     28752     28754     28753     28754
     28755     28756     28755     28757     28756     28757     28758     28759
     28758     28760     28759     28760     28761     28762     28761     28763
     28762     28763     28764     28765     28764     28766     28765     28766
     28767     28768     28767     28769     28768     28769     28770     28771
     28770     28772     28771     28772     28773     28774     28773     28775
     28774     28775     28776     28777     28776     28778     28777     28778
     28779     28780     28779     28781     28780     28781     28782     28783
     28782     28784     28783     28784     28785     28786     28785     28787
     28786     28787     28788     28789     28788     28790     28789     28790
     28791     28792     28791     28793     28792     28793     28794     28795
     28794     28796     28795     28796     28797     28798     28797     28799
     28798     28799     28800     28801     28800     28802     28801     28802
     28803     28804     28803     28805     28804     28805     28806     28807
     28806     28808     28807     28808     28809     28810     28809     28811
     28810     28811     28812     28813     28812     28814     28813     28814
     28815     28816     28815     28817     28816     28817     28818     28819
     28818     28820     28819     28820     28821     28822     28821     28823
     28822     28823     28824     28825     28824     28826     28825     28826
     28827     28828     28827     28829     28828     28829     28830     28831
     28830     28832     28831     28832     28833     28834     28833     28835
     28834     28835     28836     28837     28836     28838     28837     28838
     28839     28840     28839     28841     28840     28841     28842     28843
     28842     28844     28843     28844     28845     28846     28845     28847
     28846     28847     28848     28849     28848     28850     28849     28850
     28851     28852     28851     28853     28852     28853     28854     28855
     28854     28856     28855     28856     28857     28858     28857     28859
     28858     28859     28860     28861     28860     28862     28861     28862
     28863     28864     28863     28865     28864     28865     28866     28867
     28866     28868     28867     28868     28869     28870     28869     28871
     28870     28871     28872     28873     28872     28874     28873     28874
     28875     28876     28875     28877     28876     28877     28878     28879
     28878     28880     28879     28880     28881     28882     28881     28883
     28882     28883     28884     28885     28884     28886     28885     28886
     28887     28888     28887     28889     28888     28889     28890     28891
     28890     28892     28891     28892     28893     28894     28893     28895
     28894     28895     28896     28897     28896     28898     28897     28898
     28899     28900     28899     28901     28900     28901     28902     28903
     28902     28904     28903     28904     28905     28906     28905     28907
     28906     28907     28908     28909     28908     28910     28909     28910
     28911     28912     28911     28913     28912     28913     28914     28915
     28914     28916     28915     28916     28917     28918     28917     28919
     28918     28919     28920     28921     28920     28922     28921     28922
     28923     28924     28923     28925     28924     28925     28926     28927
     28926     28928     28927     28928     28929     28930     28929     28931
     28930     28931     28932     28933     28932     28934     28933     28934
     28935     28936     28935     28937     28936     28937     28938     28939
     28938     28940     28939     28940     28941     28942     28941     28943
     28942     28943     28944     28945     28944     28946     28945     28946
     28947     28948     28947     28949     28948     28949     28950     28951
     28950     28952     28951     28952     28953     28954     28953     28955
     28954     28955     28956     28957     28956     28958     28957     28958
     28959     28960     28959     28961     28960     28961     28962     28963
     28962     28964     28963     28964     28965     28966     28965     28967
     28966     28967     28968     28969     28968     28970     28969     28970
     28971     28972     28971     28973     28972     28973     28974     28975
     28974     28976     28975     28976     28977     28978     28977     28979
     28978     28979     28980     28981     28980     28982     28981     28982
     28983     28984     28983     28985     28984     28985     28986     28987
     28986     28988     28987     28988     28989     28990     28989     28991
     28990     28991     28992     28993     28992     28994     28993     28994
     28995     28996     28995     28997     28996     28997     28998     28999
     28998     29000     28999     29000     29001     29002     29001     29003
     29002     29003     29004     29005     29004     29006     29005     29006
     29007     29008     29007     29009     29008     29009     29010     29011
     29010     29012     29011     29012     29013     29014     29013     29015
     29014     29015     29016     29017     29016     29018     29017     29018
     29019     29020     29019     29021     29020     29021     29022     29023
     29022     29024     29023     29024     29025     29026     29025     29027
     29026     29027     29028     29029     29028     29030     29029     29030
     29031     29032     29031     29033     29032     29033     29034     29035
     29034     29036     29035     29036     29037     29038     29037     29039
     29038     29039     29040     29041     29040     29042     29041     29042
     29043     29044     29043     29045     29044     29045     29046     29047
     29046     29048     29047     29048     29049     29050     29049     29051
     29050     29051     29052     29053     29052     29054     29053     29054
     29055     29056     29055     29057     29056     29057     29058     29059
     29058     29060     29059     29060     29061     29062     29061     29063
     29062     29063     29064     29065     29064     29066     29065     29066
     29067     29068     29067     29069     29068     29069     29070     29071
     29070     29072     29071     29072     29073     29074     29073     29075
     29074     29075     29076     29077     29076     29078     29077     29078
     29079     29080     29079     29081     29080     29081     29082     29083
     29082     29084     29083     29084     29085     29086     29085     29087
     29086     29087     29088     29089     29088     29090     29089     29090
     29091     29092     29091     29093     29092     29093     29094     29095
     29094     29096     29095     29096     29097     29098     29097     29099
     29098     29099     29100     29101     29100     29102     29101     29102
     29103     29104     29103     29105     29104     29105     29106     29107
     29106     29108     29107     29108     29109     29110     29109     29111
     29110     29111     29112     29113     29112     29114     29113     29114
     29115     29116     29115     29117     29116     29117     29118     29119
     29118     29120     29119     29120     29121     29122     29121     29123
     29122     29123     29124     29125     29124     29126     29125     29126
     29127     29128     29127     29129     29128     29129     29130     29131
     29130     29132     29131     29132     29133     29134     29133     29135
     29134     29135     29136     29137     29136     29138     29137     29138
     29139     29140     29139     29141     29140     29141     29142     29143
     29142     29144     29143     29144     29145     29146     29145     29147
     29146     29147     29148     29149     29148     29150     29149     29150
     29151     29152     29151     29153     29152     29153     29154     29155
     29154     29156     29155     29156     29157     29158     29157     29159
     29158     29159     29160     29161     29160     29162     29161     29162
     29163     29164     29163     29165     29164     29165     29166     29167
     29166     29168     29167     29168     29169     29170     29169     29171
     29170     29171     29172     29173     29172     29174     29173     29174
     29175     29176     29175     29177     29176     29177     29178     29179
     29178     29180     29179     29180     29181     29182     29181     29183
     29182     29183     29184     29185     29184     29186     29185     29186
     29187     29188     29187     29189     29188     29189     29190     29191
     29190     29192     29191     29192     29193     29194     29193     29195
     29194     29195     29196     29197     29196     29198     29197     29198
     29199     29200     29199     29201     29200     29201     29202     29203
     29202     29204     29203     29204     29205     29206     29205     29207
     29206     29207     29208     29209     29208     29210     29209     29210
     29211     29212     29211     29213     29212     29213     29214     29215
     29214     29216     29215     29216     29217     29218     29217     29219
     29218     29219     29220     29221     29220     29222     29221     29222
     29223     29224     29223     29225     29224     29225     29226     29227
     29226     29228     29227     29228     29229     29230     29229     29231
     29230     29231     29232     29233     29232     29234     29233     29234
     29235     29236     29235     29237     29236     29237     29238     29239
     29238     29240     29239     29240     29241     29242     29241     29243
     29242     29243     29244     29245     29244     29246     29245     29246
     29247     29248     29247     29249     29248     29249     29250     29251
     29250     29252     29251     29252     29253     29254     29253     29255
     29254     29255     29256     29257     29256     29258     29257     29258
     29259     29260     29259     29261     29260     29261     29262     29263
     29262     29264     29263     29264     29265     29266     29265     29267
     29266     29267     29268     29269     29268     29270     29269     29270
     29271     29272     29271     29273     29272     29273     29274     29275
     29274     29276     29275     29276     29277     29278     29277     29279
     29278     29279     29280     29281     29280     29282     29281     29282
     29283     29284     29283     29285     29284     29285     29286     29287
     29286     29288     29287     29288     29289     29290     29289     29291
     29290     29291     29292     29293     29292     29294     29293     29294
     29295     29296     29295     29297     29296     29297     29298     29299
     29298     29300     29299     29300     29301     29302     29301     29303
     29302     29303     29304     29305     29304     29306     29305     29306
     29307     29308     29307     29309     29308     29309     29310     29311
     29310     29312     29311     29312     29313     29314     29313     29315
     29314     29315     29316     29317     29316     29318     29317     29318
     29319     29320     29319     29321     29320     29321     29322     29323
     29322     29324     29323     29324     29325     29326     29325     29327
     29326     29327     29328     29329     29328     29330     29329     29330
     29331     29332     29331     29333     29332     29333     29334     29335
     29334     29336     29335     29336     29337     29338     29337     29339
     29338     29339     29340     29341     29340     29342     29341     29342
     29343     29344     29343     29345     29344     29345     29346     29347
     29346     29348     29347     29348     29349     29350     29349     29351
     29350     29351     29352     29353     29352     29354     29353     29354
     29355     29356     29355     29357     29356     29357     29358     29359
     29358     29360     29359     29360     29361     29362     29361     29363
     29362     29363     29364     29365     29364     29366     29365     29366
     29367     29368     29367     29369     29368     29369     29370     29371
     29370     29372     29371     29372     29373     29374     29373     29375
     29374     29375     29376     29377     29376     29378     29377     29378
     29379     29380     29379     29381     29380     29381     29382     29383
     29382     29384     29383     29384     29385     29386     29385     29387
     29386     29387     29388     29389     29388     29390     29389     29390
     29391     29392     29391     29393     29392     29393     29394     29395
     29394     29396     29395     29396     29397     29398     29397     29399
     29398     29399     29400     29401     29400     29402     29401     29402
     29403     29404     29403     29405     29404     29405     29406     29407
     29406     29408     29407     29408     29409     29410     29409     29411
     29410     29411     29412     29413     29412     29414     29413     29414
     29415     29416     29415     29417     29416     29417     29418     29419
     29418     29420     29419     29420     29421     29422     29421     29423
     29422     29423     29424     29425     29424     29426     29425     29426
     29427     29428     29427     29429     29428     29429     29430     29431
     29430     29432     29431     29432     29433     29434     29433     29435
     29434     29435     29436     29437     29436     29438     29437     29438
     29439     29440     29439     29441     29440     29441     29442     29443
     29442     29444     29443     29444     29445     29446     29445     29447
     29446     29447     29448     29449     29448     29450     29449     29450
     29451     29452     29451     29453     29452     29453     29454     29455
     29454     29456     29455     29456     29457     29458     29457     29459
     29458     29459     29460     29461     29460     29462     29461     29462
     29463     29464     29463     29465     29464     29465     29466     29467
     29466     29468     29467     29468     29469     29470     29469     29471
     29470     29471     29472     29473     29472     29474     29473     29474
     29475     29476     29475     29477     29476     29477     29478     29479
     29478     29480     29479     29480     29481     29482     29481     29483
     29482     29483     29484     29485     29484     29486     29485     29486
     29487     29488     29487     29489     29488     29489     29490     29491
     29490     29492     29491     29492     29493     29494     29493     29495
     29494     29495     29496     29497     29496     29498     29497     29498
     29499     29500     29499     29501     29500     29501     29502     29503
     29502     29504     29503     29504     29505     29506     29505     29507
     29506     29507     29508     29509     29508     29510     29509     29510
     29511     29512     29511     29513     29512     29513     29514     29515
     29514     29516     29515     29516     29517     29518     29517     29519
     29518     29519     29520     29521     29520     29522     29521     29522
     29523     29524     29523     29525     29524     29525     29526     29527
     29526     29528     29527     29528     29529     29530     29529     29531
     29530     29531     29532     29533     29532     29534     29533     29534
     29535     29536     29535     29537     29536     29537     29538     29539
     29538     29540     29539     29540     29541     29542     29541     29543
     29542     29543     29544     29545     29544     29546     29545     29546
     29547     29548     29547     29549     29548     29549     29550     29551
     29550     29552     29551     29552     29553     29554     29553     29555
     29554     29555     29556     29557     29556     29558     29557     29558
     29559     29560     29559     29561     29560     29561     29562     29563
     29562     29564     29563     29564     29565     29566     29565     29567
     29566     29567     29568     29569     29568     29570     29569     29570
     29571     29572     29571     29573     29572     29573     29574     29575
     29574     29576     29575     29576     29577     29578     29577     29579
     29578     29579     29580     29581     29580     29582     29581     29582
     29583     29584     29583     29585     29584     29585     29586     29587
     29586     29588     29587     29588     29589     29590     29589     29591
     29590     29591     29592     29593     29592     29594     29593     29594
     29595     29596     29595     29597     29596     29597     29598     29599
     29598     29600     29599     29600     29601     29602     29601     29603
     29602     29603     29604     29605     29604     29606     29605     29606
     29607     29608     29607     29609     29608     29609     29610     29611
     29610     29612     29611     29612     29613     29614     29613     29615
     29614     29615     29616     29617     29616     29618     29617     29618
     29619     29620     29619     29621     29620     29621     29622     29623
     29622     29624     29623     29624     29625     29626     29625     29627
     29626     29627     29628     29629     29628     29630     29629     29630
     29631     29632     29631     29633     29632     29633     29634     29635
     29634     29636     29635     29636     29637     29638     29637     29639
     29638     29639     29640     29641     29640     29642     29641     29642
     29643     29644     29643     29645     29644     29645     29646     29647
     29646     29648     29647     29648     29649     29650     29649     29651
     29650     29651     29652     29653     29652     29654     29653     29654
     29655     29656     29655     29657     29656     29657     29658     29659
     29658     29660     29659     29660     29661     29662     29661     29663
     29662     29663     29664     29665     29664     29666     29665     29666
     29667     29668     29667     29669     29668     29669     29670     29671
     29670     29672     29671     29672     29673     29674     29673     29675
     29674     29675     29676     29677     29676     29678     29677     29678
     29679     29680     29679     29681     29680     29681     29682     29683
     29682     29684     29683     29684     29685     29686     29685     29687
     29686     29687     29688     29689     29688     29690     29689     29690
     29691     29692     29691     29693     29692     29693     29694     29695
     29694     29696     29695     29696     29697     29698     29697     29699
     29698     29699     29700     29701     29700     29702     29701     29702
     29703     29704     29703     29705     29704     29705     29706     29707
     29706     29708     29707     29708     29709     29710     29709     29711
     29710     29711     29712     29713     29712     29714     29713     29714
     29715     29716     29715     29717     29716     29717     29718     29719
     29718     29720     29719     29720     29721     29722     29721     29723
     29722     29723     29724     29725     29724     29726     29725     29726
     29727     29728     29727     29729     29728     29729     29730     29731
     29730     29732     29731     29732     29733     29734     29733     29735
     29734     29735     29736     29737     29736     29738     29737     29738
     29739     29740     29739     29741     29740     29741     29742     29743
     29742     29744     29743     29744     29745     29746     29745     29747
     29746     29747     29748     29749     29748     29750     29749     29750
     29751     29752     29751     29753     29752     29753     29754     29755
     29754     29756     29755     29756     29757     29758     29757     29759
     29758     29759     29760     29761     29760     29762     29761     29762
     29763     29764     29763     29765     29764     29765     29766     29767
     29766     29768     29767     29768     29769     29770     29769     29771
     29770     29771     29772     29773     29772     29774     29773     29774
     29775     29776     29775     29777     29776     29777     29778     29779
     29778     29780     29779     29780     29781     29782     29781     29783
     29782     29783     29784     29785     29784     29786     29785     29786
     29787     29788     29787     29789     29788     29789     29790     29791
     29790     29792     29791     29792     29793     29794     29793     29795
     29794     29795     29796     29797     29796     29798     29797     29798
     29799     29800     29799     29801     29800     29801     29802     29803
     29802     29804     29803     29804     29805     29806     29805     29807
     29806     29807     29808     29809     29808     29810     29809     29810
     29811     29812     29811     29813     29812     29813     29814     29815
     29814     29816     29815     29816     29817     29818     29817     29819
     29818     29819     29820     29821     29820     29822     29821     29822
     29823     29824     29823     29825     29824     29825     29826     29827
     29826     29828     29827     29828     29829     29830     29829     29831
     29830     29831     29832     29833     29832     29834     29833     29834
     29835     29836     29835     29837     29836     29837     29838     29839
     29838     29840     29839     29840     29841     29842     29841     29843
     29842     29843     29844     29845     29844     29846     29845     29846
     29847     29848     29847     29849     29848     29849     29850     29851
     29850     29852     29851     29852     29853     29854     29853     29855
     29854     29855     29856     29857     29856     29858     29857     29858
     29859     29860     29859     29861     29860     29861     29862     29863
     29862     29864     29863     29864     29865     29866     29865     29867
     29866     29867     29868     29869     29868     29870     29869     29870
     29871     29872     29871     29873     29872     29873     29874     29875
     29874     29876     29875     29876     29877     29878     29877     29879
     29878     29879     29880     29881     29880     29882     29881     29882
     29883     29884     29883     29885     29884     29885     29886     29887
     29886     29888     29887     29888     29889     29890     29889     29891
     29890     29891     29892     29893     29892     29894     29893     29894
     29895     29896     29895     29897     29896     29897     29898     29899
     29898     29900     29899     29900     29901     29902     29901     29903
     29902     29903     29904     29905     29904     29906     29905     29906
     29907     29908     29907     29909     29908     29909     29910     29911
     29910     29912     29911     29912     29913     29914     29913     29915
     29914     29915     29916     29917     29916     29918     29917     29918
     29919     29920     29919     29921     29920     29921     29922     29923
     29922     29924     29923     29924     29925     29926     29925     29927
     29926     29927     29928     29929     29928     29930     29929     29930
     29931     29932     29931     29933     29932     29933     29934     29935
     29934     29936     29935     29936     29937     29938     29937     29939
     29938     29939     29940     29941     29940     29942     29941     29942
     29943     29944     29943     29945     29944     29945     29946     29947
     29946     29948     29947     29948     29949     29950     29949     29951
     29950     29951     29952     29953     29952     29954     29953     29954
     29955     29956     29955     29957     29956     29957     29958     29959
     29958     29960     29959     29960     29961     29962     29961     29963
     29962     29963     29964     29965     29964     29966     29965     29966
     29967     29968     29967     29969     29968     29969     29970     29971
     29970     29972     29971     29972     29973     29974     29973     29975
     29974     29975     29976     29977     29976     29978     29977     29978
     29979     29980     29979     29981     29980     29981     29982     29983
     29982     29984     29983     29984     29985     29986     29985     29987
     29986     29987     29988     29989     29988     29990     29989     29990
     29991     29992     29991     29993     29992     29993     29994     29995
     29994     29996     29995     29996     29997     29998     29997     29999
     29998     29999     30000     30001     30000     30002     30001     30002
     30003     30004     30003     30005     30004     30005     30006     30007
     30006     30008     30007     30008     30009     30010     30009     30011
     30010     30011     30012     30013     30012     30014     30013     30014
     30015     30016     30015     30017     30016     30017     30018     30019
     30018     30020     30019     30020     30021     30022     30021     30023
     30022     30023     30024     30025     30024     30026     30025     30026
     30027     30028     30027     30029     30028     30029     30030     30031
     30030     30032     30031     30032     30033     30034     30033     30035
     30034     30035     30036     30037     30036     30038     30037     30038
     30039     30040     30039     30041     30040     30041     30042     30043
     30042     30044     30043     30044     30045     30046     30045     30047
     30046     30047     30048     30049     30048     30050     30049     30050
     30051     30052     30051     30053     30052     30053     30054     30055
     30054     30056     30055     30056     30057     30058     30057     30059
     30058     30059     30060     30061     30060     30062     30061     30062
     30063     30064     30063     30065     30064     30065     30066     30067
     30066     30068     30067     30068     30069     30070     30069     30071
     30070     30071     30072     30073     30072     30074     30073     30074
     30075     30076     30075     30077     30076     30077     30078     30079
     30078     30080     30079     30080     30081     30082     30081     30083
     30082     30083     30084     30085     30084     30086     30085     30086
     30087     30088     30087     30089     30088     30089     30090     30091
     30090     30092     30091     30092     30093     30094     30093     30095
     30094     30095     30096     30097     30096     30098     30097     30098
     30099     30100     30099     30101     30100     30101     30102     30103
     30102     30104     30103     30104     30105     30106     30105     30107
     30106     30107     30108     30109     30108     30110     30109     30110
     30111     30112     30111     30113     30112     30113     30114     30115
     30114     30116     30115     30116     30117     30118     30117     30119
     30118     30119     30120     30121     30120     30122     30121     30122
     30123     30124     30123     30125     30124     30125     30126     30127
     30126     30128     30127     30128     30129     30130     30129     30131
     30130     30131     30132     30133     30132     30134     30133     30134
     30135     30136     30135     30137     30136     30137     30138     30139
     30138     30140     30139     30140     30141     30142     30141     30143
     30142     30143     30144     30145     30144     30146     30145     30146
     30147     30148     30147     30149     30148     30149     30150     30151
     30150     30152     30151     30152     30153     30154     30153     30155
     30154     30155     30156     30157     30156     30158     30157     30158
     30159     30160     30159     30161     30160     30161     30162     30163
     30162     30164     30163     30164     30165     30166     30165     30167
     30166     30167     30168     30169     30168     30170     30169     30170
     30171     30172     30171     30173     30172     30173     30174     30175
     30174     30176     30175     30176     30177     30178     30177     30179
     30178     30179     30180     30181     30180     30182     30181     30182
     30183     30184     30183     30185     30184     30185     30186     30187
     30186     30188     30187     30188     30189     30190     30189     30191
     30190     30191     30192     30193     30192     30194     30193     30194
     30195     30196     30195     30197     30196     30197     30198     30199
     30198     30200     30199     30200     30201     30202     30201     30203
     30202     30203     30204     30205     30204     30206     30205     30206
     30207     30208     30207     30209     30208     30209     30210     30211
     30210     30212     30211     30212     30213     30214     30213     30215
     30214     30215     30216     30217     30216     30218     30217     30218
     30219     30220     30219     30221     30220     30221     30222     30223
     30222     30224     30223     30224     30225     30226     30225     30227
     30226     30227     30228     30229     30228     30230     30229     30230
     30231     30232     30231     30233     30232     30233     30234     30235
     30234     30236     30235     30236     30237     30238     30237     30239
     30238     30239     30240     30241     30240     30242     30241     30242
     30243     30244     30243     30245     30244     30245     30246     30247
     30246     30248     30247     30248     30249     30250     30249     30251
     30250     30251     30252     30253     30252     30254     30253     30254
     30255     30256     30255     30257     30256     30257     30258     30259
     30258     30260     30259     30260     30261     30262     30261     30263
     30262     30263     30264     30265     30264     30266     30265     30266
     30267     30268     30267     30269     30268     30269     30270     30271
     30270     30272     30271     30272     30273     30274     30273     30275
     30274     30275     30276     30277     30276     30278     30277     30278
     30279     30280     30279     30281     30280     30281     30282     30283
     30282     30284     30283     30284     30285     30286     30285     30287
     30286     30287     30288     30289     30288     30290     30289     30290
     30291     30292     30291     30293     30292     30293     30294     30295
     30294     30296     30295     30296     30297     30298     30297     30299
     30298     30299     30300     30301     30300     30302     30301     30302
     30303     30304     30303     30305     30304     30305     30306     30307
     30306     30308     30307     30308     30309     30310     30309     30311
     30310     30311     30312     30313     30312     30314     30313     30314
     30315     30316     30315     30317     30316     30317     30318     30319
     30318     30320     30319     30320     30321     30322     30321     30323
     30322     30323     30324     30325     30324     30326     30325     30326
     30327     30328     30327     30329     30328     30329     30330     30331
     30330     30332     30331     30332     30333     30334     30333     30335
     30334     30335     30336     30337     30336     30338     30337     30338
     30339     30340     30339     30341     30340     30341     30342     30343
     30342     30344     30343     30344     30345     30346     30345     30347
     30346     30347     30348     30349     30348     30350     30349     30350
     30351     30352     30351     30353     30352     30353     30354     30355
     30354     30356     30355     30356     30357     30358     30357     30359
     30358     30359     30360     30361     30360     30362     30361     30362
     30363     30364     30363     30365     30364     30365     30366     30367
     30366     30368     30367     30368     30369     30370     30369     30371
     30370     30371     30372     30373     30372     30374     30373     30374
     30375     30376     30375     30377     30376     30377     30378     30379
     30378     30380     30379     30380     30381     30382     30381     30383
     30382     30383     30384     30385     30384     30386     30385     30386
     30387     30388     30387     30389     30388     30389     30390     30391
     30390     30392     30391     30392     30393     30394     30393     30395
     30394     30395     30396     30397     30396     30398     30397     30398
     30399     30400     30399     30401     30400     30401     30402     30403
     30402     30404     30403     30404     30405     30406     30405     30407
     30406     30407     30408     30409     30408     30410     30409     30410
     30411     30412     30411     30413     30412     30413     30414     30415
     30414     30416     30415     30416     30417     30418     30417     30419
     30418     30419     30420     30421     30420     30422     30421     30422
     30423     30424     30423     30425     30424     30425     30426     30427
     30426     30428     30427     30428     30429     30430     30429     30431
     30430     30431     30432     30433     30432     30434     30433     30434
     30435     30436     30435     30437     30436     30437     30438     30439
     30438     30440     30439     30440     30441     30442     30441     30443
     30442     30443     30444     30445     30444     30446     30445     30446
     30447     30448     30447     30449     30448     30449     30450     30451
     30450     30452     30451     30452     30453     30454     30453     30455
     30454     30455     30456     30457     30456     30458     30457     30458
     30459     30460     30459     30461     30460     30461     30462     30463
     30462     30464     30463     30464     30465     30466     30465     30467
     30466     30467     30468     30469     30468     30470     30469     30470
     30471     30472     30471     30473     30472     30473     30474     30475
     30474     30476     30475     30476     30477     30478     30477     30479
     30478     30479     30480     30481     30480     30482     30481     30482
     30483     30484     30483     30485     30484     30485     30486     30487
     30486     30488     30487     30488     30489     30490     30489     30491
     30490     30491     30492     30493     30492     30494     30493     30494
     30495     30496     30495     30497     30496     30497     30498     30499
     30498     30500     30499     30500     30501     30502     30501     30503
     30502     30503     30504     30505     30504     30506     30505     30506
     30507     30508     30507     30509     30508     30509     30510     30511
     30510     30512     30511     30512     30513     30514     30513     30515
     30514     30515     30516     30517     30516     30518     30517     30518
     30519     30520     30519     30521     30520     30521     30522     30523
     30522     30524     30523     30524     30525     30526     30525     30527
     30526     30527     30528     30529     30528     30530     30529     30530
     30531     30532     30531     30533     30532     30533     30534     30535
     30534     30536     30535     30536     30537     30538     30537     30539
     30538     30539     30540     30541     30540     30542     30541     30542
     30543     30544     30543     30545     30544     30545     30546     30547
     30546     30548     30547     30548     30549     30550     30549     30551
     30550     30551     30552     30553     30552     30554     30553     30554
     30555     30556     30555     30557     30556     30557     30558     30559
     30558     30560     30559     30560     30561     30562     30561     30563
     30562     30563     30564     30565     30564     30566     30565     30566
     30567     30568     30567     30569     30568     30569     30570     30571
     30570     30572     30571     30572     30573     30574     30573     30575
     30574     30575     30576     30577     30576     30578     30577     30578
     30579     30580     30579     30581     30580     30581     30582     30583
     30582     30584     30583     30584     30585     30586     30585     30587
     30586     30587     30588     30589     30588     30590     30589     30590
     30591     30592     30591     30593     30592     30593     30594     30595
     30594     30596     30595     30596     30597     30598     30597     30599
     30598     30599     30600     30601     30600     30602     30601     30602
     30603     30604     30603     30605     30604     30605     30606     30607
     30606     30608     30607     30608     30609     30610     30609     30611
     30610     30611     30612     30613     30612     30614     30613     30614
     30615     30616     30615     30617     30616     30617     30618     30619
     30618     30620     30619     30620     30621     30622     30621     30623
     30622     30623     30624     30625     30624     30626     30625     30626
     30627     30628     30627     30629     30628     30629     30630     30631
     30630     30632     30631     30632     30633     30634     30633     30635
     30634     30635     30636     30637     30636     30638     30637     30638
     30639     30640     30639     30641     30640     30641     30642     30643
     30642     30644     30643     30644     30645     30646     30645     30647
     30646     30647     30648     30649     30648     30650     30649     30650
     30651     30652     30651     30653     30652     30653     30654     30655
     30654     30656     30655     30656     30657     30658     30657     30659
     30658     30659     30660     30661     30660     30662     30661     30662
     30663     30664     30663     30665     30664     30665     30666     30667
     30666     30668     30667     30668     30669     30670     30669     30671
     30670     30671     30672     30673     30672     30674     30673     30674
     30675     30676     30675     30677     30676     30677     30678     30679
     30678     30680     30679     30680     30681     30682     30681     30683
     30682     30683     30684     30685     30684     30686     30685     30686
     30687     30688     30687     30689     30688     30689     30690     30691
     30690     30692     30691     30692     30693     30694     30693     30695
     30694     30695     30696     30697     30696     30698     30697     30698
     30699     30700     30699     30701     30700     30701     30702     30703
     30702     30704     30703     30704     30705     30706     30705     30707
     30706     30707     30708     30709     30708     30710     30709     30710
     30711     30712     30711     30713     30712     30713     30714     30715
     30714     30716     30715     30716     30717     30718     30717     30719
     30718     30719     30720     30721     30720     30722     30721     30722
     30723     30724     30723     30725     30724     30725     30726     30727
     30726     30728     30727     30728     30729     30730     30729     30731
     30730     30731     30732     30733     30732     30734     30733     30734
     30735     30736     30735     30737     30736     30737     30738     30739
     30738     30740     30739     30740     30741     30742     30741     30743
     30742     30743     30744     30745     30744     30746     30745     30746
     30747     30748     30747     30749     30748     30749     30750     30751
     30750     30752     30751     30752     30753     30754     30753     30755
     30754     30755     30756     30757     30756     30758     30757     30758
     30759     30760     30759     30761     30760     30761     30762     30763
     30762     30764     30763     30764     30765     30766     30765     30767
     30766     30767     30768     30769     30768     30770     30769     30770
     30771     30772     30771     30773     30772     30773     30774     30775
     30774     30776     30775     30776     30777     30778     30777     30779
     30778     30779     30780     30781     30780     30782     30781     30782
     30783     30784     30783     30785     30784     30785     30786     30787
     30786     30788     30787     30788     30789     30790     30789     30791
     30790     30791     30792     30793     30792     30794     30793     30794
     30795     30796     30795     30797     30796     30797     30798     30799
     30798     30800     30799     30800     30801     30802     30801     30803
     30802     30803     30804     30805     30804     30806     30805     30806
     30807     30808     30807     30809     30808     30809     30810     30811
     30810     30812     30811     30812     30813     30814     30813     30815
     30814     30815     30816     30817     30816     30818     30817     30818
     30819     30820     30819     30821     30820     30821     30822     30823
     30822     30824     30823     30824     30825     30826     30825     30827
     30826     30827     30828     30829     30828     30830     30829     30830
     30831     30832     30831     30833     30832     30833     30834     30835
     30834     30836     30835     30836     30837     30838     30837     30839
     30838     30839     30840     30841     30840     30842     30841     30842
     30843     30844     30843     30845     30844     30845     30846     30847
     30846     30848     30847     30848     30849     30850     30849     30851
     30850     30851     30852     30853     30852     30854     30853     30854
     30855     30856     30855     30857     30856     30857     30858     30859
     30858     30860     30859     30860     30861     30862     30861     30863
     30862     30863     30864     30865     30864     30866     30865     30866
     30867     30868     30867     30869     30868     30869     30870     30871
     30870     30872     30871     30872     30873     30874     30873     30875
     30874     30875     30876     30877     30876     30878     30877     30878
     30879     30880     30879     30881     30880     30881     30882     30883
     30882     30884     30883     30884     30885     30886     30885     30887
     30886     30887     30888     30889     30888     30890     30889     30890
     30891     30892     30891     30893     30892     30893     30894     30895
     30894     30896     30895     30896     30897     30898     30897     30899
     30898     30899     30900     30901     30900     30902     30901     30902
     30903     30904     30903     30905     30904     30905     30906     30907
     30906     30908     30907     30908     30909     30910     30909     30911
     30910     30911     30912     30913     30912     30914     30913     30914
     30915     30916     30915     30917     30916     30917     30918     30919
     30918     30920     30919     30920     30921     30922     30921     30923
     30922     30923     30924     30925     30924     30926     30925     30926
     30927     30928     30927     30929     30928     30929     30930     30931
     30930     30932     30931     30932     30933     30934     30933     30935
     30934     30935     30936     30937     30936     30938     30937     30938
     30939     30940     30939     30941     30940     30941     30942     30943
     30942     30944     30943     30944     30945     30946     30945     30947
     30946     30947     30948     30949     30948     30950     30949     30950
     30951     30952     30951     30953     30952     30953     30954     30955
     30954     30956     30955     30956     30957     30958     30957     30959
     30958     30959     30960     30961     30960     30962     30961     30962
     30963     30964     30963     30965     30964     30965     30966     30967
     30966     30968     30967     30968     30969     30970     30969     30971
     30970     30971     30972     30973     30972     30974     30973     30974
     30975     30976     30975     30977     30976     30977     30978     30979
     30978     30980     30979     30980     30981     30982     30981     30983
     30982     30983     30984     30985     30984     30986     30985     30986
     30987     30988     30987     30989     30988     30989     30990     30991
     30990     30992     30991     30992     30993     30994     30993     30995
     30994     30995     30996     30997     30996     30998     30997     30998
     30999     31000     30999     31001     31000     31001     31002     31003
     31002     31004     31003     31004     31005     31006     31005     31007
     31006     31007     31008     31009     31008     31010     31009     31010
     31011     31012     31011     31013     31012     31013     31014     31015
     31014     31016     31015     31016     31017     31018     31017     31019
     31018     31019     31020     31021     31020     31022     31021     31022
     31023     31024     31023     31025     31024     31025     31026     31027
     31026     31028     31027     31028     31029     31030     31029     31031
     31030     31031     31032     31033     31032     31034     31033     31034
     31035     31036     31035     31037     31036     31037     31038     31039
     31038     31040     31039     31040     31041     31042     31041     31043
     31042     31043     31044     31045     31044     31046     31045     31046
     31047     31048     31047     31049     31048     31049     31050     31051
     31050     31052     31051     31052     31053     31054     31053     31055
     31054     31055     31056     31057     31056     31058     31057     31058
     31059     31060     31059     31061     31060     31061     31062     31063
     31062     31064     31063     31064     31065     31066     31065     31067
     31066     31067     31068     31069     31068     31070     31069     31070
     31071     31072     31071     31073     31072     31073     31074     31075
     31074     31076     31075     31076     31077     31078     31077     31079
     31078     31079     31080     31081     31080     31082     31081     31082
     31083     31084     31083     31085     31084     31085     31086     31087
     31086     31088     31087     31088     31089     31090     31089     31091
     31090     31091     31092     31093     31092     31094     31093     31094
     31095     31096     31095     31097     31096     31097     31098     31099
     31098     31100     31099     31100     31101     31102     31101     31103
     31102     31103     31104     31105     31104     31106     31105     31106
     31107     31108     31107     31109     31108     31109     31110     31111
     31110     31112     31111     31112     31113     31114     31113     31115
     31114     31115     31116     31117     31116     31118     31117     31118
     31119     31120     31119     31121     31120     31121     31122     31123
     31122     31124     31123     31124     31125     31126     31125     31127
     31126     31127     31128     31129     31128     31130     31129     31130
     31131     31132     31131     31133     31132     31133     31134     31135
     31134     31136     31135     31136     31137     31138     31137     31139
     31138     31139     31140     31141     31140     31142     31141     31142
     31143     31144     31143     31145     31144     31145     31146     31147
     31146     31148     31147     31148     31149     31150     31149     31151
     31150     31151     31152     31153     31152     31154     31153     31154
     31155     31156     31155     31157     31156     31157     31158     31159
     31158     31160     31159     31160     31161     31162     31161     31163
     31162     31163     31164     31165     31164     31166     31165     31166
     31167     31168     31167     31169     31168     31169     31170     31171
     31170     31172     31171     31172     31173     31174     31173     31175
     31174     31175     31176     31177     31176     31178     31177     31178
     31179     31180     31179     31181     31180     31181     31182     31183
     31182     31184     31183     31184     31185     31186     31185     31187
     31186     31187     31188     31189     31188     31190     31189     31190
     31191     31192     31191     31193     31192     31193     31194     31195
     31194     31196     31195     31196     31197     31198     31197     31199
     31198     31199     31200     31201     31200     31202     31201     31202
     31203     31204     31203     31205     31204     31205     31206     31207
     31206     31208     31207     31208     31209     31210     31209     31211
     31210     31211     31212     31213     31212     31214     31213     31214
     31215     31216     31215     31217     31216     31217     31218     31219
     31218     31220     31219     31220     31221     31222     31221     31223
     31222     31223     31224     31225     31224     31226     31225     31226
     31227     31228     31227     31229     31228     31229     31230     31231
     31230     31232     31231     31232     31233     31234     31233     31235
     31234     31235     31236     31237     31236     31238     31237     31238
     31239     31240     31239     31241     31240     31241     31242     31243
     31242     31244     31243     31244     31245     31246     31245     31247
     31246     31247     31248     31249     31248     31250     31249     31250
     31251     31252     31251     31253     31252     31253     31254     31255
     31254     31256     31255     31256     31257     31258     31257     31259
     31258     31259     31260     31261     31260     31262     31261     31262
     31263     31264     31263     31265     31264     31265     31266     31267
     31266     31268     31267     31268     31269     31270     31269     31271
     31270     31271     31272     31273     31272     31274     31273     31274
     31275     31276     31275     31277     31276     31277     31278     31279
     31278     31280     31279     31280     31281     31282     31281     31283
     31282     31283     31284     31285     31284     31286     31285     31286
     31287     31288     31287     31289     31288     31289     31290     31291
     31290     31292     31291     31292     31293     31294     31293     31295
     31294     31295     31296     31297     31296     31298     31297     31298
     31299     31300     31299     31301     31300     31301     31302     31303
     31302     31304     31303     31304     31305     31306     31305     31307
     31306     31307     31308     31309     31308     31310     31309     31310
     31311     31312     31311     31313     31312     31313     31314     31315
     31314     31316     31315     31316     31317     31318     31317     31319
     31318     31319     31320     31321     31320     31322     31321     31322
     31323     31324     31323     31325     31324     31325     31326     31327
     31326     31328     31327     31328     31329     31330     31329     31331
     31330     31331     31332     31333     31332     31334     31333     31334
     31335     31336     31335     31337     31336     31337     31338     31339
     31338     31340     31339     31340     31341     31342     31341     31343
     31342     31343     31344     31345     31344     31346     31345     31346
     31347     31348     31347     31349     31348     31349     31350     31351
     31350     31352     31351     31352     31353     31354     31353     31355
     31354     31355     31356     31357     31356     31358     31357     31358
     31359     31360     31359     31361     31360     31361     31362     31363
     31362     31364     31363     31364     31365     31366     31365     31367
     31366     31367     31368     31369     31368     31370     31369     31370
     31371     31372     31371     31373     31372     31373     31374     31375
     31374     31376     31375     31376     31377     31378     31377     31379
     31378     31379     31380     31381     31380     31382     31381     31382
     31383     31384     31383     31385     31384     31385     31386     31387
     31386     31388     31387     31388     31389     31390     31389     31391
     31390     31391     31392     31393     31392     31394     31393     31394
     31395     31396     31395     31397     31396     31397     31398     31399
     31398     31400     31399     31400     31401     31402     31401     31403
     31402     31403     31404     31405     31404     31406     31405     31406
     31407     31408     31407     31409     31408     31409     31410     31411
     31410     31412     31411     31412     31413     31414     31413     31415
     31414     31415     31416     31417     31416     31418     31417     31418
     31419     31420     31419     31421     31420     31421     31422     31423
     31422     31424     31423     31424     31425     31426     31425     31427
     31426     31427     31428     31429     31428     31430     31429     31430
     31431     31432     31431     31433     31432     31433     31434     31435
     31434     31436     31435     31436     31437     31438     31437     31439
     31438     31439     31440     31441     31440     31442     31441     31442
     31443     31444     31443     31445     31444     31445     31446     31447
     31446     31448     31447     31448     31449     31450     31449     31451
     31450     31451     31452     31453     31452     31454     31453     31454
     31455     31456     31455     31457     31456     31457     31458     31459
     31458     31460     31459     31460     31461     31462     31461     31463
     31462     31463     31464     31465     31464     31466     31465     31466
     31467     31468     31467     31469     31468     31469     31470     31471
     31470     31472     31471     31472     31473     31474     31473     31475
     31474     31475     31476     31477     31476     31478     31477     31478
     31479     31480     31479     31481     31480     31481     31482     31483
     31482     31484     31483     31484     31485     31486     31485     31487
     31486     31487     31488     31489     31488     31490     31489     31490
     31491     31492     31491     31493     31492     31493     31494     31495
     31494     31496     31495     31496     31497     31498     31497     31499
     31498     31499     31500     31501     31500     31502     31501     31502
     31503     31504     31503     31505     31504     31505     31506     31507
     31506     31508     31507     31508     31509     31510     31509     31511
     31510     31511     31512     31513     31512     31514     31513     31514
     31515     31516     31515     31517     31516     31517     31518     31519
     31518     31520     31519     31520     31521     31522     31521     31523
     31522     31523     31524     31525     31524     31526     31525     31526
     31527     31528     31527     31529     31528     31529     31530     31531
     31530     31532     31531     31532     31533     31534     31533     31535
     31534     31535     31536     31537     31536     31538     31537     31538
     31539     31540     31539     31541     31540     31541     31542     31543
     31542     31544     31543     31544     31545     31546     31545     31547
     31546     31547     31548     31549     31548     31550     31549     31550
     31551     31552     31551     31553     31552     31553     31554     31555
     31554     31556     31555     31556     31557     31558     31557     31559
     31558     31559     31560     31561     31560     31562     31561     31562
     31563     31564     31563     31565     31564     31565     31566     31567
     31566     31568     31567     31568     31569     31570     31569     31571
     31570     31571     31572     31573     31572     31574     31573     31574
     31575     31576     31575     31577     31576     31577     31578     31579
     31578     31580     31579     31580     31581     31582     31581     31583
     31582     31583     31584     31585     31584     31586     31585     31586
     31587     31588     31587     31589     31588     31589     31590     31591
     31590     31592     31591     31592     31593     31594     31593     31595
     31594     31595     31596     31597     31596     31598     31597     31598
     31599     31600     31599     31601     31600     31601     31602     31603
     31602     31604     31603     31604     31605     31606     31605     31607
     31606     31607     31608     31609     31608     31610     31609     31610
     31611     31612     31611     31613     31612     31613     31614     31615
     31614     31616     31615     31616     31617     31618     31617     31619
     31618     31619     31620     31621     31620     31622     31621     31622
     31623     31624     31623     31625     31624     31625     31626     31627
     31626     31628     31627     31628     31629     31630     31629     31631
     31630     31631     31632     31633     31632     31634     31633     31634
     31635     31636     31635     31637     31636     31637     31638     31639
     31638     31640     31639     31640     31641     31642     31641     31643
     31642     31643     31644     31645     31644     31646     31645     31646
     31647     31648     31647     31649     31648     31649     31650     31651
     31650     31652     31651     31652     31653     31654     31653     31655
     31654     31655     31656     31657     31656     31658     31657     31658
     31659     31660     31659     31661     31660     31661     31662     31663
     31662     31664     31663     31664     31665     31666     31665     31667
     31666     31667     31668     31669     31668     31670     31669     31670
     31671     31672     31671     31673     31672     31673     31674     31675
     31674     31676     31675     31676     31677     31678     31677     31679
     31678     31679     31680     31681     31680     31682     31681     31682
     31683     31684     31683     31685     31684     31685     31686     31687
     31686     31688     31687     31688     31689     31690     31689     31691
     31690     31691     31692     31693     31692     31694     31693     31694
     31695     31696     31695     31697     31696     31697     31698     31699
     31698     31700     31699     31700     31701     31702     31701     31703
     31702     31703     31704     31705     31704     31706     31705     31706
     31707     31708     31707     31709     31708     31709     31710     31711
     31710     31712     31711     31712     31713     31714     31713     31715
     31714     31715     31716     31717     31716     31718     31717     31718
     31719     31720     31719     31721     31720     31721     31722     31723
     31722     31724     31723     31724     31725     31726     31725     31727
     31726     31727     31728     31729     31728     31730     31729     31730
     31731     31732     31731     31733     31732     31733     31734     31735
     31734     31736     31735     31736     31737     31738     31737     31739
     31738     31739     31740     31741     31740     31742     31741     31742
     31743     31744     31743     31745     31744     31745     31746     31747
     31746     31748     31747     31748     31749     31750     31749     31751
     31750     31751     31752     31753     31752     31754     31753     31754
     31755     31756     31755     31757     31756     31757     31758     31759
     31758     31760     31759     31760     31761     31762     31761     31763
     31762     31763     31764     31765     31764     31766     31765     31766
     31767     31768     31767     31769     31768     31769     31770     31771
     31770     31772     31771     31772     31773     31774     31773     31775
     31774     31775     31776     31777     31776     31778     31777     31778
     31779     31780     31779     31781     31780     31781     31782     31783
     31782     31784     31783     31784     31785     31786     31785     31787
     31786     31787     31788     31789     31788     31790     31789     31790
     31791     31792     31791     31793     31792     31793     31794     31795
     31794     31796     31795     31796     31797     31798     31797     31799
     31798     31799     31800     31801     31800     31802     31801     31802
     31803     31804     31803     31805     31804     31805     31806     31807
     31806     31808     31807     31808     31809     31810     31809     31811
     31810     31811     31812     31813     31812     31814     31813     31814
     31815     31816     31815     31817     31816     31817     31818     31819
     31818     31820     31819     31820     31821     31822     31821     31823
     31822     31823     31824     31825     31824     31826     31825     31826
     31827     31828     31827     31829     31828     31829     31830     31831
     31830     31832     31831     31832     31833     31834     31833     31835
     31834     31835     31836     31837     31836     31838     31837     31838
     31839     31840     31839     31841     31840     31841     31842     31843
     31842     31844     31843     31844     31845     31846     31845     31847
     31846     31847     31848     31849     31848     31850     31849     31850
     31851     31852     31851     31853     31852     31853     31854     31855
     31854     31856     31855     31856     31857     31858     31857     31859
     31858     31859     31860     31861     31860     31862     31861     31862
     31863     31864     31863     31865     31864     31865     31866     31867
     31866     31868     31867     31868     31869     31870     31869     31871
     31870     31871     31872     31873     31872     31874     31873     31874
     31875     31876     31875     31877     31876     31877     31878     31879
     31878     31880     31879     31880     31881     31882     31881     31883
     31882     31883     31884     31885     31884     31886     31885     31886
     31887     31888     31887     31889     31888     31889     31890     31891
     31890     31892     31891     31892     31893     31894     31893     31895
     31894     31895     31896     31897     31896     31898     31897     31898
     31899     31900     31899     31901     31900     31901     31902     31903
     31902     31904     31903     31904     31905     31906     31905     31907
     31906     31907     31908     31909     31908     31910     31909     31910
     31911     31912     31911     31913     31912     31913     31914     31915
     31914     31916     31915     31916     31917     31918     31917     31919
     31918     31919     31920     31921     31920     31922     31921     31922
     31923     31924     31923     31925     31924     31925     31926     31927
     31926     31928     31927     31928     31929     31930     31929     31931
     31930     31931     31932     31933     31932     31934     31933     31934
     31935     31936     31935     31937     31936     31937     31938     31939
     31938     31940     31939     31940     31941     31942     31941     31943
     31942     31943     31944     31945     31944     31946     31945     31946
     31947     31948     31947     31949     31948     31949     31950     31951
     31950     31952     31951     31952     31953     31954     31953     31955
     31954     31955     31956     31957     31956     31958     31957     31958
     31959     31960     31959     31961     31960     31961     31962     31963
     31962     31964     31963     31964     31965     31966     31965     31967
     31966     31967     31968     31969     31968     31970     31969     31970
     31971     31972     31971     31973     31972     31973     31974     31975
     31974     31976     31975     31976     31977     31978     31977     31979
     31978     31979     31980     31981     31980     31982     31981     31982
     31983     31984     31983     31985     31984     31985     31986     31987
     31986     31988     31987     31988     31989     31990     31989     31991
     31990     31991     31992     31993     31992     31994     31993     31994
     31995     31996     31995     31997     31996     31997     31998     31999
     31998     32000     31999     32000     32001     32002     32001     32003
     32002     32003     32004     32005     32004     32006     32005     32006
     32007     32008     32007     32009     32008     32009     32010     32011
     32010     32012     32011     32012     32013     32014     32013     32015
     32014     32015     32016     32017     32016     32018     32017     32018
     32019     32020     32019     32021     32020     32021     32022     32023
     32022     32024     32023     32024     32025     32026     32025     32027
     32026     32027     32028     32029     32028     32030     32029     32030
     32031     32032     32031     32033     32032     32033     32034     32035
     32034     32036     32035     32036     32037     32038     32037     32039
     32038     32039     32040     32041     32040     32042     32041     32042
     32043     32044     32043     32045     32044     32045     32046     32047
     32046     32048     32047     32048     32049     32050     32049     32051
     32050     32051     32052     32053     32052     32054     32053     32054
     32055     32056     32055     32057     32056     32057     32058     32059
     32058     32060     32059     32060     32061     32062     32061     32063
     32062     32063     32064     32065     32064     32066     32065     32066
     32067     32068     32067     32069     32068     32069     32070     32071
     32070     32072     32071     32072     32073     32074     32073     32075
     32074     32075     32076     32077     32076     32078     32077     32078
     32079     32080     32079     32081     32080     32081     32082     32083
     32082     32084     32083     32084     32085     32086     32085     32087
     32086     32087     32088     32089     32088     32090     32089     32090
     32091     32092     32091     32093     32092     32093     32094     32095
     32094     32096     32095     32096     32097     32098     32097     32099
     32098     32099     32100     32101     32100     32102     32101     32102
     32103     32104     32103     32105     32104     32105     32106     32107
     32106     32108     32107     32108     32109     32110     32109     32111
     32110     32111     32112     32113     32112     32114     32113     32114
     32115     32116     32115     32117     32116     32117     32118     32119
     32118     32120     32119     32120     32121     32122     32121     32123
     32122     32123     32124     32125     32124     32126     32125     32126
     32127     32128     32127     32129     32128     32129     32130     32131
     32130     32132     32131     32132     32133     32134     32133     32135
     32134     32135     32136     32137     32136     32138     32137     32138
     32139     32140     32139     32141     32140     32141     32142     32143
     32142     32144     32143     32144     32145     32146     32145     32147
     32146     32147     32148     32149     32148     32150     32149     32150
     32151     32152     32151     32153     32152     32153     32154     32155
     32154     32156     32155     32156     32157     32158     32157     32159
     32158     32159     32160     32161     32160     32162     32161     32162
     32163     32164     32163     32165     32164     32165     32166     32167
     32166     32168     32167     32168     32169     32170     32169     32171
     32170     32171     32172     32173     32172     32174     32173     32174
     32175     32176     32175     32177     32176     32177     32178     32179
     32178     32180     32179     32180     32181     32182     32181     32183
     32182     32183     32184     32185     32184     32186     32185     32186
     32187     32188     32187     32189     32188     32189     32190     32191
     32190     32192     32191     32192     32193     32194     32193     32195
     32194     32195     32196     32197     32196     32198     32197     32198
     32199     32200     32199     32201     32200     32201     32202     32203
     32202     32204     32203     32204     32205     32206     32205     32207
     32206     32207     32208     32209     32208     32210     32209     32210
     32211     32212     32211     32213     32212     32213     32214     32215
     32214     32216     32215     32216     32217     32218     32217     32219
     32218     32219     32220     32221     32220     32222     32221     32222
     32223     32224     32223     32225     32224     32225     32226     32227
     32226     32228     32227     32228     32229     32230     32229     32231
     32230     32231     32232     32233     32232     32234     32233     32234
     32235     32236     32235     32237     32236     32237     32238     32239
     32238     32240     32239     32240     32241     32242     32241     32243
     32242     32243     32244     32245     32244     32246     32245     32246
     32247     32248     32247     32249     32248     32249     32250     32251
     32250     32252     32251     32252     32253     32254     32253     32255
     32254     32255     32256     32257     32256     32258     32257     32258
     32259     32260     32259     32261     32260     32261     32262     32263
     32262     32264     32263     32264     32265     32266     32265     32267
     32266     32267     32268     32269     32268     32270     32269     32270
     32271     32272     32271     32273     32272     32273     32274     32275
     32274     32276     32275     32276     32277     32278     32277     32279
     32278     32279     32280     32281     32280     32282     32281     32282
     32283     32284     32283     32285     32284     32285     32286     32287
     32286     32288     32287     32288     32289     32290     32289     32291
     32290     32291     32292     32293     32292     32294     32293     32294
     32295     32296     32295     32297     32296     32297     32298     32299
     32298     32300     32299     32300     32301     32302     32301     32303
     32302     32303     32304     32305     32304     32306     32305     32306
     32307     32308     32307     32309     32308     32309     32310     32311
     32310     32312     32311     32312     32313     32314     32313     32315
     32314     32315     32316     32317     32316     32318     32317     32318
     32319     32320     32319     32321     32320     32321     32322     32323
     32322     32324     32323     32324     32325     32326     32325     32327
     32326     32327     32328     32329     32328     32330     32329     32330
     32331     32332     32331     32333     32332     32333     32334     32335
     32334     32336     32335     32336     32337     32338     32337     32339
     32338     32339     32340     32341     32340     32342     32341     32342
     32343     32344     32343     32345     32344     32345     32346     32347
     32346     32348     32347     32348     32349     32350     32349     32351
     32350     32351     32352     32353     32352     32354     32353     32354
     32355     32356     32355     32357     32356     32357     32358     32359
     32358     32360     32359     32360     32361     32362     32361     32363
     32362     32363     32364     32365     32364     32366     32365     32366
     32367     32368     32367     32369     32368     32369     32370     32371
     32370     32372     32371     32372     32373     32374     32373     32375
     32374     32375     32376     32377     32376     32378     32377     32378
     32379     32380     32379     32381     32380     32381     32382     32383
     32382     32384     32383     32384     32385     32386     32385     32387
     32386     32387     32388     32389     32388     32390     32389     32390
     32391     32392     32391     32393     32392     32393     32394     32395
     32394     32396     32395     32396     32397     32398     32397     32399
     32398     32399     32400     32401     32400     32402     32401     32402
     32403     32404     32403     32405     32404     32405     32406     32407
     32406     32408     32407     32408     32409     32410     32409     32411
     32410     32411     32412     32413     32412     32414     32413     32414
     32415     32416     32415     32417     32416     32417     32418     32419
     32418     32420     32419     32420     32421     32422     32421     32423
     32422     32423     32424     32425     32424     32426     32425     32426
     32427     32428     32427     32429     32428     32429     32430     32431
     32430     32432     32431     32432     32433     32434     32433     32435
     32434     32435     32436     32437     32436     32438     32437     32438
     32439     32440     32439     32441     32440     32441     32442     32443
     32442     32444     32443     32444     32445     32446     32445     32447
     32446     32447     32448     32449     32448     32450     32449     32450
     32451     32452     32451     32453     32452     32453     32454     32455
     32454     32456     32455     32456     32457     32458     32457     32459
     32458     32459     32460     32461     32460     32462     32461     32462
     32463     32464     32463     32465     32464     32465     32466     32467
     32466     32468     32467     32468     32469     32470     32469     32471
     32470     32471     32472     32473     32472     32474     32473     32474
     32475     32476     32475     32477     32476     32477     32478     32479
     32478     32480     32479     32480     32481     32482     32481     32483
     32482     32483     32484     32485     32484     32486     32485     32486
     32487     32488     32487     32489     32488     32489     32490     32491
     32490     32492     32491     32492     32493     32494     32493     32495
     32494     32495     32496     32497     32496     32498     32497     32498
     32499     32500     32499     32501     32500     32501     32502     32503
     32502     32504     32503     32504     32505     32506     32505     32507
     32506     32507     32508     32509     32508     32510     32509     32510
     32511     32512     32511     32513     32512     32513     32514     32515
     32514     32516     32515     32516     32517     32518     32517     32519
     32518     32519     32520     32521     32520     32522     32521     32522
     32523     32524     32523     32525     32524     32525     32526     32527
     32526     32528     32527     32528     32529     32530     32529     32531
     32530     32531     32532     32533     32532     32534     32533     32534
     32535     32536     32535     32537     32536     32537     32538     32539
     32538     32540     32539     32540     32541     32542     32541     32543
     32542     32543     32544     32545     32544     32546     32545     32546
     32547     32548     32547     32549     32548     32549     32550     32551
     32550     32552     32551     32552     32553     32554     32553     32555
     32554     32555     32556     32557     32556     32558     32557     32558
     32559     32560     32559     32561     32560     32561     32562     32563
     32562     32564     32563     32564     32565     32566     32565     32567
     32566     32567     32568     32569     32568     32570     32569     32570
     32571     32572     32571     32573     32572     32573     32574     32575
     32574     32576     32575     32576     32577     32578     32577     32579
     32578     32579     32580     32581     32580     32582     32581     32582
     32583     32584     32583     32585     32584     32585     32586     32587
     32586     32588     32587     32588     32589     32590     32589     32591
     32590     32591     32592     32593     32592     32594     32593     32594
     32595     32596     32595     32597     32596     32597     32598     32599
     32598     32600     32599     32600     32601     32602     32601     32603
     32602     32603     32604     32605     32604     32606     32605     32606
     32607     32608     32607     32609     32608     32609     32610     32611
     32610     32612     32611     32612     32613     32614     32613     32615
     32614     32615     32616     32617     32616     32618     32617     32618
     32619     32620     32619     32621     32620     32621     32622     32623
     32622     32624     32623     32624     32625     32626     32625     32627
     32626     32627     32628     32629     32628     32630     32629     32630
     32631     32632     32631     32633     32632     32633     32634     32635
     32634     32636     32635     32636     32637     32638     32637     32639
     32638     32639     32640     32641     32640     32642     32641     32642
     32643     32644     32643     32645     32644     32645     32646     32647
     32646     32648     32647     32648     32649     32650     32649     32651
     32650     32651     32652     32653     32652     32654     32653     32654
     32655     32656     32655     32657     32656     32657     32658     32659
     32658     32660     32659     32660     32661     32662     32661     32663
     32662     32663     32664     32665     32664     32666     32665     32666
     32667     32668     32667     32669     32668     32669     32670     32671
     32670     32672     32671     32672     32673     32674     32673     32675
     32674     32675     32676     32677     32676     32678     32677     32678
     32679     32680     32679     32681     32680     32681     32682     32683
     32682     32684     32683     32684     32685     32686     32685     32687
     32686     32687     32688     32689     32688     32690     32689     32690
     32691     32692     32691     32693     32692     32693     32694     32695
     32694     32696     32695     32696     32697     32698     32697     32699
     32698     32699     32700     32701     32700     32702     32701     32702
     32703     32704     32703     32705     32704     32705     32706     32707
     32706     32708     32707     32708     32709     32710     32709     32711
     32710     32711     32712     32713     32712     32714     32713     32714
     32715     32716     32715     32717     32716     32717     32718     32719
     32718     32720     32719     32720     32721     32722     32721     32723
     32722     32723     32724     32725     32724     32726     32725     32726
     32727     32728     32727     32729     32728     32729     32730     32731
     32730     32732     32731     32732     32733     32734     32733     32735
     32734     32735     32736     32737     32736     32738     32737     32738
     32739     32740     32739     32741     32740     32741     32742     32743
     32742     32744     32743     32744     32745     32746     32745     32747
     32746     32747     32748     32749     32748     32750     32749     32750
     32751     32752     32751     32753     32752     32753     32754     32755
     32754     32756     32755     32756     32757     32758     32757     32759
     32758     32759     32760     32761     32760     32762     32761     32762
     32763     32764     32763     32765     32764     32765     32766     32767
     32766     32768     32767     32768     32769     32770     32769     32771
     32770     32771     32772     32773     32772     32774     32773     32774
     32775     32776     32775     32777     32776     32777     32778     32779
     32778     32780     32779     32780     32781     32782     32781     32783
     32782     32783     32784     32785     32784     32786     32785     32786
     32787     32788     32787     32789     32788     32789     32790     32791
     32790     32792     32791     32792     32793     32794     32793     32795
     32794     32795     32796     32797     32796     32798     32797     32798
     32799     32800     32799     32801     32800     32801     32802     32803
     32802     32804     32803     32804     32805     32806     32805     32807
     32806     32807     32808     32809     32808     32810     32809     32810
     32811     32812     32811     32813     32812     32813     32814     32815
     32814     32816     32815     32816     32817     32818     32817     32819
     32818     32819     32820     32821     32820     32822     32821     32822
     32823     32824     32823     32825     32824     32825     32826     32827
     32826     32828     32827     32828     32829     32830     32829     32831
     32830     32831     32832     32833     32832     32834     32833     32834
     32835     32836     32835     32837     32836     32837     32838     32839
     32838     32840     32839     32840     32841     32842     32841     32843
     32842     32843     32844     32845     32844     32846     32845     32846
     32847     32848     32847     32849     32848     32849     32850     32851
     32850     32852     32851     32852     32853     32854     32853     32855
     32854     32855     32856     32857     32856     32858     32857     32858
     32859     32860     32859     32861     32860     32861     32862     32863
     32862     32864     32863     32864     32865     32866     32865     32867
     32866     32867     32868     32869     32868     32870     32869     32870
     32871     32872     32871     32873     32872     32873     32874     32875
     32874     32876     32875     32876     32877     32878     32877     32879
     32878     32879     32880     32881     32880     32882     32881     32882
     32883     32884     32883     32885     32884     32885     32886     32887
     32886     32888     32887     32888     32889     32890     32889     32891
     32890     32891     32892     32893     32892     32894     32893     32894
     32895     32896     32895     32897     32896     32897     32898     32899
     32898     32900     32899     32900     32901     32902     32901     32903
     32902     32903     32904     32905     32904     32906     32905     32906
     32907     32908     32907     32909     32908     32909     32910     32911
     32910     32912     32911     32912     32913     32914     32913     32915
     32914     32915     32916     32917     32916     32918     32917     32918
     32919     32920     32919     32921     32920     32921     32922     32923
     32922     32924     32923     32924     32925     32926     32925     32927
     32926     32927     32928     32929     32928     32930     32929     32930
     32931     32932     32931     32933     32932     32933     32934     32935
     32934     32936     32935     32936     32937     32938     32937     32939
     32938     32939     32940     32941     32940     32942     32941     32942
     32943     32944     32943     32945     32944     32945     32946     32947
     32946     32948     32947     32948     32949     32950     32949     32951
     32950     32951     32952     32953     32952     32954     32953     32954
     32955     32956     32955     32957     32956     32957     32958     32959
     32958     32960     32959     32960     32961     32962     32961     32963
     32962     32963     32964     32965     32964     32966     32965     32966
     32967     32968     32967     32969     32968     32969     32970     32971
     32970     32972     32971     32972     32973     32974     32973     32975
     32974     32975     32976     32977     32976     32978     32977     32978
     32979     32980     32979     32981     32980     32981     32982     32983
     32982     32984     32983     32984     32985     32986     32985     32987
     32986     32987     32988     32989     32988     32990     32989     32990
     32991     32992     32991     32993     32992     32993     32994     32995
     32994     32996     32995     32996     32997     32998     32997     32999
     32998     32999     33000     33001     33000     33002     33001     33002
     33003     33004     33003     33005     33004     33005     33006     33007
     33006     33008     33007     33008     33009     33010     33009     33011
     33010     33011     33012     33013     33012     33014     33013     33014
     33015     33016     33015     33017     33016     33017     33018     33019
     33018     33020     33019     33020     33021     33022     33021     33023
     33022     33023     33024     33025     33024     33026     33025     33026
     33027     33028     33027     33029     33028     33029     33030     33031
     33030     33032     33031     33032     33033     33034     33033     33035
     33034     33035     33036     33037     33036     33038     33037     33038
     33039     33040     33039     33041     33040     33041     33042     33043
     33042     33044     33043     33044     33045     33046     33045     33047
     33046     33047     33048     33049     33048     33050     33049     33050
     33051     33052     33051     33053     33052     33053     33054     33055
     33054     33056     33055     33056     33057     33058     33057     33059
     33058     33059     33060     33061     33060     33062     33061     33062
     33063     33064     33063     33065     33064     33065     33066     33067
     33066     33068     33067     33068     33069     33070     33069     33071
     33070     33071     33072     33073     33072     33074     33073     33074
     33075     33076     33075     33077     33076     33077     33078     33079
     33078     33080     33079     33080     33081     33082     33081     33083
     33082     33083     33084     33085     33084     33086     33085     33086
     33087     33088     33087     33089     33088     33089     33090     33091
     33090     33092     33091     33092     33093     33094     33093     33095
     33094     33095     33096     33097     33096     33098     33097     33098
     33099     33100     33099     33101     33100     33101     33102     33103
     33102     33104     33103     33104     33105     33106     33105     33107
     33106     33107     33108     33109     33108     33110     33109     33110
     33111     33112     33111     33113     33112     33113     33114     33115
     33114     33116     33115     33116     33117     33118     33117     33119
     33118     33119     33120     33121     33120     33122     33121     33122
     33123     33124     33123     33125     33124     33125     33126     33127
     33126     33128     33127     33128     33129     33130     33129     33131
     33130     33131     33132     33133     33132     33134     33133     33134
     33135     33136     33135     33137     33136     33137     33138     33139
     33138     33140     33139     33140     33141     33142     33141     33143
     33142     33143     33144     33145     33144     33146     33145     33146
     33147     33148     33147     33149     33148     33149     33150     33151
     33150     33152     33151     33152     33153     33154     33153     33155
     33154     33155     33156     33157     33156     33158     33157     33158
     33159     33160     33159     33161     33160     33161     33162     33163
     33162     33164     33163     33164     33165     33166     33165     33167
     33166     33167     33168     33169     33168     33170     33169     33170
     33171     33172     33171     33173     33172     33173     33174     33175
     33174     33176     33175     33176     33177     33178     33177     33179
     33178     33179     33180     33181     33180     33182     33181     33182
     33183     33184     33183     33185     33184     33185     33186     33187
     33186     33188     33187     33188     33189     33190     33189     33191
     33190     33191     33192     33193     33192     33194     33193     33194
     33195     33196     33195     33197     33196     33197     33198     33199
     33198     33200     33199     33200     33201     33202     33201     33203
     33202     33203     33204     33205     33204     33206     33205     33206
     33207     33208     33207     33209     33208     33209     33210     33211
     33210     33212     33211     33212     33213     33214     33213     33215
     33214     33215     33216     33217     33216     33218     33217     33218
     33219     33220     33219     33221     33220     33221     33222     33223
     33222     33224     33223     33224     33225     33226     33225     33227
     33226     33227     33228     33229     33228     33230     33229     33230
     33231     33232     33231     33233     33232     33233     33234     33235
     33234     33236     33235     33236     33237     33238     33237     33239
     33238     33239     33240     33241     33240     33242     33241     33242
     33243     33244     33243     33245     33244     33245     33246     33247
     33246     33248     33247     33248     33249     33250     33249     33251
     33250     33251     33252     33253     33252     33254     33253     33254
     33255     33256     33255     33257     33256     33257     33258     33259
     33258     33260     33259     33260     33261     33262     33261     33263
     33262     33263     33264     33265     33264     33266     33265     33266
     33267     33268     33267     33269     33268     33269     33270     33271
     33270     33272     33271     33272     33273     33274     33273     33275
     33274     33275     33276     33277     33276     33278     33277     33278
     33279     33280     33279     33281     33280     33281     33282     33283
     33282     33284     33283     33284     33285     33286     33285     33287
     33286     33287     33288     33289     33288     33290     33289     33290
     33291     33292     33291     33293     33292     33293     33294     33295
     33294     33296     33295     33296     33297     33298     33297     33299
     33298     33299     33300     33301     33300     33302     33301     33302
     33303     33304     33303     33305     33304     33305     33306     33307
     33306     33308     33307     33308     33309     33310     33309     33311
     33310     33311     33312     33313     33312     33314     33313     33314
     33315     33316     33315     33317     33316     33317     33318     33319
     33318     33320     33319     33320     33321     33322     33321     33323
     33322     33323     33324     33325     33324     33326     33325     33326
     33327     33328     33327     33329     33328     33329     33330     33331
     33330     33332     33331     33332     33333     33334     33333     33335
     33334     33335     33336     33337     33336     33338     33337     33338
     33339     33340     33339     33341     33340     33341     33342     33343
     33342     33344     33343     33344     33345     33346     33345     33347
     33346     33347     33348     33349     33348     33350     33349     33350
     33351     33352     33351     33353     33352     33353     33354     33355
     33354     33356     33355     33356     33357     33358     33357     33359
     33358     33359     33360     33361     33360     33362     33361     33362
     33363     33364     33363     33365     33364     33365     33366     33367
     33366     33368     33367     33368     33369     33370     33369     33371
     33370     33371     33372     33373     33372     33374     33373     33374
     33375     33376     33375     33377     33376     33377     33378     33379
     33378     33380     33379     33380     33381     33382     33381     33383
     33382     33383     33384     33385     33384     33386     33385     33386
     33387     33388     33387     33389     33388     33389     33390     33391
     33390     33392     33391     33392     33393     33394     33393     33395
     33394     33395     33396     33397     33396     33398     33397     33398
     33399     33400     33399     33401     33400     33401     33402     33403
     33402     33404     33403     33404     33405     33406     33405     33407
     33406     33407     33408     33409     33408     33410     33409     33410
     33411     33412     33411     33413     33412     33413     33414     33415
     33414     33416     33415     33416     33417     33418     33417     33419
     33418     33419     33420     33421     33420     33422     33421     33422
     33423     33424     33423     33425     33424     33425     33426     33427
     33426     33428     33427     33428     33429     33430     33429     33431
     33430     33431     33432     33433     33432     33434     33433     33434
     33435     33436     33435     33437     33436     33437     33438     33439
     33438     33440     33439     33440     33441     33442     33441     33443
     33442     33443     33444     33445     33444     33446     33445     33446
     33447     33448     33447     33449     33448     33449     33450     33451
     33450     33452     33451     33452     33453     33454     33453     33455
     33454     33455     33456     33457     33456     33458     33457     33458
     33459     33460     33459     33461     33460     33461     33462     33463
     33462     33464     33463     33464     33465     33466     33465     33467
     33466     33467     33468     33469     33468     33470     33469     33470
     33471     33472     33471     33473     33472     33473     33474     33475
     33474     33476     33475     33476     33477     33478     33477     33479
     33478     33479     33480     33481     33480     33482     33481     33482
     33483     33484     33483     33485     33484     33485     33486     33487
     33486     33488     33487     33488     33489     33490     33489     33491
     33490     33491     33492     33493     33492     33494     33493     33494
     33495     33496     33495     33497     33496     33497     33498     33499
     33498     33500     33499     33500     33501     33502     33501     33503
     33502     33503     33504     33505     33504     33506     33505     33506
     33507     33508     33507     33509     33508     33509     33510     33511
     33510     33512     33511     33512     33513     33514     33513     33515
     33514     33515     33516     33517     33516     33518     33517     33518
     33519     33520     33519     33521     33520     33521     33522     33523
     33522     33524     33523     33524     33525     33526     33525     33527
     33526     33527     33528     33529     33528     33530     33529     33530
     33531     33532     33531     33533     33532     33533     33534     33535
     33534     33536     33535     33536     33537     33538     33537     33539
     33538     33539     33540     33541     33540     33542     33541     33542
     33543     33544     33543     33545     33544     33545     33546     33547
     33546     33548     33547     33548     33549     33550     33549     33551
     33550     33551     33552     33553     33552     33554     33553     33554
     33555     33556     33555     33557     33556     33557     33558     33559
     33558     33560     33559     33560     33561     33562     33561     33563
     33562     33563     33564     33565     33564     33566     33565     33566
     33567     33568     33567     33569     33568     33569     33570     33571
     33570     33572     33571     33572     33573     33574     33573     33575
     33574     33575     33576     33577     33576     33578     33577     33578
     33579     33580     33579     33581     33580     33581     33582     33583
     33582     33584     33583     33584     33585     33586     33585     33587
     33586     33587     33588     33589     33588     33590     33589     33590
     33591     33592     33591     33593     33592     33593     33594     33595
     33594     33596     33595     33596     33597     33598     33597     33599
     33598     33599     33600     33601     33600     33602     33601     33602
     33603     33604     33603     33605     33604     33605     33606     33607
     33606     33608     33607     33608     33609     33610     33609     33611
     33610     33611     33612     33613     33612     33614     33613     33614
     33615     33616     33615     33617     33616     33617     33618     33619
     33618     33620     33619     33620     33621     33622     33621     33623
     33622     33623     33624     33625     33624     33626     33625     33626
     33627     33628     33627     33629     33628     33629     33630     33631
     33630     33632     33631     33632     33633     33634     33633     33635
     33634     33635     33636     33637     33636     33638     33637     33638
     33639     33640     33639     33641     33640     33641     33642     33643
     33642     33644     33643     33644     33645     33646     33645     33647
     33646     33647     33648     33649     33648     33650     33649     33650
     33651     33652     33651     33653     33652     33653     33654     33655
     33654     33656     33655     33656     33657     33658     33657     33659
     33658     33659     33660     33661     33660     33662     33661     33662
     33663     33664     33663     33665     33664     33665     33666     33667
     33666     33668     33667     33668     33669     33670     33669     33671
     33670     33671     33672     33673     33672     33674     33673     33674
     33675     33676     33675     33677     33676     33677     33678     33679
     33678     33680     33679     33680     33681     33682     33681     33683
     33682     33683     33684     33685     33684     33686     33685     33686
     33687     33688     33687     33689     33688     33689     33690     33691
     33690     33692     33691     33692     33693     33694     33693     33695
     33694     33695     33696     33697     33696     33698     33697     33698
     33699     33700     33699     33701     33700     33701     33702     33703
     33702     33704     33703     33704     33705     33706     33705     33707
     33706     33707     33708     33709     33708     33710     33709     33710
     33711     33712     33711     33713     33712     33713     33714     33715
     33714     33716     33715     33716     33717     33718     33717     33719
     33718     33719     33720     33721     33720     33722     33721     33722
     33723     33724     33723     33725     33724     33725     33726     33727
     33726     33728     33727     33728     33729     33730     33729     33731
     33730     33731     33732     33733     33732     33734     33733     33734
     33735     33736     33735     33737     33736     33737     33738     33739
     33738     33740     33739     33740     33741     33742     33741     33743
     33742     33743     33744     33745     33744     33746     33745     33746
     33747     33748     33747     33749     33748     33749     33750     33751
     33750     33752     33751     33752     33753     33754     33753     33755
     33754     33755     33756     33757     33756     33758     33757     33758
     33759     33760     33759     33761     33760     33761     33762     33763
     33762     33764     33763     33764     33765     33766     33765     33767
     33766     33767     33768     33769     33768     33770     33769     33770
     33771     33772     33771     33773     33772     33773     33774     33775
     33774     33776     33775     33776     33777     33778     33777     33779
     33778     33779     33780     33781     33780     33782     33781     33782
     33783     33784     33783     33785     33784     33785     33786     33787
     33786     33788     33787     33788     33789     33790     33789     33791
     33790     33791     33792     33793     33792     33794     33793     33794
     33795     33796     33795     33797     33796     33797     33798     33799
     33798     33800     33799     33800     33801     33802     33801     33803
     33802     33803     33804     33805     33804     33806     33805     33806
     33807     33808     33807     33809     33808     33809     33810     33811
     33810     33812     33811     33812     33813     33814     33813     33815
     33814     33815     33816     33817     33816     33818     33817     33818
     33819     33820     33819     33821     33820     33821     33822     33823
     33822     33824     33823     33824     33825     33826     33825     33827
     33826     33827     33828     33829     33828     33830     33829     33830
     33831     33832     33831     33833     33832     33833     33834     33835
     33834     33836     33835     33836     33837     33838     33837     33839
     33838     33839     33840     33841     33840     33842     33841     33842
     33843     33844     33843     33845     33844     33845     33846     33847
     33846     33848     33847     33848     33849     33850     33849     33851
     33850     33851     33852     33853     33852     33854     33853     33854
     33855     33856     33855     33857     33856     33857     33858     33859
     33858     33860     33859     33860     33861     33862     33861     33863
     33862     33863     33864     33865     33864     33866     33865     33866
     33867     33868     33867     33869     33868     33869     33870     33871
     33870     33872     33871     33872     33873     33874     33873     33875
     33874     33875     33876     33877     33876     33878     33877     33878
     33879     33880     33879     33881     33880     33881     33882     33883
     33882     33884     33883     33884     33885     33886     33885     33887
     33886     33887     33888     33889     33888     33890     33889     33890
     33891     33892     33891     33893     33892     33893     33894     33895
     33894     33896     33895     33896     33897     33898     33897     33899
     33898     33899     33900     33901     33900     33902     33901     33902
     33903     33904     33903     33905     33904     33905     33906     33907
     33906     33908     33907     33908     33909     33910     33909     33911
     33910     33911     33912     33913     33912     33914     33913     33914
     33915     33916     33915     33917     33916     33917     33918     33919
     33918     33920     33919     33920     33921     33922     33921     33923
     33922     33923     33924     33925     33924     33926     33925     33926
     33927     33928     33927     33929     33928     33929     33930     33931
     33930     33932     33931     33932     33933     33934     33933     33935
     33934     33935     33936     33937     33936     33938     33937     33938
     33939     33940     33939     33941     33940     33941     33942     33943
     33942     33944     33943     33944     33945     33946     33945     33947
     33946     33947     33948     33949     33948     33950     33949     33950
     33951     33952     33951     33953     33952     33953     33954     33955
     33954     33956     33955     33956     33957     33958     33957     33959
     33958     33959     33960     33961     33960     33962     33961     33962
     33963     33964     33963     33965     33964     33965     33966     33967
     33966     33968     33967     33968     33969     33970     33969     33971
     33970     33971     33972     33973     33972     33974     33973     33974
     33975     33976     33975     33977     33976     33977     33978     33979
     33978     33980     33979     33980     33981     33982     33981     33983
     33982     33983     33984     33985     33984     33986     33985     33986
     33987     33988     33987     33989     33988     33989     33990     33991
     33990     33992     33991     33992     33993     33994     33993     33995
     33994     33995     33996     33997     33996     33998     33997     33998
     33999     34000     33999     34001     34000     34001     34002     34003
     34002     34004     34003     34004     34005     34006     34005     34007
     34006     34007     34008     34009     34008     34010     34009     34010
     34011     34012     34011     34013     34012     34013     34014     34015
     34014     34016     34015     34016     34017     34018     34017     34019
     34018     34019     34020     34021     34020     34022     34021     34022
     34023     34024     34023     34025     34024     34025     34026     34027
     34026     34028     34027     34028     34029     34030     34029     34031
     34030     34031     34032     34033     34032     34034     34033     34034
     34035     34036     34035     34037     34036     34037     34038     34039
     34038     34040     34039     34040     34041     34042     34041     34043
     34042     34043     34044     34045     34044     34046     34045     34046
     34047     34048     34047     34049     34048     34049     34050     34051
     34050     34052     34051     34052     34053     34054     34053     34055
     34054     34055     34056     34057     34056     34058     34057     34058
     34059     34060     34059     34061     34060     34061     34062     34063
     34062     34064     34063     34064     34065     34066     34065     34067
     34066     34067     34068     34069     34068     34070     34069     34070
     34071     34072     34071     34073     34072     34073     34074     34075
     34074     34076     34075     34076     34077     34078     34077     34079
     34078     34079     34080     34081     34080     34082     34081     34082
     34083     34084     34083     34085     34084     34085     34086     34087
     34086     34088     34087     34088     34089     34090     34089     34091
     34090     34091     34092     34093     34092     34094     34093     34094
     34095     34096     34095     34097     34096     34097     34098     34099
     34098     34100     34099     34100     34101     34102     34101     34103
     34102     34103     34104     34105     34104     34106     34105     34106
     34107     34108     34107     34109     34108     34109     34110     34111
     34110     34112     34111     34112     34113     34114     34113     34115
     34114     34115     34116     34117     34116     34118     34117     34118
     34119     34120     34119     34121     34120     34121     34122     34123
     34122     34124     34123     34124     34125     34126     34125     34127
     34126     34127     34128     34129     34128     34130     34129     34130
     34131     34132     34131     34133     34132     34133     34134     34135
     34134     34136     34135     34136     34137     34138     34137     34139
     34138     34139     34140     34141     34140     34142     34141     34142
     34143     34144     34143     34145     34144     34145     34146     34147
     34146     34148     34147     34148     34149     34150     34149     34151
     34150     34151     34152     34153     34152     34154     34153     34154
     34155     34156     34155     34157     34156     34157     34158     34159
     34158     34160     34159     34160     34161     34162     34161     34163
     34162     34163     34164     34165     34164     34166     34165     34166
     34167     34168     34167     34169     34168     34169     34170     34171
     34170     34172     34171     34172     34173     34174     34173     34175
     34174     34175     34176     34177     34176     34178     34177     34178
     34179     34180     34179     34181     34180     34181     34182     34183
     34182     34184     34183     34184     34185     34186     34185     34187
     34186     34187     34188     34189     34188     34190     34189     34190
     34191     34192     34191     34193     34192     34193     34194     34195
     34194     34196     34195     34196     34197     34198     34197     34199
     34198     34199     34200     34201     34200     34202     34201     34202
     34203     34204     34203     34205     34204     34205     34206     34207
     34206     34208     34207     34208     34209     34210     34209     34211
     34210     34211     34212     34213     34212     34214     34213     34214
     34215     34216     34215     34217     34216     34217     34218     34219
     34218     34220     34219     34220     34221     34222     34221     34223
     34222     34223     34224     34225     34224     34226     34225     34226
     34227     34228     34227     34229     34228     34229     34230     34231
     34230     34232     34231     34232     34233     34234     34233     34235
     34234     34235     34236     34237     34236     34238     34237     34238
     34239     34240     34239     34241     34240     34241     34242     34243
     34242     34244     34243     34244     34245     34246     34245     34247
     34246     34247     34248     34249     34248     34250     34249     34250
     34251     34252     34251     34253     34252     34253     34254     34255
     34254     34256     34255     34256     34257     34258     34257     34259
     34258     34259     34260     34261     34260     34262     34261     34262
     34263     34264     34263     34265     34264     34265     34266     34267
     34266     34268     34267     34268     34269     34270     34269     34271
     34270     34271     34272     34273     34272     34274     34273     34274
     34275     34276     34275     34277     34276     34277     34278     34279
     34278     34280     34279     34280     34281     34282     34281     34283
     34282     34283     34284     34285     34284     34286     34285     34286
     34287     34288     34287     34289     34288     34289     34290     34291
     34290     34292     34291     34292     34293     34294     34293     34295
     34294     34295     34296     34297     34296     34298     34297     34298
     34299     34300     34299     34301     34300     34301     34302     34303
     34302     34304     34303     34304     34305     34306     34305     34307
     34306     34307     34308     34309     34308     34310     34309     34310
     34311     34312     34311     34313     34312     34313     34314     34315
     34314     34316     34315     34316     34317     34318     34317     34319
     34318     34319     34320     34321     34320     34322     34321     34322
     34323     34324     34323     34325     34324     34325     34326     34327
     34326     34328     34327     34328     34329     34330     34329     34331
     34330     34331     34332     34333     34332     34334     34333     34334
     34335     34336     34335     34337     34336     34337     34338     34339
     34338     34340     34339     34340     34341     34342     34341     34343
     34342     34343     34344     34345     34344     34346     34345     34346
     34347     34348     34347     34349     34348     34349     34350     34351
     34350     34352     34351     34352     34353     34354     34353     34355
     34354     34355     34356     34357     34356     34358     34357     34358
     34359     34360     34359     34361     34360     34361     34362     34363
     34362     34364     34363     34364     34365     34366     34365     34367
     34366     34367     34368     34369     34368     34370     34369     34370
     34371     34372     34371     34373     34372     34373     34374     34375
     34374     34376     34375     34376     34377     34378     34377     34379
     34378     34379     34380     34381     34380     34382     34381     34382
     34383     34384     34383     34385     34384     34385     34386     34387
     34386     34388     34387     34388     34389     34390     34389     34391
     34390     34391     34392     34393     34392     34394     34393     34394
     34395     34396     34395     34397     34396     34397     34398     34399
     34398     34400     34399     34400     34401     34402     34401     34403
     34402     34403     34404     34405     34404     34406     34405     34406
     34407     34408     34407     34409     34408     34409     34410     34411
     34410     34412     34411     34412     34413     34414     34413     34415
     34414     34415     34416     34417     34416     34418     34417     34418
     34419     34420     34419     34421     34420     34421     34422     34423
     34422     34424     34423     34424     34425     34426     34425     34427
     34426     34427     34428     34429     34428     34430     34429     34430
     34431     34432     34431     34433     34432     34433     34434     34435
     34434     34436     34435     34436     34437     34438     34437     34439
     34438     34439     34440     34441     34440     34442     34441     34442
     34443     34444     34443     34445     34444     34445     34446     34447
     34446     34448     34447     34448     34449     34450     34449     34451
     34450     34451     34452     34453     34452     34454     34453     34454
     34455     34456     34455     34457     34456     34457     34458     34459
     34458     34460     34459     34460     34461     34462     34461     34463
     34462     34463     34464     34465     34464     34466     34465     34466
     34467     34468     34467     34469     34468     34469     34470     34471
     34470     34472     34471     34472     34473     34474     34473     34475
     34474     34475     34476     34477     34476     34478     34477     34478
     34479     34480     34479     34481     34480     34481     34482     34483
     34482     34484     34483     34484     34485     34486     34485     34487
     34486     34487     34488     34489     34488     34490     34489     34490
     34491     34492     34491     34493     34492     34493     34494     34495
     34494     34496     34495     34496     34497     34498     34497     34499
     34498     34499     34500     34501     34500     34502     34501     34502
     34503     34504     34503     34505     34504     34505     34506     34507
     34506     34508     34507     34508     34509     34510     34509     34511
     34510     34511     34512     34513     34512     34514     34513     34514
     34515     34516     34515     34517     34516     34517     34518     34519
     34518     34520     34519     34520     34521     34522     34521     34523
     34522     34523     34524     34525     34524     34526     34525     34526
     34527     34528     34527     34529     34528     34529     34530     34531
     34530     34532     34531     34532     34533     34534     34533     34535
     34534     34535     34536     34537     34536     34538     34537     34538
     34539     34540     34539     34541     34540     34541     34542     34543
     34542     34544     34543     34544     34545     34546     34545     34547
     34546     34547     34548     34549     34548     34550     34549     34550
     34551     34552     34551     34553     34552     34553     34554     34555
     34554     34556     34555     34556     34557     34558     34557     34559
     34558     34559     34560     34561     34560     34562     34561     34562
     34563     34564     34563     34565     34564     34565     34566     34567
     34566     34568     34567     34568     34569     34570     34569     34571
     34570     34571     34572     34573     34572     34574     34573     34574
     34575     34576     34575     34577     34576     34577     34578     34579
     34578     34580     34579     34580     34581     34582     34581     34583
     34582     34583     34584     34585     34584     34586     34585     34586
     34587     34588     34587     34589     34588     34589     34590     34591
     34590     34592     34591     34592     34593     34594     34593     34595
     34594     34595     34596     34597     34596     34598     34597     34598
     34599     34600     34599     34601     34600     34601     34602     34603
     34602     34604     34603     34604     34605     34606     34605     34607
     34606     34607     34608     34609     34608     34610     34609     34610
     34611     34612     34611     34613     34612     34613     34614     34615
     34614     34616     34615     34616     34617     34618     34617     34619
     34618     34619     34620     34621     34620     34622     34621     34622
     34623     34624     34623     34625     34624     34625     34626     34627
     34626     34628     34627     34628     34629     34630     34629     34631
     34630     34631     34632     34633     34632     34634     34633     34634
     34635     34636     34635     34637     34636     34637     34638     34639
     34638     34640     34639     34640     34641     34642     34641     34643
     34642     34643     34644     34645     34644     34646     34645     34646
     34647     34648     34647     34649     34648     34649     34650     34651
     34650     34652     34651     34652     34653     34654     34653     34655
     34654     34655     34656     34657     34656     34658     34657     34658
     34659     34660     34659     34661     34660     34661     34662     34663
     34662     34664     34663     34664     34665     34666     34665     34667
     34666     34667     34668     34669     34668     34670     34669     34670
     34671     34672     34671     34673     34672     34673     34674     34675
     34674     34676     34675     34676     34677     34678     34677     34679
     34678     34679     34680     34681     34680     34682     34681     34682
     34683     34684     34683     34685     34684     34685     34686     34687
     34686     34688     34687     34688     34689     34690     34689     34691
     34690     34691     34692     34693     34692     34694     34693     34694
     34695     34696     34695     34697     34696     34697     34698     34699
     34698     34700     34699     34700     34701     34702     34701     34703
     34702     34703     34704     34705     34704     34706     34705     34706
     34707     34708     34707     34709     34708     34709     34710     34711
     34710     34712     34711     34712     34713     34714     34713     34715
     34714     34715     34716     34717     34716     34718     34717     34718
     34719     34720     34719     34721     34720     34721     34722     34723
     34722     34724     34723     34724     34725     34726     34725     34727
     34726     34727     34728     34729     34728     34730     34729     34730
     34731     34732     34731     34733     34732     34733     34734     34735
     34734     34736     34735     34736     34737     34738     34737     34739
     34738     34739     34740     34741     34740     34742     34741     34742
     34743     34744     34743     34745     34744     34745     34746     34747
     34746     34748     34747     34748     34749     34750     34749     34751
     34750     34751     34752     34753     34752     34754     34753     34754
     34755     34756     34755     34757     34756     34757     34758     34759
     34758     34760     34759     34760     34761     34762     34761     34763
     34762     34763     34764     34765     34764     34766     34765     34766
     34767     34768     34767     34769     34768     34769     34770     34771
     34770     34772     34771     34772     34773     34774     34773     34775
     34774     34775     34776     34777     34776     34778     34777     34778
     34779     34780     34779     34781     34780     34781     34782     34783
     34782     34784     34783     34784     34785     34786     34785     34787
     34786     34787     34788     34789     34788     34790     34789     34790
     34791     34792     34791     34793     34792     34793     34794     34795
     34794     34796     34795     34796     34797     34798     34797     34799
     34798     34799     34800     34801     34800     34802     34801     34802
     34803     34804     34803     34805     34804     34805     34806     34807
     34806     34808     34807     34808     34809     34810     34809     34811
     34810     34811     34812     34813     34812     34814     34813     34814
     34815     34816     34815     34817     34816     34817     34818     34819
     34818     34820     34819     34820     34821     34822     34821     34823
     34822     34823     34824     34825     34824     34826     34825     34826
     34827     34828     34827     34829     34828     34829     34830     34831
     34830     34832     34831     34832     34833     34834     34833     34835
     34834     34835     34836     34837     34836     34838     34837     34838
     34839     34840     34839     34841     34840     34841     34842     34843
     34842     34844     34843     34844     34845     34846     34845     34847
     34846     34847     34848     34849     34848     34850     34849     34850
     34851     34852     34851     34853     34852     34853     34854     34855
     34854     34856     34855     34856     34857     34858     34857     34859
     34858     34859     34860     34861     34860     34862     34861     34862
     34863     34864     34863     34865     34864     34865     34866     34867
     34866     34868     34867     34868     34869     34870     34869     34871
     34870     34871     34872     34873     34872     34874     34873     34874
     34875     34876     34875     34877     34876     34877     34878     34879
     34878     34880     34879     34880     34881     34882     34881     34883
     34882     34883     34884     34885     34884     34886     34885     34886
     34887     34888     34887     34889     34888     34889     34890     34891
     34890     34892     34891     34892     34893     34894     34893     34895
     34894     34895     34896     34897     34896     34898     34897     34898
     34899     34900     34899     34901     34900     34901     34902     34903
     34902     34904     34903     34904     34905     34906     34905     34907
     34906     34907     34908     34909     34908     34910     34909     34910
     34911     34912     34911     34913     34912     34913     34914     34915
     34914     34916     34915     34916     34917     34918     34917     34919
     34918     34919     34920     34921     34920     34922     34921     34922
     34923     34924     34923     34925     34924     34925     34926     34927
     34926     34928     34927     34928     34929     34930     34929     34931
     34930     34931     34932     34933     34932     34934     34933     34934
     34935     34936     34935     34937     34936     34937     34938     34939
     34938     34940     34939     34940     34941     34942     34941     34943
     34942     34943     34944     34945     34944     34946     34945     34946
     34947     34948     34947     34949     34948     34949     34950     34951
     34950     34952     34951     34952     34953     34954     34953     34955
     34954     34955     34956     34957     34956     34958     34957     34958
     34959     34960     34959     34961     34960     34961     34962     34963
     34962     34964     34963     34964     34965     34966     34965     34967
     34966     34967     34968     34969     34968     34970     34969     34970
     34971     34972     34971     34973     34972     34973     34974     34975
     34974     34976     34975     34976     34977     34978     34977     34979
     34978     34979     34980     34981     34980     34982     34981     34982
     34983     34984     34983     34985     34984     34985     34986     34987
     34986     34988     34987     34988     34989     34990     34989     34991
     34990     34991     34992     34993     34992     34994     34993     34994
     34995     34996     34995     34997     34996     34997     34998     34999
     34998     35000     34999     35000     35001     35002     35001     35003
     35002     35003     35004     35005     35004     35006     35005     35006
     35007     35008     35007     35009     35008     35009     35010     35011
     35010     35012     35011     35012     35013     35014     35013     35015
     35014     35015     35016     35017     35016     35018     35017     35018
     35019     35020     35019     35021     35020     35021     35022     35023
     35022     35024     35023     35024     35025     35026     35025     35027
     35026     35027     35028     35029     35028     35030     35029     35030
     35031     35032     35031     35033     35032     35033     35034     35035
     35034     35036     35035     35036     35037     35038     35037     35039
     35038     35039     35040     35041     35040     35042     35041     35042
     35043     35044     35043     35045     35044     35045     35046     35047
     35046     35048     35047     35048     35049     35050     35049     35051
     35050     35051     35052     35053     35052     35054     35053     35054
     35055     35056     35055     35057     35056     35057     35058     35059
     35058     35060     35059     35060     35061     35062     35061     35063
     35062     35063     35064     35065     35064     35066     35065     35066
     35067     35068     35067     35069     35068     35069     35070     35071
     35070     35072     35071     35072     35073     35074     35073     35075
     35074     35075     35076     35077     35076     35078     35077     35078
     35079     35080     35079     35081     35080     35081     35082     35083
     35082     35084     35083     35084     35085     35086     35085     35087
     35086     35087     35088     35089     35088     35090     35089     35090
     35091     35092     35091     35093     35092     35093     35094     35095
     35094     35096     35095     35096     35097     35098     35097     35099
     35098     35099     35100     35101     35100     35102     35101     35102
     35103     35104     35103     35105     35104     35105     35106     35107
     35106     35108     35107     35108     35109     35110     35109     35111
     35110     35111     35112     35113     35112     35114     35113     35114
     35115     35116     35115     35117     35116     35117     35118     35119
     35118     35120     35119     35120     35121     35122     35121     35123
     35122     35123     35124     35125     35124     35126     35125     35126
     35127     35128     35127     35129     35128     35129     35130     35131
     35130     35132     35131     35132     35133     35134     35133     35135
     35134     35135     35136     35137     35136     35138     35137     35138
     35139     35140     35139     35141     35140     35141     35142     35143
     35142     35144     35143     35144     35145     35146     35145     35147
     35146     35147     35148     35149     35148     35150     35149     35150
     35151     35152     35151     35153     35152     35153     35154     35155
     35154     35156     35155     35156     35157     35158     35157     35159
     35158     35159     35160     35161     35160     35162     35161     35162
     35163     35164     35163     35165     35164     35165     35166     35167
     35166     35168     35167     35168     35169     35170     35169     35171
     35170     35171     35172     35173     35172     35174     35173     35174
     35175     35176     35175     35177     35176     35177     35178     35179
     35178     35180     35179     35180     35181     35182     35181     35183
     35182     35183     35184     35185     35184     35186     35185     35186
     35187     35188     35187     35189     35188     35189     35190     35191
     35190     35192     35191     35192     35193     35194     35193     35195
     35194     35195     35196     35197     35196     35198     35197     35198
     35199     35200     35199     35201     35200     35201     35202     35203
     35202     35204     35203     35204     35205     35206     35205     35207
     35206     35207     35208     35209     35208     35210     35209     35210
     35211     35212     35211     35213     35212     35213     35214     35215
     35214     35216     35215     35216     35217     35218     35217     35219
     35218     35219     35220     35221     35220     35222     35221     35222
     35223     35224     35223     35225     35224     35225     35226     35227
     35226     35228     35227     35228     35229     35230     35229     35231
     35230     35231     35232     35233     35232     35234     35233     35234
     35235     35236     35235     35237     35236     35237     35238     35239
     35238     35240     35239     35240     35241     35242     35241     35243
     35242     35243     35244     35245     35244     35246     35245     35246
     35247     35248     35247     35249     35248     35249     35250     35251
     35250     35252     35251     35252     35253     35254     35253     35255
     35254     35255     35256     35257     35256     35258     35257     35258
     35259     35260     35259     35261     35260     35261     35262     35263
     35262     35264     35263     35264     35265     35266     35265     35267
     35266     35267     35268     35269     35268     35270     35269     35270
     35271     35272     35271     35273     35272     35273     35274     35275
     35274     35276     35275     35276     35277     35278     35277     35279
     35278     35279     35280     35281     35280     35282     35281     35282
     35283     35284     35283     35285     35284     35285     35286     35287
     35286     35288     35287     35288     35289     35290     35289     35291
     35290     35291     35292     35293     35292     35294     35293     35294
     35295     35296     35295     35297     35296     35297     35298     35299
     35298     35300     35299     35300     35301     35302     35301     35303
     35302     35303     35304     35305     35304     35306     35305     35306
     35307     35308     35307     35309     35308     35309     35310     35311
     35310     35312     35311     35312     35313     35314     35313     35315
     35314     35315     35316     35317     35316     35318     35317     35318
     35319     35320     35319     35321     35320     35321     35322     35323
     35322     35324     35323     35324     35325     35326     35325     35327
     35326     35327     35328     35329     35328     35330     35329     35330
     35331     35332     35331     35333     35332     35333     35334     35335
     35334     35336     35335     35336     35337     35338     35337     35339
     35338     35339     35340     35341     35340     35342     35341     35342
     35343     35344     35343     35345     35344     35345     35346     35347
     35346     35348     35347     35348     35349     35350     35349     35351
     35350     35351     35352     35353     35352     35354     35353     35354
     35355     35356     35355     35357     35356     35357     35358     35359
     35358     35360     35359     35360     35361     35362     35361     35363
     35362     35363     35364     35365     35364     35366     35365     35366
     35367     35368     35367     35369     35368     35369     35370     35371
     35370     35372     35371     35372     35373     35374     35373     35375
     35374     35375     35376     35377     35376     35378     35377     35378
     35379     35380     35379     35381     35380     35381     35382     35383
     35382     35384     35383     35384     35385     35386     35385     35387
     35386     35387     35388     35389     35388     35390     35389     35390
     35391     35392     35391     35393     35392     35393     35394     35395
     35394     35396     35395     35396     35397     35398     35397     35399
     35398     35399     35400     35401     35400     35402     35401     35402
     35403     35404     35403     35405     35404     35405     35406     35407
     35406     35408     35407     35408     35409     35410     35409     35411
     35410     35411     35412     35413     35412     35414     35413     35414
     35415     35416     35415     35417     35416     35417     35418     35419
     35418     35420     35419     35420     35421     35422     35421     35423
     35422     35423     35424     35425     35424     35426     35425     35426
     35427     35428     35427     35429     35428     35429     35430     35431
     35430     35432     35431     35432     35433     35434     35433     35435
     35434     35435     35436     35437     35436     35438     35437     35438
     35439     35440     35439     35441     35440     35441     35442     35443
     35442     35444     35443     35444     35445     35446     35445     35447
     35446     35447     35448     35449     35448     35450     35449     35450
     35451     35452     35451     35453     35452     35453     35454     35455
     35454     35456     35455     35456     35457     35458     35457     35459
     35458     35459     35460     35461     35460     35462     35461     35462
     35463     35464     35463     35465     35464     35465     35466     35467
     35466     35468     35467     35468     35469     35470     35469     35471
     35470     35471     35472     35473     35472     35474     35473     35474
     35475     35476     35475     35477     35476     35477     35478     35479
     35478     35480     35479     35480     35481     35482     35481     35483
     35482     35483     35484     35485     35484     35486     35485     35486
     35487     35488     35487     35489     35488     35489     35490     35491
     35490     35492     35491     35492     35493     35494     35493     35495
     35494     35495     35496     35497     35496     35498     35497     35498
     35499     35500     35499     35501     35500     35501     35502     35503
     35502     35504     35503     35504     35505     35506     35505     35507
     35506     35507     35508     35509     35508     35510     35509     35510
     35511     35512     35511     35513     35512     35513     35514     35515
     35514     35516     35515     35516     35517     35518     35517     35519
     35518     35519     35520     35521     35520     35522     35521     35522
     35523     35524     35523     35525     35524     35525     35526     35527
     35526     35528     35527     35528     35529     35530     35529     35531
     35530     35531     35532     35533     35532     35534     35533     35534
     35535     35536     35535     35537     35536     35537     35538     35539
     35538     35540     35539     35540     35541     35542     35541     35543
     35542     35543     35544     35545     35544     35546     35545     35546
     35547     35548     35547     35549     35548     35549     35550     35551
     35550     35552     35551     35552     35553     35554     35553     35555
     35554     35555     35556     35557     35556     35558     35557     35558
     35559     35560     35559     35561     35560     35561     35562     35563
     35562     35564     35563     35564     35565     35566     35565     35567
     35566     35567     35568     35569     35568     35570     35569     35570
     35571     35572     35571     35573     35572     35573     35574     35575
     35574     35576     35575     35576     35577     35578     35577     35579
     35578     35579     35580     35581     35580     35582     35581     35582
     35583     35584     35583     35585     35584     35585     35586     35587
     35586     35588     35587     35588     35589     35590     35589     35591
     35590     35591     35592     35593     35592     35594     35593     35594
     35595     35596     35595     35597     35596     35597     35598     35599
     35598     35600     35599     35600     35601     35602     35601     35603
     35602     35603     35604     35605     35604     35606     35605     35606
     35607     35608     35607     35609     35608     35609     35610     35611
     35610     35612     35611     35612     35613     35614     35613     35615
     35614     35615     35616     35617     35616     35618     35617     35618
     35619     35620     35619     35621     35620     35621     35622     35623
     35622     35624     35623     35624     35625     35626     35625     35627
     35626     35627     35628     35629     35628     35630     35629     35630
     35631     35632     35631     35633     35632     35633     35634     35635
     35634     35636     35635     35636     35637     35638     35637     35639
     35638     35639     35640     35641     35640     35642     35641     35642
     35643     35644     35643     35645     35644     35645     35646     35647
     35646     35648     35647     35648     35649     35650     35649     35651
     35650     35651     35652     35653     35652     35654     35653     35654
     35655     35656     35655     35657     35656     35657     35658     35659
     35658     35660     35659     35660     35661     35662     35661     35663
     35662     35663     35664     35665     35664     35666     35665     35666
     35667     35668     35667     35669     35668     35669     35670     35671
     35670     35672     35671     35672     35673     35674     35673     35675
     35674     35675     35676     35677     35676     35678     35677     35678
     35679     35680     35679     35681     35680     35681     35682     35683
     35682     35684     35683     35684     35685     35686     35685     35687
     35686     35687     35688     35689     35688     35690     35689     35690
     35691     35692     35691     35693     35692     35693     35694     35695
     35694     35696     35695     35696     35697     35698     35697     35699
     35698     35699     35700     35701     35700     35702     35701     35702
     35703     35704     35703     35705     35704     35705     35706     35707
     35706     35708     35707     35708     35709     35710     35709     35711
     35710     35711     35712     35713     35712     35714     35713     35714
     35715     35716     35715     35717     35716     35717     35718     35719
     35718     35720     35719     35720     35721     35722     35721     35723
     35722     35723     35724     35725     35724     35726     35725     35726
     35727     35728     35727     35729     35728     35729     35730     35731
     35730     35732     35731     35732     35733     35734     35733     35735
     35734     35735     35736     35737     35736     35738     35737     35738
     35739     35740     35739     35741     35740     35741     35742     35743
     35742     35744     35743     35744     35745     35746     35745     35747
     35746     35747     35748     35749     35748     35750     35749     35750
     35751     35752     35751     35753     35752     35753     35754     35755
     35754     35756     35755     35756     35757     35758     35757     35759
     35758     35759     35760     35761     35760     35762     35761     35762
     35763     35764     35763     35765     35764     35765     35766     35767
     35766     35768     35767     35768     35769     35770     35769     35771
     35770     35771     35772     35773     35772     35774     35773     35774
     35775     35776     35775     35777     35776     35777     35778     35779
     35778     35780     35779     35780     35781     35782     35781     35783
     35782     35783     35784     35785     35784     35786     35785     35786
     35787     35788     35787     35789     35788     35789     35790     35791
     35790     35792     35791     35792     35793     35794     35793     35795
     35794     35795     35796     35797     35796     35798     35797     35798
     35799     35800     35799     35801     35800     35801     35802     35803
     35802     35804     35803     35804     35805     35806     35805     35807
     35806     35807     35808     35809     35808     35810     35809     35810
     35811     35812     35811     35813     35812     35813     35814     35815
     35814     35816     35815     35816     35817     35818     35817     35819
     35818     35819     35820     35821     35820     35822     35821     35822
     35823     35824     35823     35825     35824     35825     35826     35827
     35826     35828     35827     35828     35829     35830     35829     35831
     35830     35831     35832     35833     35832     35834     35833     35834
     35835     35836     35835     35837     35836     35837     35838     35839
     35838     35840     35839     35840     35841     35842     35841     35843
     35842     35843     35844     35845     35844     35846     35845     35846
     35847     35848     35847     35849     35848     35849     35850     35851
     35850     35852     35851     35852     35853     35854     35853     35855
     35854     35855     35856     35857     35856     35858     35857     35858
     35859     35860     35859     35861     35860     35861     35862     35863
     35862     35864     35863     35864     35865     35866     35865     35867
     35866     35867     35868     35869     35868     35870     35869     35870
     35871     35872     35871     35873     35872     35873     35874     35875
     35874     35876     35875     35876     35877     35878     35877     35879
     35878     35879     35880     35881     35880     35882     35881     35882
     35883     35884     35883     35885     35884     35885     35886     35887
     35886     35888     35887     35888     35889     35890     35889     35891
     35890     35891     35892     35893     35892     35894     35893     35894
     35895     35896     35895     35897     35896     35897     35898     35899
     35898     35900     35899     35900     35901     35902     35901     35903
     35902     35903     35904     35905     35904     35906     35905     35906
     35907     35908     35907     35909     35908     35909     35910     35911
     35910     35912     35911     35912     35913     35914     35913     35915
     35914     35915     35916     35917     35916     35918     35917     35918
     35919     35920     35919     35921     35920     35921     35922     35923
     35922     35924     35923     35924     35925     35926     35925     35927
     35926     35927     35928     35929     35928     35930     35929     35930
     35931     35932     35931     35933     35932     35933     35934     35935
     35934     35936     35935     35936     35937     35938     35937     35939
     35938     35939     35940     35941     35940     35942     35941     35942
     35943     35944     35943     35945     35944     35945     35946     35947
     35946     35948     35947     35948     35949     35950     35949     35951
     35950     35951     35952     35953     35952     35954     35953     35954
     35955     35956     35955     35957     35956     35957     35958     35959
     35958     35960     35959     35960     35961     35962     35961     35963
     35962     35963     35964     35965     35964     35966     35965     35966
     35967     35968     35967     35969     35968     35969     35970     35971
     35970     35972     35971     35972     35973     35974     35973     35975
     35974     35975     35976     35977     35976     35978     35977     35978
     35979     35980     35979     35981     35980     35981     35982     35983
     35982     35984     35983     35984     35985     35986     35985     35987
     35986     35987     35988     35989     35988     35990     35989     35990
     35991     35992     35991     35993     35992     35993     35994     35995
     35994     35996     35995     35996     35997     35998     35997     35999
     35998     35999     36000     36001     36000     36002     36001     36002
     36003     36004     36003     36005     36004     36005     36006     36007
     36006     36008     36007     36008     36009     36010     36009     36011
     36010     36011     36012     36013     36012     36014     36013     36014
     36015     36016     36015     36017     36016     36017     36018     36019
     36018     36020     36019     36020     36021     36022     36021     36023
     36022     36023     36024     36025     36024     36026     36025     36026
     36027     36028     36027     36029     36028     36029     36030     36031
     36030     36032     36031     36032     36033     36034     36033     36035
     36034     36035     36036     36037     36036     36038     36037     36038
     36039     36040     36039     36041     36040     36041     36042     36043
     36042     36044     36043     36044     36045     36046     36045     36047
     36046     36047     36048     36049     36048     36050     36049     36050
     36051     36052     36051     36053     36052     36053     36054     36055
     36054     36056     36055     36056     36057     36058     36057     36059
     36058     36059     36060     36061     36060     36062     36061     36062
     36063     36064     36063     36065     36064     36065     36066     36067
     36066     36068     36067     36068     36069     36070     36069     36071
     36070     36071     36072     36073     36072     36074     36073     36074
     36075     36076     36075     36077     36076     36077     36078     36079
     36078     36080     36079     36080     36081     36082     36081     36083
     36082     36083     36084     36085     36084     36086     36085     36086
     36087     36088     36087     36089     36088     36089     36090     36091
     36090     36092     36091     36092     36093     36094     36093     36095
     36094     36095     36096     36097     36096     36098     36097     36098
     36099     36100     36099     36101     36100     36101     36102     36103
     36102     36104     36103     36104     36105     36106     36105     36107
     36106     36107     36108     36109     36108     36110     36109     36110
     36111     36112     36111     36113     36112     36113     36114     36115
     36114     36116     36115     36116     36117     36118     36117     36119
     36118     36119     36120     36121     36120     36122     36121     36122
     36123     36124     36123     36125     36124     36125     36126     36127
     36126     36128     36127     36128     36129     36130     36129     36131
     36130     36131     36132     36133     36132     36134     36133     36134
     36135     36136     36135     36137     36136     36137     36138     36139
     36138     36140     36139     36140     36141     36142     36141     36143
     36142     36143     36144     36145     36144     36146     36145     36146
     36147     36148     36147     36149     36148     36149     36150     36151
     36150     36152     36151     36152     36153     36154     36153     36155
     36154     36155     36156     36157     36156     36158     36157     36158
     36159     36160     36159     36161     36160     36161     36162     36163
     36162     36164     36163     36164     36165     36166     36165     36167
     36166     36167     36168     36169     36168     36170     36169     36170
     36171     36172     36171     36173     36172     36173     36174     36175
     36174     36176     36175     36176     36177     36178     36177     36179
     36178     36179     36180     36181     36180     36182     36181     36182
     36183     36184     36183     36185     36184     36185     36186     36187
     36186     36188     36187     36188     36189     36190     36189     36191
     36190     36191     36192     36193     36192     36194     36193     36194
     36195     36196     36195     36197     36196     36197     36198     36199
     36198     36200     36199     36200     36201     36202     36201     36203
     36202     36203     36204     36205     36204     36206     36205     36206
     36207     36208     36207     36209     36208     36209     36210     36211
     36210     36212     36211     36212     36213     36214     36213     36215
     36214     36215     36216     36217     36216     36218     36217     36218
     36219     36220     36219     36221     36220     36221     36222     36223
     36222     36224     36223     36224     36225     36226     36225     36227
     36226     36227     36228     36229     36228     36230     36229     36230
     36231     36232     36231     36233     36232     36233     36234     36235
     36234     36236     36235     36236     36237     36238     36237     36239
     36238     36239     36240     36241     36240     36242     36241     36242
     36243     36244     36243     36245     36244     36245     36246     36247
     36246     36248     36247     36248     36249     36250     36249     36251
     36250     36251     36252     36253     36252     36254     36253     36254
     36255     36256     36255     36257     36256     36257     36258     36259
     36258     36260     36259     36260     36261     36262     36261     36263
     36262     36263     36264     36265     36264     36266     36265     36266
     36267     36268     36267     36269     36268     36269     36270     36271
     36270     36272     36271     36272     36273     36274     36273     36275
     36274     36275     36276     36277     36276     36278     36277     36278
     36279     36280     36279     36281     36280     36281     36282     36283
     36282     36284     36283     36284     36285     36286     36285     36287
     36286     36287     36288     36289     36288     36290     36289     36290
     36291     36292     36291     36293     36292     36293     36294     36295
     36294     36296     36295     36296     36297     36298     36297     36299
     36298     36299     36300     36301     36300     36302     36301     36302
     36303     36304     36303     36305     36304     36305     36306     36307
     36306     36308     36307     36308     36309     36310     36309     36311
     36310     36311     36312     36313     36312     36314     36313     36314
     36315     36316     36315     36317     36316     36317     36318     36319
     36318     36320     36319     36320     36321     36322     36321     36323
     36322     36323     36324     36325     36324     36326     36325     36326
     36327     36328     36327     36329     36328     36329     36330     36331
     36330     36332     36331     36332     36333     36334     36333     36335
     36334     36335     36336     36337     36336     36338     36337     36338
     36339     36340     36339     36341     36340     36341     36342     36343
     36342     36344     36343     36344     36345     36346     36345     36347
     36346     36347     36348     36349     36348     36350     36349     36350
     36351     36352     36351     36353     36352     36353     36354     36355
     36354     36356     36355     36356     36357     36358     36357     36359
     36358     36359     36360     36361     36360     36362     36361     36362
     36363     36364     36363     36365     36364     36365     36366     36367
     36366     36368     36367     36368     36369     36370     36369     36371
     36370     36371     36372     36373     36372     36374     36373     36374
     36375     36376     36375     36377     36376     36377     36378     36379
     36378     36380     36379     36380     36381     36382     36381     36383
     36382     36383     36384     36385     36384     36386     36385     36386
     36387     36388     36387     36389     36388     36389     36390     36391
     36390     36392     36391     36392     36393     36394     36393     36395
     36394     36395     36396     36397     36396     36398     36397     36398
     36399     36400     36399     36401     36400     36401     36402     36403
     36402     36404     36403     36404     36405     36406     36405     36407
     36406     36407     36408     36409     36408     36410     36409     36410
     36411     36412     36411     36413     36412     36413     36414     36415
     36414     36416     36415     36416     36417     36418     36417     36419
     36418     36419     36420     36421     36420     36422     36421     36422
     36423     36424     36423     36425     36424     36425     36426     36427
     36426     36428     36427     36428     36429     36430     36429     36431
     36430     36431     36432     36433     36432     36434     36433     36434
     36435     36436     36435     36437     36436     36437     36438     36439
     36438     36440     36439     36440     36441     36442     36441     36443
     36442     36443     36444     36445     36444     36446     36445     36446
     36447     36448     36447     36449     36448     36449     36450     36451
     36450     36452     36451     36452     36453     36454     36453     36455
     36454     36455     36456     36457     36456     36458     36457     36458
     36459     36460     36459     36461     36460     36461     36462     36463
     36462     36464     36463     36464     36465     36466     36465     36467
     36466     36467     36468     36469     36468     36470     36469     36470
     36471     36472     36471     36473     36472     36473     36474     36475
     36474     36476     36475     36476     36477     36478     36477     36479
     36478     36479     36480     36481     36480     36482     36481     36482
     36483     36484     36483     36485     36484     36485     36486     36487
     36486     36488     36487     36488     36489     36490     36489     36491
     36490     36491     36492     36493     36492     36494     36493     36494
     36495     36496     36495     36497     36496     36497     36498     36499
     36498     36500     36499     36500     36501     36502     36501     36503
     36502     36503     36504     36505     36504     36506     36505     36506
     36507     36508     36507     36509     36508     36509     36510     36511
     36510     36512     36511     36512     36513     36514     36513     36515
     36514     36515     36516     36517     36516     36518     36517     36518
     36519     36520     36519     36521     36520     36521     36522     36523
     36522     36524     36523     36524     36525     36526     36525     36527
     36526     36527     36528     36529     36528     36530     36529     36530
     36531     36532     36531     36533     36532     36533     36534     36535
     36534     36536     36535     36536     36537     36538     36537     36539
     36538     36539     36540     36541     36540     36542     36541     36542
     36543     36544     36543     36545     36544     36545     36546     36547
     36546     36548     36547     36548     36549     36550     36549     36551
     36550     36551     36552     36553     36552     36554     36553     36554
     36555     36556     36555     36557     36556     36557     36558     36559
     36558     36560     36559     36560     36561     36562     36561     36563
     36562     36563     36564     36565     36564     36566     36565     36566
     36567     36568     36567     36569     36568     36569     36570     36571
     36570     36572     36571     36572     36573     36574     36573     36575
     36574     36575     36576     36577     36576     36578     36577     36578
     36579     36580     36579     36581     36580     36581     36582     36583
     36582     36584     36583     36584     36585     36586     36585     36587
     36586     36587     36588     36589     36588     36590     36589     36590
     36591     36592     36591     36593     36592     36593     36594     36595
     36594     36596     36595     36596     36597     36598     36597     36599
     36598     36599     36600     36601     36600     36602     36601     36602
     36603     36604     36603     36605     36604     36605     36606     36607
     36606     36608     36607     36608     36609     36610     36609     36611
     36610     36611     36612     36613     36612     36614     36613     36614
     36615     36616     36615     36617     36616     36617     36618     36619
     36618     36620     36619     36620     36621     36622     36621     36623
     36622     36623     36624     36625     36624     36626     36625     36626
     36627     36628     36627     36629     36628     36629     36630     36631
     36630     36632     36631     36632     36633     36634     36633     36635
     36634     36635     36636     36637     36636     36638     36637     36638
     36639     36640     36639     36641     36640     36641     36642     36643
     36642     36644     36643     36644     36645     36646     36645     36647
     36646     36647     36648     36649     36648     36650     36649     36650
     36651     36652     36651     36653     36652     36653     36654     36655
     36654     36656     36655     36656     36657     36658     36657     36659
     36658     36659     36660     36661     36660     36662     36661     36662
     36663     36664     36663     36665     36664     36665     36666     36667
     36666     36668     36667     36668     36669     36670     36669     36671
     36670     36671     36672     36673     36672     36674     36673     36674
     36675     36676     36675     36677     36676     36677     36678     36679
     36678     36680     36679     36680     36681     36682     36681     36683
     36682     36683     36684     36685     36684     36686     36685     36686
     36687     36688     36687     36689     36688     36689     36690     36691
     36690     36692     36691     36692     36693     36694     36693     36695
     36694     36695     36696     36697     36696     36698     36697     36698
     36699     36700     36699     36701     36700     36701     36702     36703
     36702     36704     36703     36704     36705     36706     36705     36707
     36706     36707     36708     36709     36708     36710     36709     36710
     36711     36712     36711     36713     36712     36713     36714     36715
     36714     36716     36715     36716     36717     36718     36717     36719
     36718     36719     36720     36721     36720     36722     36721     36722
     36723     36724     36723     36725     36724     36725     36726     36727
     36726     36728     36727     36728     36729     36730     36729     36731
     36730     36731     36732     36733     36732     36734     36733     36734
     36735     36736     36735     36737     36736     36737     36738     36739
     36738     36740     36739     36740     36741     36742     36741     36743
     36742     36743     36744     36745     36744     36746     36745     36746
     36747     36748     36747     36749     36748     36749     36750     36751
     36750     36752     36751     36752     36753     36754     36753     36755
     36754     36755     36756     36757     36756     36758     36757     36758
     36759     36760     36759     36761     36760     36761     36762     36763
     36762     36764     36763     36764     36765     36766     36765     36767
     36766     36767     36768     36769     36768     36770     36769     36770
     36771     36772     36771     36773     36772     36773     36774     36775
     36774     36776     36775     36776     36777     36778     36777     36779
     36778     36779     36780     36781     36780     36782     36781     36782
     36783     36784     36783     36785     36784     36785     36786     36787
     36786     36788     36787     36788     36789     36790     36789     36791
     36790     36791     36792     36793     36792     36794     36793     36794
     36795     36796     36795     36797     36796     36797     36798     36799
     36798     36800     36799     36800     36801     36802     36801     36803
     36802     36803     36804     36805     36804     36806     36805     36806
     36807     36808     36807     36809     36808     36809     36810     36811
     36810     36812     36811     36812     36813     36814     36813     36815
     36814     36815     36816     36817     36816     36818     36817     36818
     36819     36820     36819     36821     36820     36821     36822     36823
     36822     36824     36823     36824     36825     36826     36825     36827
     36826     36827     36828     36829     36828     36830     36829     36830
     36831     36832     36831     36833     36832     36833     36834     36835
     36834     36836     36835     36836     36837     36838     36837     36839
     36838     36839     36840     36841     36840     36842     36841     36842
     36843     36844     36843     36845     36844     36845     36846     36847
     36846     36848     36847     36848     36849     36850     36849     36851
     36850     36851     36852     36853     36852     36854     36853     36854
     36855     36856     36855     36857     36856     36857     36858     36859
     36858     36860     36859     36860     36861     36862     36861     36863
     36862     36863     36864     36865     36864     36866     36865     36866
     36867     36868     36867     36869     36868     36869     36870     36871
     36870     36872     36871     36872     36873     36874     36873     36875
     36874     36875     36876     36877     36876     36878     36877     36878
     36879     36880     36879     36881     36880     36881     36882     36883
     36882     36884     36883     36884     36885     36886     36885     36887
     36886     36887     36888     36889     36888     36890     36889     36890
     36891     36892     36891     36893     36892     36893     36894     36895
     36894     36896     36895     36896     36897     36898     36897     36899
     36898     36899     36900     36901     36900     36902     36901     36902
     36903     36904     36903     36905     36904     36905     36906     36907
     36906     36908     36907     36908     36909     36910     36909     36911
     36910     36911     36912     36913     36912     36914     36913     36914
     36915     36916     36915     36917     36916     36917     36918     36919
     36918     36920     36919     36920     36921     36922     36921     36923
     36922     36923     36924     36925     36924     36926     36925     36926
     36927     36928     36927     36929     36928     36929     36930     36931
     36930     36932     36931     36932     36933     36934     36933     36935
     36934     36935     36936     36937     36936     36938     36937     36938
     36939     36940     36939     36941     36940     36941     36942     36943
     36942     36944     36943     36944     36945     36946     36945     36947
     36946     36947     36948     36949     36948     36950     36949     36950
     36951     36952     36951     36953     36952     36953     36954     36955
     36954     36956     36955     36956     36957     36958     36957     36959
     36958     36959     36960     36961     36960     36962     36961     36962
     36963     36964     36963     36965     36964     36965     36966     36967
     36966     36968     36967     36968     36969     36970     36969     36971
     36970     36971     36972     36973     36972     36974     36973     36974
     36975     36976     36975     36977     36976     36977     36978     36979
     36978     36980     36979     36980     36981     36982     36981     36983
     36982     36983     36984     36985     36984     36986     36985     36986
     36987     36988     36987     36989     36988     36989     36990     36991
     36990     36992     36991     36992     36993     36994     36993     36995
     36994     36995     36996     36997     36996     36998     36997     36998
     36999     37000     36999     37001     37000     37001     37002     37003
     37002     37004     37003     37004     37005     37006     37005     37007
     37006     37007     37008     37009     37008     37010     37009     37010
     37011     37012     37011     37013     37012     37013     37014     37015
     37014     37016     37015     37016     37017     37018     37017     37019
     37018     37019     37020     37021     37020     37022     37021     37022
     37023     37024     37023     37025     37024     37025     37026     37027
     37026     37028     37027     37028     37029     37030     37029     37031
     37030     37031     37032     37033     37032     37034     37033     37034
     37035     37036     37035     37037     37036     37037     37038     37039
     37038     37040     37039     37040     37041     37042     37041     37043
     37042     37043     37044     37045     37044     37046     37045     37046
     37047     37048     37047     37049     37048     37049     37050     37051
     37050     37052     37051     37052     37053     37054     37053     37055
     37054     37055     37056     37057     37056     37058     37057     37058
     37059     37060     37059     37061     37060     37061     37062     37063
     37062     37064     37063     37064     37065     37066     37065     37067
     37066     37067     37068     37069     37068     37070     37069     37070
     37071     37072     37071     37073     37072     37073     37074     37075
     37074     37076     37075     37076     37077     37078     37077     37079
     37078     37079     37080     37081     37080     37082     37081     37082
     37083     37084     37083     37085     37084     37085     37086     37087
     37086     37088     37087     37088     37089     37090     37089     37091
     37090     37091     37092     37093     37092     37094     37093     37094
     37095     37096     37095     37097     37096     37097     37098     37099
     37098     37100     37099     37100     37101     37102     37101     37103
     37102     37103     37104     37105     37104     37106     37105     37106
     37107     37108     37107     37109     37108     37109     37110     37111
     37110     37112     37111     37112     37113     37114     37113     37115
     37114     37115     37116     37117     37116     37118     37117     37118
     37119     37120     37119     37121     37120     37121     37122     37123
     37122     37124     37123     37124     37125     37126     37125     37127
     37126     37127     37128     37129     37128     37130     37129     37130
     37131     37132     37131     37133     37132     37133     37134     37135
     37134     37136     37135     37136     37137     37138     37137     37139
     37138     37139     37140     37141     37140     37142     37141     37142
     37143     37144     37143     37145     37144     37145     37146     37147
     37146     37148     37147     37148     37149     37150     37149     37151
     37150     37151     37152     37153     37152     37154     37153     37154
     37155     37156     37155     37157     37156     37157     37158     37159
     37158     37160     37159     37160     37161     37162     37161     37163
     37162     37163     37164     37165     37164     37166     37165     37166
     37167     37168     37167     37169     37168     37169     37170     37171
     37170     37172     37171     37172     37173     37174     37173     37175
     37174     37175     37176     37177     37176     37178     37177     37178
     37179     37180     37179     37181     37180     37181     37182     37183
     37182     37184     37183     37184     37185     37186     37185     37187
     37186     37187     37188     37189     37188     37190     37189     37190
     37191     37192     37191     37193     37192     37193     37194     37195
     37194     37196     37195     37196     37197     37198     37197     37199
     37198     37199     37200     37201     37200     37202     37201     37202
     37203     37204     37203     37205     37204     37205     37206     37207
     37206     37208     37207     37208     37209     37210     37209     37211
     37210     37211     37212     37213     37212     37214     37213     37214
     37215     37216     37215     37217     37216     37217     37218     37219
     37218     37220     37219     37220     37221     37222     37221     37223
     37222     37223     37224     37225     37224     37226     37225     37226
     37227     37228     37227     37229     37228     37229     37230     37231
     37230     37232     37231     37232     37233     37234     37233     37235
     37234     37235     37236     37237     37236     37238     37237     37238
     37239     37240     37239     37241     37240     37241     37242     37243
     37242     37244     37243     37244     37245     37246     37245     37247
     37246     37247     37248     37249     37248     37250     37249     37250
     37251     37252     37251     37253     37252     37253     37254     37255
     37254     37256     37255     37256     37257     37258     37257     37259
     37258     37259     37260     37261     37260     37262     37261     37262
     37263     37264     37263     37265     37264     37265     37266     37267
     37266     37268     37267     37268     37269     37270     37269     37271
     37270     37271     37272     37273     37272     37274     37273     37274
     37275     37276     37275     37277     37276     37277     37278     37279
     37278     37280     37279     37280     37281     37282     37281     37283
     37282     37283     37284     37285     37284     37286     37285     37286
     37287     37288     37287     37289     37288     37289     37290     37291
     37290     37292     37291     37292     37293     37294     37293     37295
     37294     37295     37296     37297     37296     37298     37297     37298
     37299     37300     37299     37301     37300     37301     37302     37303
     37302     37304     37303     37304     37305     37306     37305     37307
     37306     37307     37308     37309     37308     37310     37309     37310
     37311     37312     37311     37313     37312     37313     37314     37315
     37314     37316     37315     37316     37317     37318     37317     37319
     37318     37319     37320     37321     37320     37322     37321     37322
     37323     37324     37323     37325     37324     37325     37326     37327
     37326     37328     37327     37328     37329     37330     37329     37331
     37330     37331     37332     37333     37332     37334     37333     37334
     37335     37336     37335     37337     37336     37337     37338     37339
     37338     37340     37339     37340     37341     37342     37341     37343
     37342     37343     37344     37345     37344     37346     37345     37346
     37347     37348     37347     37349     37348     37349     37350     37351
     37350     37352     37351     37352     37353     37354     37353     37355
     37354     37355     37356     37357     37356     37358     37357     37358
     37359     37360     37359     37361     37360     37361     37362     37363
     37362     37364     37363     37364     37365     37366     37365     37367
     37366     37367     37368     37369     37368     37370     37369     37370
     37371     37372     37371     37373     37372     37373     37374     37375
     37374     37376     37375     37376     37377     37378     37377     37379
     37378     37379     37380     37381     37380     37382     37381     37382
     37383     37384     37383     37385     37384     37385     37386     37387
     37386     37388     37387     37388     37389     37390     37389     37391
     37390     37391     37392     37393     37392     37394     37393     37394
     37395     37396     37395     37397     37396     37397     37398     37399
     37398     37400     37399     37400     37401     37402     37401     37403
     37402     37403     37404     37405     37404     37406     37405     37406
     37407     37408     37407     37409     37408     37409     37410     37411
     37410     37412     37411     37412     37413     37414     37413     37415
     37414     37415     37416     37417     37416     37418     37417     37418
     37419     37420     37419     37421     37420     37421     37422     37423
     37422     37424     37423     37424     37425     37426     37425     37427
     37426     37427     37428     37429     37428     37430     37429     37430
     37431     37432     37431     37433     37432     37433     37434     37435
     37434     37436     37435     37436     37437     37438     37437     37439
     37438     37439     37440     37441     37440     37442     37441     37442
     37443     37444     37443     37445     37444     37445     37446     37447
     37446     37448     37447     37448     37449     37450     37449     37451
     37450     37451     37452     37453     37452     37454     37453     37454
     37455     37456     37455     37457     37456     37457     37458     37459
     37458     37460     37459     37460     37461     37462     37461     37463
     37462     37463     37464     37465     37464     37466     37465     37466
     37467     37468     37467     37469     37468     37469     37470     37471
     37470     37472     37471     37472     37473     37474     37473     37475
     37474     37475     37476     37477     37476     37478     37477     37478
     37479     37480     37479     37481     37480     37481     37482     37483
     37482     37484     37483     37484     37485     37486     37485     37487
     37486     37487     37488     37489     37488     37490     37489     37490
     37491     37492     37491     37493     37492     37493     37494     37495
     37494     37496     37495     37496     37497     37498     37497     37499
     37498     37499     37500     37501     37500     37502     37501     37502
     37503     37504     37503     37505     37504     37505     37506     37507
     37506     37508     37507     37508     37509     37510     37509     37511
     37510     37511     37512     37513     37512     37514     37513     37514
     37515     37516     37515     37517     37516     37517     37518     37519
     37518     37520     37519     37520     37521     37522     37521     37523
     37522     37523     37524     37525     37524     37526     37525     37526
     37527     37528     37527     37529     37528     37529     37530     37531
     37530     37532     37531     37532     37533     37534     37533     37535
     37534     37535     37536     37537     37536     37538     37537     37538
     37539     37540     37539     37541     37540     37541     37542     37543
     37542     37544     37543     37544     37545     37546     37545     37547
     37546     37547     37548     37549     37548     37550     37549     37550
     37551     37552     37551     37553     37552     37553     37554     37555
     37554     37556     37555     37556     37557     37558     37557     37559
     37558     37559     37560     37561     37560     37562     37561     37562
     37563     37564     37563     37565     37564     37565     37566     37567
     37566     37568     37567     37568     37569     37570     37569     37571
     37570     37571     37572     37573     37572     37574     37573     37574
     37575     37576     37575     37577     37576     37577     37578     37579
     37578     37580     37579     37580     37581     37582     37581     37583
     37582     37583     37584     37585     37584     37586     37585     37586
     37587     37588     37587     37589     37588     37589     37590     37591
     37590     37592     37591     37592     37593     37594     37593     37595
     37594     37595     37596     37597     37596     37598     37597     37598
     37599     37600     37599     37601     37600     37601     37602     37603
     37602     37604     37603     37604     37605     37606     37605     37607
     37606     37607     37608     37609     37608     37610     37609     37610
     37611     37612     37611     37613     37612     37613     37614     37615
     37614     37616     37615     37616     37617     37618     37617     37619
     37618     37619     37620     37621     37620     37622     37621     37622
     37623     37624     37623     37625     37624     37625     37626     37627
     37626     37628     37627     37628     37629     37630     37629     37631
     37630     37631     37632     37633     37632     37634     37633     37634
     37635     37636     37635     37637     37636     37637     37638     37639
     37638     37640     37639     37640     37641     37642     37641     37643
     37642     37643     37644     37645     37644     37646     37645     37646
     37647     37648     37647     37649     37648     37649     37650     37651
     37650     37652     37651     37652     37653     37654     37653     37655
     37654     37655     37656     37657     37656     37658     37657     37658
     37659     37660     37659     37661     37660     37661     37662     37663
     37662     37664     37663     37664     37665     37666     37665     37667
     37666     37667     37668     37669     37668     37670     37669     37670
     37671     37672     37671     37673     37672     37673     37674     37675
     37674     37676     37675     37676     37677     37678     37677     37679
     37678     37679     37680     37681     37680     37682     37681     37682
     37683     37684     37683     37685     37684     37685     37686     37687
     37686     37688     37687     37688     37689     37690     37689     37691
     37690     37691     37692     37693     37692     37694     37693     37694
     37695     37696     37695     37697     37696     37697     37698     37699
     37698     37700     37699     37700     37701     37702     37701     37703
     37702     37703     37704     37705     37704     37706     37705     37706
     37707     37708     37707     37709     37708     37709     37710     37711
     37710     37712     37711     37712     37713     37714     37713     37715
     37714     37715     37716     37717     37716     37718     37717     37718
     37719     37720     37719     37721     37720     37721     37722     37723
     37722     37724     37723     37724     37725     37726     37725     37727
     37726     37727     37728     37729     37728     37730     37729     37730
     37731     37732     37731     37733     37732     37733     37734     37735
     37734     37736     37735     37736     37737     37738     37737     37739
     37738     37739     37740     37741     37740     37742     37741     37742
     37743     37744     37743     37745     37744     37745     37746     37747
     37746     37748     37747     37748     37749     37750     37749     37751
     37750     37751     37752     37753     37752     37754     37753     37754
     37755     37756     37755     37757     37756     37757     37758     37759
     37758     37760     37759     37760     37761     37762     37761     37763
     37762     37763     37764     37765     37764     37766     37765     37766
     37767     37768     37767     37769     37768     37769     37770     37771
     37770     37772     37771     37772     37773     37774     37773     37775
     37774     37775     37776     37777     37776     37778     37777     37778
     37779     37780     37779     37781     37780     37781     37782     37783
     37782     37784     37783     37784     37785     37786     37785     37787
     37786     37787     37788     37789     37788     37790     37789     37790
     37791     37792     37791     37793     37792     37793     37794     37795
     37794     37796     37795     37796     37797     37798     37797     37799
     37798     37799     37800     37801     37800     37802     37801     37802
     37803     37804     37803     37805     37804     37805     37806     37807
     37806     37808     37807     37808     37809     37810     37809     37811
     37810     37811     37812     37813     37812     37814     37813     37814
     37815     37816     37815     37817     37816     37817     37818     37819
     37818     37820     37819     37820     37821     37822     37821     37823
     37822     37823     37824     37825     37824     37826     37825     37826
     37827     37828     37827     37829     37828     37829     37830     37831
     37830     37832     37831     37832     37833     37834     37833     37835
     37834     37835     37836     37837     37836     37838     37837     37838
     37839     37840     37839     37841     37840     37841     37842     37843
     37842     37844     37843     37844     37845     37846     37845     37847
     37846     37847     37848     37849     37848     37850     37849     37850
     37851     37852     37851     37853     37852     37853     37854     37855
     37854     37856     37855     37856     37857     37858     37857     37859
     37858     37859     37860     37861     37860     37862     37861     37862
     37863     37864     37863     37865     37864     37865     37866     37867
     37866     37868     37867     37868     37869     37870     37869     37871
     37870     37871     37872     37873     37872     37874     37873     37874
     37875     37876     37875     37877     37876     37877     37878     37879
     37878     37880     37879     37880     37881     37882     37881     37883
     37882     37883     37884     37885     37884     37886     37885     37886
     37887     37888     37887     37889     37888     37889     37890     37891
     37890     37892     37891     37892     37893     37894     37893     37895
     37894     37895     37896     37897     37896     37898     37897     37898
     37899     37900     37899     37901     37900     37901     37902     37903
     37902     37904     37903     37904     37905     37906     37905     37907
     37906     37907     37908     37909     37908     37910     37909     37910
     37911     37912     37911     37913     37912     37913     37914     37915
     37914     37916     37915     37916     37917     37918     37917     37919
     37918     37919     37920     37921     37920     37922     37921     37922
     37923     37924     37923     37925     37924     37925     37926     37927
     37926     37928     37927     37928     37929     37930     37929     37931
     37930     37931     37932     37933     37932     37934     37933     37934
     37935     37936     37935     37937     37936     37937     37938     37939
     37938     37940     37939     37940     37941     37942     37941     37943
     37942     37943     37944     37945     37944     37946     37945     37946
     37947     37948     37947     37949     37948     37949     37950     37951
     37950     37952     37951     37952     37953     37954     37953     37955
     37954     37955     37956     37957     37956     37958     37957     37958
     37959     37960     37959     37961     37960     37961     37962     37963
     37962     37964     37963     37964     37965     37966     37965     37967
     37966     37967     37968     37969     37968     37970     37969     37970
     37971     37972     37971     37973     37972     37973     37974     37975
     37974     37976     37975     37976     37977     37978     37977     37979
     37978     37979     37980     37981     37980     37982     37981     37982
     37983     37984     37983     37985     37984     37985     37986     37987
     37986     37988     37987     37988     37989     37990     37989     37991
     37990     37991     37992     37993     37992     37994     37993     37994
     37995     37996     37995     37997     37996     37997     37998     37999
     37998     38000     37999     38000     38001     38002     38001     38003
     38002     38003     38004     38005     38004     38006     38005     38006
     38007     38008     38007     38009     38008     38009     38010     38011
     38010     38012     38011     38012     38013     38014     38013     38015
     38014     38015     38016     38017     38016     38018     38017     38018
     38019     38020     38019     38021     38020     38021     38022     38023
     38022     38024     38023     38024     38025     38026     38025     38027
     38026     38027     38028     38029     38028     38030     38029     38030
     38031     38032     38031     38033     38032     38033     38034     38035
     38034     38036     38035     38036     38037     38038     38037     38039
     38038     38039     38040     38041     38040     38042     38041     38042
     38043     38044     38043     38045     38044     38045     38046     38047
     38046     38048     38047     38048     38049     38050     38049     38051
     38050     38051     38052     38053     38052     38054     38053     38054
     38055     38056     38055     38057     38056     38057     38058     38059
     38058     38060     38059     38060     38061     38062     38061     38063
     38062     38063     38064     38065     38064     38066     38065     38066
     38067     38068     38067     38069     38068     38069     38070     38071
     38070     38072     38071     38072     38073     38074     38073     38075
     38074     38075     38076     38077     38076     38078     38077     38078
     38079     38080     38079     38081     38080     38081     38082     38083
     38082     38084     38083     38084     38085     38086     38085     38087
     38086     38087     38088     38089     38088     38090     38089     38090
     38091     38092     38091     38093     38092     38093     38094     38095
     38094     38096     38095     38096     38097     38098     38097     38099
     38098     38099     38100     38101     38100     38102     38101     38102
     38103     38104     38103     38105     38104     38105     38106     38107
     38106     38108     38107     38108     38109     38110     38109     38111
     38110     38111     38112     38113     38112     38114     38113     38114
     38115     38116     38115     38117     38116     38117     38118     38119
     38118     38120     38119     38120     38121     38122     38121     38123
     38122     38123     38124     38125     38124     38126     38125     38126
     38127     38128     38127     38129     38128     38129     38130     38131
     38130     38132     38131     38132     38133     38134     38133     38135
     38134     38135     38136     38137     38136     38138     38137     38138
     38139     38140     38139     38141     38140     38141     38142     38143
     38142     38144     38143     38144     38145     38146     38145     38147
     38146     38147     38148     38149     38148     38150     38149     38150
     38151     38152     38151     38153     38152     38153     38154     38155
     38154     38156     38155     38156     38157     38158     38157     38159
     38158     38159     38160     38161     38160     38162     38161     38162
     38163     38164     38163     38165     38164     38165     38166     38167
     38166     38168     38167     38168     38169     38170     38169     38171
     38170     38171     38172     38173     38172     38174     38173     38174
     38175     38176     38175     38177     38176     38177     38178     38179
     38178     38180     38179     38180     38181     38182     38181     38183
     38182     38183     38184     38185     38184     38186     38185     38186
     38187     38188     38187     38189     38188     38189     38190     38191
     38190     38192     38191     38192     38193     38194     38193     38195
     38194     38195     38196     38197     38196     38198     38197     38198
     38199     38200     38199     38201     38200     38201     38202     38203
     38202     38204     38203     38204     38205     38206     38205     38207
     38206     38207     38208     38209     38208     38210     38209     38210
     38211     38212     38211     38213     38212     38213     38214     38215
     38214     38216     38215     38216     38217     38218     38217     38219
     38218     38219     38220     38221     38220     38222     38221     38222
     38223     38224     38223     38225     38224     38225     38226     38227
     38226     38228     38227     38228     38229     38230     38229     38231
     38230     38231     38232     38233     38232     38234     38233     38234
     38235     38236     38235     38237     38236     38237     38238     38239
     38238     38240     38239     38240     38241     38242     38241     38243
     38242     38243     38244     38245     38244     38246     38245     38246
     38247     38248     38247     38249     38248     38249     38250     38251
     38250     38252     38251     38252     38253     38254     38253     38255
     38254     38255     38256     38257     38256     38258     38257     38258
     38259     38260     38259     38261     38260     38261     38262     38263
     38262     38264     38263     38264     38265     38266     38265     38267
     38266     38267     38268     38269     38268     38270     38269     38270
     38271     38272     38271     38273     38272     38273     38274     38275
     38274     38276     38275     38276     38277     38278     38277     38279
     38278     38279     38280     38281     38280     38282     38281     38282
     38283     38284     38283     38285     38284     38285     38286     38287
     38286     38288     38287     38288     38289     38290     38289     38291
     38290     38291     38292     38293     38292     38294     38293     38294
     38295     38296     38295     38297     38296     38297     38298     38299
     38298     38300     38299     38300     38301     38302     38301     38303
     38302     38303     38304     38305     38304     38306     38305     38306
     38307     38308     38307     38309     38308     38309     38310     38311
     38310     38312     38311     38312     38313     38314     38313     38315
     38314     38315     38316     38317     38316     38318     38317     38318
     38319     38320     38319     38321     38320     38321     38322     38323
     38322     38324     38323     38324     38325     38326     38325     38327
     38326     38327     38328     38329     38328     38330     38329     38330

     42052 !NTHETA: angles
         2         1         3         2         1         4         2         1         5
         3         1         4         3         1         5         4         1         5
         1         5         6         1         5         7         1         5         8
         6         5         7         6         5         8         7         5         8
         5         8         9         5         8        10         9         8        10
         8        10        11         8        10        12        11        10        12
        10        12        13        10        12        14        10        12        18
        13        12        14        13        12        18        14        12        18
        12        14        15        12        14        16        12        14        17
        15        14        16        15        14        17        16        14        17
        12        18        19        12        18        20        19        18        20
        18        20        21        18        20        22        21        20        22
        20        22        23        20        22        24        20        22        37
        23        22        24        23        22        37        24        22        37
        22        24        25        22        24        26        22        24        27
        25        24        26        25        24        27        26        24        27
        24        27        28        24        27        29        24        27        33
        28        27        29        28        27        33        29        27        33
        27        29        30        27        29        31        27        29        32
        30        29        31        30        29        32        31        29        32
        27        33        34        27        33        35        27        33        36
        34        33        35        34        33        36        35        33        36
        22        37        38        22        37        39        38        37        39
        37        39        40        37        39        41        40        39        41
        39        41        42        39        41        43        39        41        47
        42        41        43        42        41        47        43        41        47
        41        43        44        41        43        45        41        43        46
        44        43        45        44        43        46        45        43        46
        41        47        48        41        47        49        48        47        49
        47        49        50        47        49        51        50        49        51
        49        51        52        49        51        53        49        51        63
        52        51        53        52        51        63        53        51        63
        51        53        54        51        53        55        51        53        59
        54        53        55        54        53        59        55        53        59
        53        55        56        53        55        57        53        55        58
        56        55        57        56        55        58        57        55        58
        53        59        60        53        59        61        53        59        62
        60        59        61        60        59        62        61        59        62
        51        63        64        51        63        65        64        63        65
        63        65        66        63        65        67        66        65        67
        65        67        68        65        67        69        65        67        79
        68        67        69        68        67        79        69        67        79
        67        69        70        67        69        71        67        69        75
        70        69        71        70        69        75        71        69        75
        69        71        72        69        71        73        69        71        74
        72        71        73        72        71        74        73        71        74
        69        75        76        69        75        77        69        75        78
        76        75        77        76        75        78        77        75        78
        67        79        80        67        79        81        80        79        81
        79        81        82        79        81        83        82        81        83
        81        83        84        81        83        85        81        83        95
        84        83        85        84        83        95        85        83        95
        83        85        86        83        85        87        83        85        91
        86        85        87        86        85        91        87        85        91
        85        87        88        85        87        89        85        87        90
        88        87        89        88        87        90        89        87        90
        85        91        92        85        91        93        85        91        94
        92        91        93        92        91        94        93        91        94
        83        95        96        83        95        97        96        95        97
        95        97        98        95        97        99        98        97        99
        97        99       100        97        99       101        97        99       119
       100        99       101       100        99       119       101        99       119
        99       101       102        99       101       103        99       101       104
       102       101       103       102       101       104       103       101       104
       101       104       105       101       104       110       105       104       110
       104       105       106       104       105       107       106       105       107
       105       107       108       105       107       109       108       107       109
       107       109       110       107       109       115       110       109       115
       104       110       109       104       110       111       109       110       111
       110       111       112       110       111       113       112       111       113
       111       113       114       111       113       117       114       113       117
       109       115       116       109       115       117       116       115       117
       113       117       115       113       117       118       115       117       118
        99       119       120        99       119       121       120       119       121
       119       121       122       119       121       123       122       121       123
       121       123       124       121       123       125       121       123       138
       124       123       125       124       123       138       125       123       138
       123       125       126       123       125       127       123       125       128
       126       125       127       126       125       128       127       125       128
       125       128       129       125       128       130       125       128       134
       129       128       130       129       128       134       130       128       134
       128       130       131       128       130       132       128       130       133
       131       130       132       131       130       133       132       130       133
       128       134       135       128       134       136       128       134       137
       135       134       136       135       134       137       136       134       137
       123       138       139       123       138       140       139       138       140
       138       140       141       138       140       142       141       140       142
       140       142       143       140       142       144       140       142       162
       143       142       144       143       142       162       144       142       162
       142       144       145       142       144       146       142       144       147
       145       144       146       145       144       147       146       144       147
       144       147       148       144       147       153       148       147       153
       147       148       149       147       148       150       149       148       150
       148       150       151       148       150       152       151       150       152
       150       152       153       150       152       158       153       152       158
       147       153       152       147       153       154       152       153       154
       153       154       155       153       154       156       155       154       156
       154       156       157       154       156       160       157       156       160
       152       158       159       152       158       160       159       158       160
       156       160       158       156       160       161       158       160       161
       142       162       163       142       162       164       163       162       164
       162       164       165       162       164       166       165       164       166
       164       166       167       164       166       168       164       166       181
       167       166       168       167       166       181       168       166       181
       166       168       169       166       168       170       166       168       171
       169       168       170       169       168       171       170       168       171
       168       171       172       168       171       173       168       171       177
       172       171       173       172       171       177       173       171       177
       171       173       174       171       173       175       171       173       176
       174       173       175       174       173       176       175       173       176
       171       177       178       171       177       179       171       177       180
       178       177       179       178       177       180       179       177       180
       166       181       182       166       181       183       182       181       183
       181       183       184       181       183       185       184       183       185
       183       185       186       183       185       187       183       185       205
       186       185       187       186       185       205       187       185       205
       185       187       188       185       187       189       185       187       190
       188       187       189       188       187       190       189       187       190
       187       190       191       187       190       196       191       190       196
       190       191       192       190       191       193       192       191       193
       191       193       194       191       193       195       194       193       195
       193       195       196       193       195       201       196       195       201
       190       196       195       190       196       197       195       196       197
       196       197       198       196       197       199       198       197       199
       197       199       200       197       199       203       200       199       203
       195       201       202       195       201       203       202       201       203
       199       203       201       199       203       204       201       203       204
       185       205       206       185       205       207       206       205       207
       205       207       208       205       207       209       208       207       209
       207       209       210       207       209       211       207       209       224
       210       209       211       210       209       224       211       209       224
       209       211       212       209       211       213       209       211       214
       212       211       213       212       211       214       213       211       214
       211       214       215       211       214       216       211       214       220
       215       214       216       215       214       220       216       214       220
       214       216       217       214       216       218       214       216       219
       217       216       218       217       216       219       218       216       219
       214       220       221       214       220       222       214       220       223
       221       220       222       221       220       223       222       220       223
       209       224       225       209       224       226       225       224       226
       224       226       227       224       226       228       227       226       228
       226       228       229       226       228       230       226       228       248
       229       228       230       229       228       248       230       228       248
       228       230       231       228       230       232       228       230       233
       231       230       232       231       230       233       232       230       233
       230       233       234       230       233       239       234       233       239
       233       234       235       233       234       236       235       234       236
       234       236       237       234       236       238       237       236       238
       236       238       239       236       238       244       239       238       244
       233       239       238       233       239       240       238       239       240
       239       240       241       239       240       242       241       240       242
       240       242       243       240       242       246       243       242       246
       238       244       245       238       244       246       245       244       246
       242       246       244       242       246       247       244       246       247
       228       248       249       228       248       250       249       248       250
       252       251       253       252       251       254       252       251       255
       253       251       254       253       251       255       254       251       255
       251       255       256       251       255       257       251       255       258
       256       255       257       256       255       258       257       255       258
       255       258       259       255       258       260       259       258       260
       258       260       261       258       260       262       261       260       262
       260       262       263       260       262       264       260       262       268
       263       262       264       263       262       268       264       262       268
       262       264       265       262       264       266       262       264       267
       265       264       266       265       264       267       266       264       267
       262       268       269       262       268       270       269       268       270
       268       270       271       268       270       272       271       270       272
       270       272       273       270       272       274       270       272       287
       273       272       274       273       272       287       274       272       287
       272       274       275       272       274       276       272       274       277
       275       274       276       275       274       277       276       274       277
       274       277       278       274       277       279       274       277       283
       278       277       279       278       277       283       279       277       283
       277       279       280       277       279       281       277       279       282
       280       279       281       280       279       282       281       279       282
       277       283       284       277       283       285       277       283       286
       284       283       285       284       283       286       285       283       286
       272       287       288       272       287       289       288       287       289
       287       289       290       287       289       291       290       289       291
       289       291       292       289       291       293       289       291       297
       292       291       293       292       291       297       293       291       297
       291       293       294       291       293       295       291       293       296
       294       293       295       294       293       296       295       293       296
       291       297       298       291       297       299       298       297       299
       297       299       300       297       299       301       300       299       301
       299       301       302       299       301       303       299       301       313
       302       301       303       302       301       313       303       301       313
       301       303       304       301       303       305       301       303       309
       304       303       305       304       303       309       305       303       309
       303       305       306       303       305       307       303       305       308
       306       305       307       306       305       308       307       305       308
       303       309       310       303       309       311       303       309       312
       310       309       311       310       309       312       311       309       312
       301       313       314       301       313       315       314       313       315
       313       315       316       313       315       317       316       315       317
       315       317       318       315       317       319       315       317       329
       318       317       319       318       317       329       319       317       329
       317       319       320       317       319       321       317       319       325
       320       319       321       320       319       325       321       319       325
       319       321       322       319       321       323       319       321       324
       322       321       323       322       321       324       323       321       324
       319       325       326       319       325       327       319       325       328
       326       325       327       326       325       328       327       325       328
       317       329       330       317       329       331       330       329       331
       329       331       332       329       331       333       332       331       333
       331       333       334       331       333       335       331       333       345
       334       333       335       334       333       345       335       333       345
       333       335       336       333       335       337       333       335       341
       336       335       337       336       335       341       337       335       341
       335       337       338       335       337       339       335       337       340
       338       337       339       338       337       340       339       337       340
       335       341       342       335       341       343       335       341       344
       342       341       343       342       341       344       343       341       344
       333       345       346       333       345       347       346       345       347
       345       347       348       345       347       349       348       347       349
       347       349       350       347       349       351       347       349       369
       350       349       351       350       349       369       351       349       369
       349       351       352       349       351       353       349       351       354
       352       351       353       352       351       354       353       351       354
       351       354       355       351       354       360       355       354       360
       354       355       356       354       355       357       356       355       357
       355       357       358       355       357       359       358       357       359
       357       359       360       357       359       365       360       359       365
       354       360       359       354       360       361       359       360       361
       360       361       362       360       361       363       362       361       363
       361       363       364       361       363       367       364       363       367
       359       365       366       359       365       367       366       365       367
       363       367       365       363       367       368       365       367       368
       349       369       370       349       369       371       370       369       371
       369       371       372       369       371       373       372       371       373
       371       373       374       371       373       375       371       373       388
       374       373       375       374       373       388       375       373       388
       373       375       376       373       375       377       373       375       378
       376       375       377       376       375       378       377       375       378
       375       378       379       375       378       380       375       378       384
       379       378       380       379       378       384       380       378       384
       378       380       381       378       380       382       378       380       383
       381       380       382       381       380       383       382       380       383
       378       384       385       378       384       386       378       384       387
       385       384       386       385       384       387       386       384       387
       373       388       389       373       388       390       389       388       390
       388       390       391       388       390       392       391       390       392
       390       392       393       390       392       394       390       392       412
       393       392       394       393       392       412       394       392       412
       392       394       395       392       394       396       392       394       397
       395       394       396       395       394       397       396       394       397
       394       397       398       394       397       403       398       397       403
       397       398       399       397       398       400       399       398       400
       398       400       401       398       400       402       401       400       402
       400       402       403       400       402       408       403       402       408
       397       403       402       397       403       404       402       403       404
       403       404       405       403       404       406       405       404       406
       404       406       407       404       406       410       407       406       410
       402       408       409       402       408       410       409       408       410
       406       410       408       406       410       411       408       410       411
       392       412       413       392       412       414       413       412       414
       412       414       415       412       414       416       415       414       416
       414       416       417       414       416       418       414       416       431
       417       416       418       417       416       431       418       416       431
       416       418       419       416       418       420       416       418       421
       419       418       420       419       418       421       420       418       421
       418       421       422       418       421       423       418       421       427
       422       421       423       422       421       427       423       421       427
       421       423       424       421       423       425       421       423       426
       424       423       425       424       423       426       425       423       426
       421       427       428       421       427       429       421       427       430
       428       427       429       428       427       430       429       427       430
       416       431       432       416       431       433       432       431       433
       431       433       434       431       433       435       434       433       435
       433       435       436       433       435       437       433       435       455
       436       435       437       436       435       455       437       435       455
       435       437       438       435       437       439       435       437       440
       438       437       439       438       437       440       439       437       440
       437       440       441       437       440       446       441       440       446
       440       441       442       440       441       443       442       441       443
       441       443       444       441       443       445       444       443       445
       443       445       446       443       445       451       446       445       451
       440       446       445       440       446       447       445       446       447
       446       447       448       446       447       449       448       447       449
       447       449       450       447       449       453       450       449       453
       445       451       452       445       451       453       452       451       453
       449       453       451       449       453       454       451       453       454
       435       455       456       435       455       457       456       455       457
       455       457       458       455       457       459       458       457       459
       457       459       460       457       459       461       457       459       474
       460       459       461       460       459       474       461       459       474
       459       461       462       459       461       463       459       461       464
       462       461       463       462       461       464       463       461       464
       461       464       465       461       464       466       461       464       470
       465       464       466       465       464       470       466       464       470
       464       466       467       464       466       468       464       466       469
       467       466       468       467       466       469       468       466       469
       464       470       471       464       470       472       464       470       473
       471       470       472       471       470       473       472       470       473
       459       474       475       459       474       476       475       474       476
       474       476       477       474       476       478       477       476       478
       476       478       479       476       478       480       476       478       498
       479       478       480       479       478       498       480       478       498
       478       480       481       478       480       482       478       480       483
       481       480       482       481       480       483       482       480       483
       480       483       484       480       483       489       484       483       489
       483       484       485       483       484       486       485       484       486
       484       486       487       484       486       488       487       486       488
       486       488       489       486       488       494       489       488       494
       483       489       488       483       489       490       488       489       490
       489       490       491       489       490       492       491       490       492
       490       492       493       490       492       496       493       492       496
       488       494       495       488       494       496       495       494       496
       492       496       494       492       496       497       494       496       497
       478       498       499       478       498       500       499       498       500
       502       501       505       502       501       509       502       501       513
       505       501       509       505       501       513       509       501       513
       501       502       503       501       502       504       501       502       517
       503       502       504       503       502       517       504       502       517
       501       505       506       501       505       507       501       505       508
       506       505       507       506       505       508       507       505       508
       501       509       510       501       509       511       501       509       512
       510       509       511       510       509       512       511       509       512
       501       513       514       501       513       515       501       513       516
       514       513       515       514       513       516       515       513       516
       502       517       518       502       517       519       502       517       523
       518       517       519       518       517       523       519       517       523
       521       520       522       521       520       523       521       520       524
       522       520       523       522       520       524       523       520       524
       517       523       520       520       524       525       524       525       526
       524       525       527       524       525       528       526       525       527
       526       525       528       527       525       528       525       528       529
       525       528       530       525       528       536       529       528       530
       529       528       536       530       528       536       528       530       531
       530       531       532       530       531       533       532       531       533
       531       533       534       531       533       535       531       533       545
       534       533       535       534       533       545       535       533       545
       528       536       537       528       536       538       528       536       539
       537       536       538       537       536       539       538       536       539
       536       539       540       539       540       541       539       540       542
       541       540       542       540       542       543       540       542       544
       540       542       592       543       542       544       543       542       592
       544       542       592       533       545       546       533       545       547
       533       545       548       546       545       547       546       545       548
       547       545       548       545       548       549       545       548       550
       545       548       551       549       548       550       549       548       551
       550       548       551       548       551       552       548       551       553
       548       551       554       552       551       553       552       551       554
       553       551       554       551       554       555       551       554       556
       551       554       557       555       554       556       555       554       557
       556       554       557       554       557       558       554       557       559
       554       557       560       558       557       559       558       557       560
       559       557       560       557       560       561       557       560       562
       557       560       563       561       560       562       561       560       563
       562       560       563       560       563       564       560       563       565
       564       563       565       563       565       566       563       565       567
       566       565       567       565       567       568       565       567       569
       565       567       570       568       567       569       568       567       570
       569       567       570       567       570       571       567       570       572
       567       570       573       571       570       572       571       570       573
       572       570       573       570       573       574       570       573       575
       570       573       576       574       573       575       574       573       576
       575       573       576       573       576       577       573       576       578
       573       576       579       577       576       578       577       576       579
       578       576       579       576       579       580       576       579       581
       576       579       582       580       579       581       580       579       582
       581       579       582       579       582       583       579       582       584
       579       582       585       583       582       584       583       582       585
       584       582       585       582       585       586       582       585       587
       582       585       588       586       585       587       586       585       588
       587       585       588       585       588       589       585       588       590
       585       588       591       589       588       590       589       588       591
       590       588       591       542       592       593       542       592       594
       542       592       595       593       592       594       593       592       595
       594       592       595       592       595       596       592       595       597
       592       595       598       596       595       597       596       595       598
       597       595       598       595       598       599       595       598       600
       595       598       601       599       598       600       599       598       601
       600       598       601       598       601       602       598       601       603
       598       601       604       602       601       603       602       601       604
       603       601       604       601       604       605       601       604       606
       601       604       607       605       604       606       605       604       607
       606       604       607       604       607       608       604       607       609
       604       607       610       608       607       609       608       607       610
       609       607       610       607       610       611       607       610       612
       611       610       612       610       612       613       610       612       614
       613       612       614       612       614       615       612       614       616
       612       614       617       615       614       616       615       614       617
       616       614       617       614       617       618       614       617       619
       614       617       620       618       617       619       618       617       620
       619       617       620       617       620       621       617       620       622
       617       620       623       621       620       622       621       620       623
       622       620       623       620       623       624       620       623       625
       620       623       626       624       623       625       624       623       626
       625       623       626       623       626       627       623       626       628
       623       626       629       627       626       628       627       626       629
       628       626       629       626       629       630       626       629       631
       626       629       632       630       629       631       630       629       632
       631       629       632       629       632       633       629       632       634
       629       632       635       633       632       634       633       632       635
       634       632       635       632       635       636       632       635       637
       632       635       638       636       635       637       636       635       638
       637       635       638       640       639       643       640       639       647
       640       639       651       643       639       647       643       639       651
       647       639       651       639       640       641       639       640       642
       639       640       655       641       640       642       641       640       655
       642       640       655       639       643       644       639       643       645
       639       643       646       644       643       645       644       643       646
       645       643       646       639       647       648       639       647       649
       639       647       650       648       647       649       648       647       650
       649       647       650       639       651       652       639       651       653
       639       651       654       652       651       653       652       651       654
       653       651       654       640       655       656       640       655       657
       640       655       661       656       655       657       656       655       661
       657       655       661       659       658       660       659       658       661
       659       658       662       660       658       661       660       658       662
       661       658       662       655       661       658       658       662       663
       662       663       664       662       663       665       662       663       666
       664       663       665       664       663       666       665       663       666
       663       666       667       663       666       668       663       666       674
       667       666       668       667       666       674       668       666       674
       666       668       669       668       669       670       668       669       671
       670       669       671       669       671       672       669       671       673
       669       671       683       672       671       673       672       671       683
       673       671       683       666       674       675       666       674       676
       666       674       677       675       674       676       675       674       677
       676       674       677       674       677       678       677       678       679
       677       678       680       679       678       680       678       680       681
       678       680       682       678       680       730       681       680       682
       681       680       730       682       680       730       671       683       684
       671       683       685       671       683       686       684       683       685
       684       683       686       685       683       686       683       686       687
       683       686       688       683       686       689       687       686       688
       687       686       689       688       686       689       686       689       690
       686       689       691       686       689       692       690       689       691
       690       689       692       691       689       692       689       692       693
       689       692       694       689       692       695       693       692       694
       693       692       695       694       692       695       692       695       696
       692       695       697       692       695       698       696       695       697
       696       695       698       697       695       698       695       698       699
       695       698       700       695       698       701       699       698       700
       699       698       701       700       698       701       698       701       702
       698       701       703       702       701       703       701       703       704
       701       703       705       704       703       705       703       705       706
       703       705       707       703       705       708       706       705       707
       706       705       708       707       705       708       705       708       709
       705       708       710       705       708       711       709       708       710
       709       708       711       710       708       711       708       711       712
       708       711       713       708       711       714       712       711       713
       712       711       714       713       711       714       711       714       715
       711       714       716       711       714       717       715       714       716
       715       714       717       716       714       717       714       717       718
       714       717       719       714       717       720       718       717       719
       718       717       720       719       717       720       717       720       721
       717       720       722       717       720       723       721       720       722
       721       720       723       722       720       723       720       723       724
       720       723       725       720       723       726       724       723       725
       724       723       726       725       723       726       723       726       727
       723       726       728       723       726       729       727       726       728
       727       726       729       728       726       729       680       730       731
       680       730       732       680       730       733       731       730       732
       731       730       733       732       730       733       730       733       734
       730       733       735       730       733       736       734       733       735
       734       733       736       735       733       736       733       736       737
       733       736       738       733       736       739       737       736       738
       737       736       739       738       736       739       736       739       740
       736       739       741       736       739       742       740       739       741
       740       739       742       741       739       742       739       742       743
       739       742       744       739       742       745       743       742       744
       743       742       745       744       742       745       742       745       746
       742       745       747       742       745       748       746       745       747
       746       745       748       747       745       748       745       748       749
       745       748       750       749       748       750       748       750       751
       748       750       752       751       750       752       750       752       753
       750       752       754       750       752       755       753       752       754
       753       752       755       754       752       755       752       755       756
       752       755       757       752       755       758       756       755       757
       756       755       758       757       755       758       755       758       759
       755       758       760       755       758       761       759       758       760
       759       758       761       760       758       761       758       761       762
       758       761       763       758       761       764       762       761       763
       762       761       764       763       761       764       761       764       765
       761       764       766       761       764       767       765       764       766
       765       764       767       766       764       767       764       767       768
       764       767       769       764       767       770       768       767       769
       768       767       770       769       767       770       767       770       771
       767       770       772       767       770       773       771       770       772
       771       770       773       772       770       773       770       773       774
       770       773       775       770       773       776       774       773       775
       774       773       776       775       773       776       778       777       781
       778       777       785       778       777       789       781       777       785
       781       777       789       785       777       789       777       778       779
       777       778       780       777       778       793       779       778       780
       779       778       793       780       778       793       777       781       782
       777       781       783       777       781       784       782       781       783
       782       781       784       783       781       784       777       785       786
       777       785       787       777       785       788       786       785       787
       786       785       788       787       785       788       777       789       790
       777       789       791       777       789       792       790       789       791
       790       789       792       791       789       792       778       793       794
       778       793       795       778       793       799       794       793       795
       794       793       799       795       793       799       797       796       798
       797       796       799       797       796       800       798       796       799
       798       796       800       799       796       800       793       799       796
       796       800       801       800       801       802       800       801       803
       800       801       804       802       801       803       802       801       804
       803       801       804       801       804       805       801       804       806
       801       804       812       805       804       806       805       804       812
       806       804       812       804       806       807       806       807       808
       806       807       809       808       807       809       807       809       810
       807       809       811       807       809       821       810       809       811
       810       809       821       811       809       821       804       812       813
       804       812       814       804       812       815       813       812       814
       813       812       815       814       812       815       812       815       816
       815       816       817       815       816       818       817       816       818
       816       818       819       816       818       820       816       818       868
       819       818       820       819       818       868       820       818       868
       809       821       822       809       821       823       809       821       824
       822       821       823       822       821       824       823       821       824
       821       824       825       821       824       826       821       824       827
       825       824       826       825       824       827       826       824       827
       824       827       828       824       827       829       824       827       830
       828       827       829       828       827       830       829       827       830
       827       830       831       827       830       832       827       830       833
       831       830       832       831       830       833       832       830       833
       830       833       834       830       833       835       830       833       836
       834       833       835       834       833       836       835       833       836
       833       836       837       833       836       838       833       836       839
       837       836       838       837       836       839       838       836       839
       836       839       840       836       839       841       840       839       841
       839       841       842       839       841       843       842       841       843
       841       843       844       841       843       845       841       843       846
       844       843       845       844       843       846       845       843       846
       843       846       847       843       846       848       843       846       849
       847       846       848       847       846       849       848       846       849
       846       849       850       846       849       851       846       849       852
       850       849       851       850       849       852       851       849       852
       849       852       853       849       852       854       849       852       855
       853       852       854       853       852       855       854       852       855
       852       855       856       852       855       857       852       855       858
       856       855       857       856       855       858       857       855       858
       855       858       859       855       858       860       855       858       861
       859       858       860       859       858       861       860       858       861
       858       861       862       858       861       863       858       861       864
       862       861       863       862       861       864       863       861       864
       861       864       865       861       864       866       861       864       867
       865       864       866       865       864       867       866       864       867
       818       868       869       818       868       870       818       868       871
       869       868       870       869       868       871       870       868       871
       868       871       872       868       871       873       868       871       874
       872       871       873       872       871       874       873       871       874
       871       874       875       871       874       876       871       874       877
       875       874       876       875       874       877       876       874       877
       874       877       878       874       877       879       874       877       880
       878       877       879       878       877       880       879       877       880
       877       880       881       877       880       882       877       880       883
       881       880       882       881       880       883       882       880       883
       880       883       884       880       883       885       880       883       886
       884       883       885       884       883       886       885       883       886
       883       886       887       883       886       888       887       886       888
       886       888       889       886       888       890       889       888       890
       888       890       891       888       890       892       888       890       893
       891       890       892       891       890       893       892       890       893
       890       893       894       890       893       895       890       893       896
       894       893       895       894       893       896       895       893       896
       893       896       897       893       896       898       893       896       899
       897       896       898       897       896       899       898       896       899
       896       899       900       896       899       901       896       899       902
       900       899       901       900       899       902       901       899       902
       899       902       903       899       902       904       899       902       905
       903       902       904       903       902       905       904       902       905
       902       905       906       902       905       907       902       905       908
       906       905       907       906       905       908       907       905       908
       905       908       909       905       908       910       905       908       911
       909       908       910       909       908       911       910       908       911
       908       911       912       908       911       913       908       911       914
       912       911       913       912       911       914       913       911       914
       916       915       919       916       915       923       916       915       927
       919       915       923       919       915       927       923       915       927
       915       916       917       915       916       918       915       916       931
       917       916       918       917       916       931       918       916       931
       915       919       920       915       919       921       915       919       922
       920       919       921       920       919       922       921       919       922
       915       923       924       915       923       925       915       923       926
       924       923       925       924       923       926       925       923       926
       915       927       928       915       927       929       915       927       930
       928       927       929       928       927       930       929       927       930
       916       931       932       916       931       933       916       931       937
       932       931       933       932       931       937       933       931       937
       935       934       936       935       934       937       935       934       938
       936       934       937       936       934       938       937       934       938
       931       937       934       934       938       939       938       939       940
       938       939       941       938       939       942       940       939       941
       940       939       942       941       939       942       939       942       943
       939       942       944       939       942       950       943       942       944
       943       942       950       944       942       950       942       944       945
       944       945       946       944       945       947       946       945       947
       945       947       948       945       947       949       945       947       959
       948       947       949       948       947       959       949       947       959
       942       950       951       942       950       952       942       950       953
       951       950       952       951       950       953       952       950       953
       950       953       954       953       954       955       953       954       956
       955       954       956       954       956       957       954       956       958
       954       956      1006       957       956       958       957       956      1006
       958       956      1006       947       959       960       947       959       961
       947       959       962       960       959       961       960       959       962
       961       959       962       959       962       963       959       962       964
       959       962       965       963       962       964       963       962       965
       964       962       965       962       965       966       962       965       967
       962       965       968       966       965       967       966       965       968
       967       965       968       965       968       969       965       968       970
       965       968       971       969       968       970       969       968       971
       970       968       971       968       971       972       968       971       973
       968       971       974       972       971       973       972       971       974
       973       971       974       971       974       975       971       974       976
       971       974       977       975       974       976       975       974       977
       976       974       977       974       977       978       974       977       979
       978       977       979       977       979       980       977       979       981
       980       979       981       979       981       982       979       981       983
       979       981       984       982       981       983       982       981       984
       983       981       984       981       984       985       981       984       986
       981       984       987       985       984       986       985       984       987
       986       984       987       984       987       988       984       987       989
       984       987       990       988       987       989       988       987       990
       989       987       990       987       990       991       987       990       992
       987       990       993       991       990       992       991       990       993
       992       990       993       990       993       994       990       993       995
       990       993       996       994       993       995       994       993       996
       995       993       996       993       996       997       993       996       998
       993       996       999       997       996       998       997       996       999
       998       996       999       996       999      1000       996       999      1001
       996       999      1002      1000       999      1001      1000       999      1002
      1001       999      1002       999      1002      1003       999      1002      1004
       999      1002      1005      1003      1002      1004      1003      1002      1005
      1004      1002      1005       956      1006      1007       956      1006      1008
       956      1006      1009      1007      1006      1008      1007      1006      1009
      1008      1006      1009      1006      1009      1010      1006      1009      1011
      1006      1009      1012      1010      1009      1011      1010      1009      1012
      1011      1009      1012      1009      1012      1013      1009      1012      1014
      1009      1012      1015      1013      1012      1014      1013      1012      1015
      1014      1012      1015      1012      1015      1016      1012      1015      1017
      1012      1015      1018      1016      1015      1017      1016      1015      1018
      1017      1015      1018      1015      1018      1019      1015      1018      1020
      1015      1018      1021      1019      1018      1020      1019      1018      1021
      1020      1018      1021      1018      1021      1022      1018      1021      1023
      1018      1021      1024      1022      1021      1023      1022      1021      1024
      1023      1021      1024      1021      1024      1025      1021      1024      1026
      1025      1024      1026      1024      1026      1027      1024      1026      1028
      1027      1026      1028      1026      1028      1029      1026      1028      1030
      1026      1028      1031      1029      1028      1030      1029      1028      1031
      1030      1028      1031      1028      1031      1032      1028      1031      1033
      1028      1031      1034      1032      1031      1033      1032      1031      1034
      1033      1031      1034      1031      1034      1035      1031      1034      1036
      1031      1034      1037      1035      1034      1036      1035      1034      1037
      1036      1034      1037      1034      1037      1038      1034      1037      1039
      1034      1037      1040      1038      1037      1039      1038      1037      1040
      1039      1037      1040      1037      1040      1041      1037      1040      1042
      1037      1040      1043      1041      1040      1042      1041      1040      1043
      1042      1040      1043      1040      1043      1044      1040      1043      1045
      1040      1043      1046      1044      1043      1045      1044      1043      1046
      1045      1043      1046      1043      1046      1047      1043      1046      1048
      1043      1046      1049      1047      1046      1048      1047      1046      1049
      1048      1046      1049      1046      1049      1050      1046      1049      1051
      1046      1049      1052      1050      1049      1051      1050      1049      1052
      1051      1049      1052      1054      1053      1057      1054      1053      1061
      1054      1053      1065      1057      1053      1061      1057      1053      1065
      1061      1053      1065      1053      1054      1055      1053      1054      1056
      1053      1054      1069      1055      1054      1056      1055      1054      1069
      1056      1054      1069      1053      1057      1058      1053      1057      1059
      1053      1057      1060      1058      1057      1059      1058      1057      1060
      1059      1057      1060      1053      1061      1062      1053      1061      1063
      1053      1061      1064      1062      1061      1063      1062      1061      1064
      1063      1061      1064      1053      1065      1066      1053      1065      1067
      1053      1065      1068      1066      1065      1067      1066      1065      1068
      1067      1065      1068      1054      1069      1070      1054      1069      1071
      1054      1069      1075      1070      1069      1071      1070      1069      1075
      1071      1069      1075      1073      1072      1074      1073      1072      1075
      1073      1072      1076      1074      1072      1075      1074      1072      1076
      1075      1072      1076      1069      1075      1072      1072      1076      1077
      1076      1077      1078      1076      1077      1079      1076      1077      1080
      1078      1077      1079      1078      1077      1080      1079      1077      1080
      1077      1080      1081      1077      1080      1082      1077      1080      1088
      1081      1080      1082      1081      1080      1088      1082      1080      1088
      1080      1082      1083      1082      1083      1084      1082      1083      1085
      1084      1083      1085      1083      1085      1086      1083      1085      1087
      1083      1085      1097      1086      1085      1087      1086      1085      1097
      1087      1085      1097      1080      1088      1089      1080      1088      1090
      1080      1088      1091      1089      1088      1090      1089      1088      1091
      1090      1088      1091      1088      1091      1092      1091      1092      1093
      1091      1092      1094      1093      1092      1094      1092      1094      1095
      1092      1094      1096      1092      1094      1144      1095      1094      1096
      1095      1094      1144      1096      1094      1144      1085      1097      1098
      1085      1097      1099      1085      1097      1100      1098      1097      1099
      1098      1097      1100      1099      1097      1100      1097      1100      1101
      1097      1100      1102      1097      1100      1103      1101      1100      1102
      1101      1100      1103      1102      1100      1103      1100      1103      1104
      1100      1103      1105      1100      1103      1106      1104      1103      1105
      1104      1103      1106      1105      1103      1106      1103      1106      1107
      1103      1106      1108      1103      1106      1109      1107      1106      1108
      1107      1106      1109      1108      1106      1109      1106      1109      1110
      1106      1109      1111      1106      1109      1112      1110      1109      1111
      1110      1109      1112      1111      1109      1112      1109      1112      1113
      1109      1112      1114      1109      1112      1115      1113      1112      1114
      1113      1112      1115      1114      1112      1115      1112      1115      1116
      1112      1115      1117      1116      1115      1117      1115      1117      1118
      1115      1117      1119      1118      1117      1119      1117      1119      1120
      1117      1119      1121      1117      1119      1122      1120      1119      1121
      1120      1119      1122      1121      1119      1122      1119      1122      1123
      1119      1122      1124      1119      1122      1125      1123      1122      1124
      1123      1122      1125      1124      1122      1125      1122      1125      1126
      1122      1125      1127      1122      1125      1128      1126      1125      1127
      1126      1125      1128      1127      1125      1128      1125      1128      1129
      1125      1128      1130      1125      1128      1131      1129      1128      1130
      1129      1128      1131      1130      1128      1131      1128      1131      1132
      1128      1131      1133      1128      1131      1134      1132      1131      1133
      1132      1131      1134      1133      1131      1134      1131      1134      1135
      1131      1134      1136      1131      1134      1137      1135      1134      1136
      1135      1134      1137      1136      1134      1137      1134      1137      1138
      1134      1137      1139      1134      1137      1140      1138      1137      1139
      1138      1137      1140      1139      1137      1140      1137      1140      1141
      1137      1140      1142      1137      1140      1143      1141      1140      1142
      1141      1140      1143      1142      1140      1143      1094      1144      1145
      1094      1144      1146      1094      1144      1147      1145      1144      1146
      1145      1144      1147      1146      1144      1147      1144      1147      1148
      1144      1147      1149      1144      1147      1150      1148      1147      1149
      1148      1147      1150      1149      1147      1150      1147      1150      1151
      1147      1150      1152      1147      1150      1153      1151      1150      1152
      1151      1150      1153      1152      1150      1153      1150      1153      1154
      1150      1153      1155      1150      1153      1156      1154      1153      1155
      1154      1153      1156      1155      1153      1156      1153      1156      1157
      1153      1156      1158      1153      1156      1159      1157      1156      1158
      1157      1156      1159      1158      1156      1159      1156      1159      1160
      1156      1159      1161      1156      1159      1162      1160      1159      1161
      1160      1159      1162      1161      1159      1162      1159      1162      1163
      1159      1162      1164      1163      1162      1164      1162      1164      1165
      1162      1164      1166      1165      1164      1166      1164      1166      1167
      1164      1166      1168      1164      1166      1169      1167      1166      1168
      1167      1166      1169      1168      1166      1169      1166      1169      1170
      1166      1169      1171      1166      1169      1172      1170      1169      1171
      1170      1169      1172      1171      1169      1172      1169      1172      1173
      1169      1172      1174      1169      1172      1175      1173      1172      1174
      1173      1172      1175      1174      1172      1175      1172      1175      1176
      1172      1175      1177      1172      1175      1178      1176      1175      1177
      1176      1175      1178      1177      1175      1178      1175      1178      1179
      1175      1178      1180      1175      1178      1181      1179      1178      1180
      1179      1178      1181      1180      1178      1181      1178      1181      1182
      1178      1181      1183      1178      1181      1184      1182      1181      1183
      1182      1181      1184      1183      1181      1184      1181      1184      1185
      1181      1184      1186      1181      1184      1187      1185      1184      1186
      1185      1184      1187      1186      1184      1187      1184      1187      1188
      1184      1187      1189      1184      1187      1190      1188      1187      1189
      1188      1187      1190      1189      1187      1190      1192      1191      1195
      1192      1191      1199      1192      1191      1203      1195      1191      1199
      1195      1191      1203      1199      1191      1203      1191      1192      1193
      1191      1192      1194      1191      1192      1207      1193      1192      1194
      1193      1192      1207      1194      1192      1207      1191      1195      1196
      1191      1195      1197      1191      1195      1198      1196      1195      1197
      1196      1195      1198      1197      1195      1198      1191      1199      1200
      1191      1199      1201      1191      1199      1202      1200      1199      1201
      1200      1199      1202      1201      1199      1202      1191      1203      1204
      1191      1203      1205      1191      1203      1206      1204      1203      1205
      1204      1203      1206      1205      1203      1206      1192      1207      1208
      1192      1207      1209      1192      1207      1213      1208      1207      1209
      1208      1207      1213      1209      1207      1213      1211      1210      1212
      1211      1210      1213      1211      1210      1214      1212      1210      1213
      1212      1210      1214      1213      1210      1214      1207      1213      1210
      1210      1214      1215      1214      1215      1216      1214      1215      1217
      1214      1215      1218      1216      1215      1217      1216      1215      1218
      1217      1215      1218      1215      1218      1219      1215      1218      1220
      1215      1218      1226      1219      1218      1220      1219      1218      1226
      1220      1218      1226      1218      1220      1221      1220      1221      1222
      1220      1221      1223      1222      1221      1223      1221      1223      1224
      1221      1223      1225      1221      1223      1235      1224      1223      1225
      1224      1223      1235      1225      1223      1235      1218      1226      1227
      1218      1226      1228      1218      1226      1229      1227      1226      1228
      1227      1226      1229      1228      1226      1229      1226      1229      1230
      1229      1230      1231      1229      1230      1232      1231      1230      1232
      1230      1232      1233      1230      1232      1234      1230      1232      1282
      1233      1232      1234      1233      1232      1282      1234      1232      1282
      1223      1235      1236      1223      1235      1237      1223      1235      1238
      1236      1235      1237      1236      1235      1238      1237      1235      1238
      1235      1238      1239      1235      1238      1240      1235      1238      1241
      1239      1238      1240      1239      1238      1241      1240      1238      1241
      1238      1241      1242      1238      1241      1243      1238      1241      1244
      1242      1241      1243      1242      1241      1244      1243      1241      1244
      1241      1244      1245      1241      1244      1246      1241      1244      1247
      1245      1244      1246      1245      1244      1247      1246      1244      1247
      1244      1247      1248      1244      1247      1249      1244      1247      1250
      1248      1247      1249      1248      1247      1250      1249      1247      1250
      1247      1250      1251      1247      1250      1252      1247      1250      1253
      1251      1250      1252      1251      1250      1253      1252      1250      1253
      1250      1253      1254      1250      1253      1255      1254      1253      1255
      1253      1255      1256      1253      1255      1257      1256      1255      1257
      1255      1257      1258      1255      1257      1259      1255      1257      1260
      1258      1257      1259      1258      1257      1260      1259      1257      1260
      1257      1260      1261      1257      1260      1262      1257      1260      1263
      1261      1260      1262      1261      1260      1263      1262      1260      1263
      1260      1263      1264      1260      1263      1265      1260      1263      1266
      1264      1263      1265      1264      1263      1266      1265      1263      1266
      1263      1266      1267      1263      1266      1268      1263      1266      1269
      1267      1266      1268      1267      1266      1269      1268      1266      1269
      1266      1269      1270      1266      1269      1271      1266      1269      1272
      1270      1269      1271      1270      1269      1272      1271      1269      1272
      1269      1272      1273      1269      1272      1274      1269      1272      1275
      1273      1272      1274      1273      1272      1275      1274      1272      1275
      1272      1275      1276      1272      1275      1277      1272      1275      1278
      1276      1275      1277      1276      1275      1278      1277      1275      1278
      1275      1278      1279      1275      1278      1280      1275      1278      1281
      1279      1278      1280      1279      1278      1281      1280      1278      1281
      1232      1282      1283      1232      1282      1284      1232      1282      1285
      1283      1282      1284      1283      1282      1285      1284      1282      1285
      1282      1285      1286      1282      1285      1287      1282      1285      1288
      1286      1285      1287      1286      1285      1288      1287      1285      1288
      1285      1288      1289      1285      1288      1290      1285      1288      1291
      1289      1288      1290      1289      1288      1291      1290      1288      1291
      1288      1291      1292      1288      1291      1293      1288      1291      1294
      1292      1291      1293      1292      1291      1294      1293      1291      1294
      1291      1294      1295      1291      1294      1296      1291      1294      1297
      1295      1294      1296      1295      1294      1297      1296      1294      1297
      1294      1297      1298      1294      1297      1299      1294      1297      1300
      1298      1297      1299      1298      1297      1300      1299      1297      1300
      1297      1300      1301      1297      1300      1302      1301      1300      1302
      1300      1302      1303      1300      1302      1304      1303      1302      1304
      1302      1304      1305      1302      1304      1306      1302      1304      1307
      1305      1304      1306      1305      1304      1307      1306      1304      1307
      1304      1307      1308      1304      1307      1309      1304      1307      1310
      1308      1307      1309      1308      1307      1310      1309      1307      1310
      1307      1310      1311      1307      1310      1312      1307      1310      1313
      1311      1310      1312      1311      1310      1313      1312      1310      1313
      1310      1313      1314      1310      1313      1315      1310      1313      1316
      1314      1313      1315      1314      1313      1316      1315      1313      1316
      1313      1316      1317      1313      1316      1318      1313      1316      1319
      1317      1316      1318      1317      1316      1319      1318      1316      1319
      1316      1319      1320      1316      1319      1321      1316      1319      1322
      1320      1319      1321      1320      1319      1322      1321      1319      1322
      1319      1322      1323      1319      1322      1324      1319      1322      1325
      1323      1322      1324      1323      1322      1325      1324      1322      1325
      1322      1325      1326      1322      1325      1327      1322      1325      1328
      1326      1325      1327      1326      1325      1328      1327      1325      1328
      1330      1329      1333      1330      1329      1337      1330      1329      1341
      1333      1329      1337      1333      1329      1341      1337      1329      1341
      1329      1330      1331      1329      1330      1332      1329      1330      1345
      1331      1330      1332      1331      1330      1345      1332      1330      1345
      1329      1333      1334      1329      1333      1335      1329      1333      1336
      1334      1333      1335      1334      1333      1336      1335      1333      1336
      1329      1337      1338      1329      1337      1339      1329      1337      1340
      1338      1337      1339      1338      1337      1340      1339      1337      1340
      1329      1341      1342      1329      1341      1343      1329      1341      1344
      1342      1341      1343      1342      1341      1344      1343      1341      1344
      1330      1345      1346      1330      1345      1347      1330      1345      1351
      1346      1345      1347      1346      1345      1351      1347      1345      1351
      1349      1348      1350      1349      1348      1351      1349      1348      1352
      1350      1348      1351      1350      1348      1352      1351      1348      1352
      1345      1351      1348      1348      1352      1353      1352      1353      1354
      1352      1353      1355      1352      1353      1356      1354      1353      1355
      1354      1353      1356      1355      1353      1356      1353      1356      1357
      1353      1356      1358      1353      1356      1364      1357      1356      1358
      1357      1356      1364      1358      1356      1364      1356      1358      1359
      1358      1359      1360      1358      1359      1361      1360      1359      1361
      1359      1361      1362      1359      1361      1363      1359      1361      1373
      1362      1361      1363      1362      1361      1373      1363      1361      1373
      1356      1364      1365      1356      1364      1366      1356      1364      1367
      1365      1364      1366      1365      1364      1367      1366      1364      1367
      1364      1367      1368      1367      1368      1369      1367      1368      1370
      1369      1368      1370      1368      1370      1371      1368      1370      1372
      1368      1370      1420      1371      1370      1372      1371      1370      1420
      1372      1370      1420      1361      1373      1374      1361      1373      1375
      1361      1373      1376      1374      1373      1375      1374      1373      1376
      1375      1373      1376      1373      1376      1377      1373      1376      1378
      1373      1376      1379      1377      1376      1378      1377      1376      1379
      1378      1376      1379      1376      1379      1380      1376      1379      1381
      1376      1379      1382      1380      1379      1381      1380      1379      1382
      1381      1379      1382      1379      1382      1383      1379      1382      1384
      1379      1382      1385      1383      1382      1384      1383      1382      1385
      1384      1382      1385      1382      1385      1386      1382      1385      1387
      1382      1385      1388      1386      1385      1387      1386      1385      1388
      1387      1385      1388      1385      1388      1389      1385      1388      1390
      1385      1388      1391      1389      1388      1390      1389      1388      1391
      1390      1388      1391      1388      1391      1392      1388      1391      1393
      1392      1391      1393      1391      1393      1394      1391      1393      1395
      1394      1393      1395      1393      1395      1396      1393      1395      1397
      1393      1395      1398      1396      1395      1397      1396      1395      1398
      1397      1395      1398      1395      1398      1399      1395      1398      1400
      1395      1398      1401      1399      1398      1400      1399      1398      1401
      1400      1398      1401      1398      1401      1402      1398      1401      1403
      1398      1401      1404      1402      1401      1403      1402      1401      1404
      1403      1401      1404      1401      1404      1405      1401      1404      1406
      1401      1404      1407      1405      1404      1406      1405      1404      1407
      1406      1404      1407      1404      1407      1408      1404      1407      1409
      1404      1407      1410      1408      1407      1409      1408      1407      1410
      1409      1407      1410      1407      1410      1411      1407      1410      1412
      1407      1410      1413      1411      1410      1412      1411      1410      1413
      1412      1410      1413      1410      1413      1414      1410      1413      1415
      1410      1413      1416      1414      1413      1415      1414      1413      1416
      1415      1413      1416      1413      1416      1417      1413      1416      1418
      1413      1416      1419      1417      1416      1418      1417      1416      1419
      1418      1416      1419      1370      1420      1421      1370      1420      1422
      1370      1420      1423      1421      1420      1422      1421      1420      1423
      1422      1420      1423      1420      1423      1424      1420      1423      1425
      1420      1423      1426      1424      1423      1425      1424      1423      1426
      1425      1423      1426      1423      1426      1427      1423      1426      1428
      1423      1426      1429      1427      1426      1428      1427      1426      1429
      1428      1426      1429      1426      1429      1430      1426      1429      1431
      1426      1429      1432      1430      1429      1431      1430      1429      1432
      1431      1429      1432      1429      1432      1433      1429      1432      1434
      1429      1432      1435      1433      1432      1434      1433      1432      1435
      1434      1432      1435      1432      1435      1436      1432      1435      1437
      1432      1435      1438      1436      1435      1437      1436      1435      1438
      1437      1435      1438      1435      1438      1439      1435      1438      1440
      1439      1438      1440      1438      1440      1441      1438      1440      1442
      1441      1440      1442      1440      1442      1443      1440      1442      1444
      1440      1442      1445      1443      1442      1444      1443      1442      1445
      1444      1442      1445      1442      1445      1446      1442      1445      1447
      1442      1445      1448      1446      1445      1447      1446      1445      1448
      1447      1445      1448      1445      1448      1449      1445      1448      1450
      1445      1448      1451      1449      1448      1450      1449      1448      1451
      1450      1448      1451      1448      1451      1452      1448      1451      1453
      1448      1451      1454      1452      1451      1453      1452      1451      1454
      1453      1451      1454      1451      1454      1455      1451      1454      1456
      1451      1454      1457      1455      1454      1456      1455      1454      1457
      1456      1454      1457      1454      1457      1458      1454      1457      1459
      1454      1457      1460      1458      1457      1459      1458      1457      1460
      1459      1457      1460      1457      1460      1461      1457      1460      1462
      1457      1460      1463      1461      1460      1462      1461      1460      1463
      1462      1460      1463      1460      1463      1464      1460      1463      1465
      1460      1463      1466      1464      1463      1465      1464      1463      1466
      1465      1463      1466      1468      1467      1471      1468      1467      1475
      1468      1467      1479      1471      1467      1475      1471      1467      1479
      1475      1467      1479      1467      1468      1469      1467      1468      1470
      1467      1468      1483      1469      1468      1470      1469      1468      1483
      1470      1468      1483      1467      1471      1472      1467      1471      1473
      1467      1471      1474      1472      1471      1473      1472      1471      1474
      1473      1471      1474      1467      1475      1476      1467      1475      1477
      1467      1475      1478      1476      1475      1477      1476      1475      1478
      1477      1475      1478      1467      1479      1480      1467      1479      1481
      1467      1479      1482      1480      1479      1481      1480      1479      1482
      1481      1479      1482      1468      1483      1484      1468      1483      1485
      1468      1483      1489      1484      1483      1485      1484      1483      1489
      1485      1483      1489      1487      1486      1488      1487      1486      1489
      1487      1486      1490      1488      1486      1489      1488      1486      1490
      1489      1486      1490      1483      1489      1486      1486      1490      1491
      1490      1491      1492      1490      1491      1493      1490      1491      1494
      1492      1491      1493      1492      1491      1494      1493      1491      1494
      1491      1494      1495      1491      1494      1496      1491      1494      1502
      1495      1494      1496      1495      1494      1502      1496      1494      1502
      1494      1496      1497      1496      1497      1498      1496      1497      1499
      1498      1497      1499      1497      1499      1500      1497      1499      1501
      1497      1499      1511      1500      1499      1501      1500      1499      1511
      1501      1499      1511      1494      1502      1503      1494      1502      1504
      1494      1502      1505      1503      1502      1504      1503      1502      1505
      1504      1502      1505      1502      1505      1506      1505      1506      1507
      1505      1506      1508      1507      1506      1508      1506      1508      1509
      1506      1508      1510      1506      1508      1558      1509      1508      1510
      1509      1508      1558      1510      1508      1558      1499      1511      1512
      1499      1511      1513      1499      1511      1514      1512      1511      1513
      1512      1511      1514      1513      1511      1514      1511      1514      1515
      1511      1514      1516      1511      1514      1517      1515      1514      1516
      1515      1514      1517      1516      1514      1517      1514      1517      1518
      1514      1517      1519      1514      1517      1520      1518      1517      1519
      1518      1517      1520      1519      1517      1520      1517      1520      1521
      1517      1520      1522      1517      1520      1523      1521      1520      1522
      1521      1520      1523      1522      1520      1523      1520      1523      1524
      1520      1523      1525      1520      1523      1526      1524      1523      1525
      1524      1523      1526      1525      1523      1526      1523      1526      1527
      1523      1526      1528      1523      1526      1529      1527      1526      1528
      1527      1526      1529      1528      1526      1529      1526      1529      1530
      1526      1529      1531      1530      1529      1531      1529      1531      1532
      1529      1531      1533      1532      1531      1533      1531      1533      1534
      1531      1533      1535      1531      1533      1536      1534      1533      1535
      1534      1533      1536      1535      1533      1536      1533      1536      1537
      1533      1536      1538      1533      1536      1539      1537      1536      1538
      1537      1536      1539      1538      1536      1539      1536      1539      1540
      1536      1539      1541      1536      1539      1542      1540      1539      1541
      1540      1539      1542      1541      1539      1542      1539      1542      1543
      1539      1542      1544      1539      1542      1545      1543      1542      1544
      1543      1542      1545      1544      1542      1545      1542      1545      1546
      1542      1545      1547      1542      1545      1548      1546      1545      1547
      1546      1545      1548      1547      1545      1548      1545      1548      1549
      1545      1548      1550      1545      1548      1551      1549      1548      1550
      1549      1548      1551      1550      1548      1551      1548      1551      1552
      1548      1551      1553      1548      1551      1554      1552      1551      1553
      1552      1551      1554      1553      1551      1554      1551      1554      1555
      1551      1554      1556      1551      1554      1557      1555      1554      1556
      1555      1554      1557      1556      1554      1557      1508      1558      1559
      1508      1558      1560      1508      1558      1561      1559      1558      1560
      1559      1558      1561      1560      1558      1561      1558      1561      1562
      1558      1561      1563      1558      1561      1564      1562      1561      1563
      1562      1561      1564      1563      1561      1564      1561      1564      1565
      1561      1564      1566      1561      1564      1567      1565      1564      1566
      1565      1564      1567      1566      1564      1567      1564      1567      1568
      1564      1567      1569      1564      1567      1570      1568      1567      1569
      1568      1567      1570      1569      1567      1570      1567      1570      1571
      1567      1570      1572      1567      1570      1573      1571      1570      1572
      1571      1570      1573      1572      1570      1573      1570      1573      1574
      1570      1573      1575      1570      1573      1576      1574      1573      1575
      1574      1573      1576      1575      1573      1576      1573      1576      1577
      1573      1576      1578      1577      1576      1578      1576      1578      1579
      1576      1578      1580      1579      1578      1580      1578      1580      1581
      1578      1580      1582      1578      1580      1583      1581      1580      1582
      1581      1580      1583      1582      1580      1583      1580      1583      1584
      1580      1583      1585      1580      1583      1586      1584      1583      1585
      1584      1583      1586      1585      1583      1586      1583      1586      1587
      1583      1586      1588      1583      1586      1589      1587      1586      1588
      1587      1586      1589      1588      1586      1589      1586      1589      1590
      1586      1589      1591      1586      1589      1592      1590      1589      1591
      1590      1589      1592      1591      1589      1592      1589      1592      1593
      1589      1592      1594      1589      1592      1595      1593      1592      1594
      1593      1592      1595      1594      1592      1595      1592      1595      1596
      1592      1595      1597      1592      1595      1598      1596      1595      1597
      1596      1595      1598      1597      1595      1598      1595      1598      1599
      1595      1598      1600      1595      1598      1601      1599      1598      1600
      1599      1598      1601      1600      1598      1601      1598      1601      1602
      1598      1601      1603      1598      1601      1604      1602      1601      1603
      1602      1601      1604      1603      1601      1604      1606      1605      1609
      1606      1605      1613      1606      1605      1617      1609      1605      1613
      1609      1605      1617      1613      1605      1617      1605      1606      1607
      1605      1606      1608      1605      1606      1621      1607      1606      1608
      1607      1606      1621      1608      1606      1621      1605      1609      1610
      1605      1609      1611      1605      1609      1612      1610      1609      1611
      1610      1609      1612      1611      1609      1612      1605      1613      1614
      1605      1613      1615      1605      1613      1616      1614      1613      1615
      1614      1613      1616      1615      1613      1616      1605      1617      1618
      1605      1617      1619      1605      1617      1620      1618      1617      1619
      1618      1617      1620      1619      1617      1620      1606      1621      1622
      1606      1621      1623      1606      1621      1627      1622      1621      1623
      1622      1621      1627      1623      1621      1627      1625      1624      1626
      1625      1624      1627      1625      1624      1628      1626      1624      1627
      1626      1624      1628      1627      1624      1628      1621      1627      1624
      1624      1628      1629      1628      1629      1630      1628      1629      1631
      1628      1629      1632      1630      1629      1631      1630      1629      1632
      1631      1629      1632      1629      1632      1633      1629      1632      1634
      1629      1632      1640      1633      1632      1634      1633      1632      1640
      1634      1632      1640      1632      1634      1635      1634      1635      1636
      1634      1635      1637      1636      1635      1637      1635      1637      1638
      1635      1637      1639      1635      1637      1649      1638      1637      1639
      1638      1637      1649      1639      1637      1649      1632      1640      1641
      1632      1640      1642      1632      1640      1643      1641      1640      1642
      1641      1640      1643      1642      1640      1643      1640      1643      1644
      1643      1644      1645      1643      1644      1646      1645      1644      1646
      1644      1646      1647      1644      1646      1648      1644      1646      1696
      1647      1646      1648      1647      1646      1696      1648      1646      1696
      1637      1649      1650      1637      1649      1651      1637      1649      1652
      1650      1649      1651      1650      1649      1652      1651      1649      1652
      1649      1652      1653      1649      1652      1654      1649      1652      1655
      1653      1652      1654      1653      1652      1655      1654      1652      1655
      1652      1655      1656      1652      1655      1657      1652      1655      1658
      1656      1655      1657      1656      1655      1658      1657      1655      1658
      1655      1658      1659      1655      1658      1660      1655      1658      1661
      1659      1658      1660      1659      1658      1661      1660      1658      1661
      1658      1661      1662      1658      1661      1663      1658      1661      1664
      1662      1661      1663      1662      1661      1664      1663      1661      1664
      1661      1664      1665      1661      1664      1666      1661      1664      1667
      1665      1664      1666      1665      1664      1667      1666      1664      1667
      1664      1667      1668      1664      1667      1669      1668      1667      1669
      1667      1669      1670      1667      1669      1671      1670      1669      1671
      1669      1671      1672      1669      1671      1673      1669      1671      1674
      1672      1671      1673      1672      1671      1674      1673      1671      1674
      1671      1674      1675      1671      1674      1676      1671      1674      1677
      1675      1674      1676      1675      1674      1677      1676      1674      1677
      1674      1677      1678      1674      1677      1679      1674      1677      1680
      1678      1677      1679      1678      1677      1680      1679      1677      1680
      1677      1680      1681      1677      1680      1682      1677      1680      1683
      1681      1680      1682      1681      1680      1683      1682      1680      1683
      1680      1683      1684      1680      1683      1685      1680      1683      1686
      1684      1683      1685      1684      1683      1686      1685      1683      1686
      1683      1686      1687      1683      1686      1688      1683      1686      1689
      1687      1686      1688      1687      1686      1689      1688      1686      1689
      1686      1689      1690      1686      1689      1691      1686      1689      1692
      1690      1689      1691      1690      1689      1692      1691      1689      1692
      1689      1692      1693      1689      1692      1694      1689      1692      1695
      1693      1692      1694      1693      1692      1695      1694      1692      1695
      1646      1696      1697      1646      1696      1698      1646      1696      1699
      1697      1696      1698      1697      1696      1699      1698      1696      1699
      1696      1699      1700      1696      1699      1701      1696      1699      1702
      1700      1699      1701      1700      1699      1702      1701      1699      1702
      1699      1702      1703      1699      1702      1704      1699      1702      1705
      1703      1702      1704      1703      1702      1705      1704      1702      1705
      1702      1705      1706      1702      1705      1707      1702      1705      1708
      1706      1705      1707      1706      1705      1708      1707      1705      1708
      1705      1708      1709      1705      1708      1710      1705      1708      1711
      1709      1708      1710      1709      1708      1711      1710      1708      1711
      1708      1711      1712      1708      1711      1713      1708      1711      1714
      1712      1711      1713      1712      1711      1714      1713      1711      1714
      1711      1714      1715      1711      1714      1716      1715      1714      1716
      1714      1716      1717      1714      1716      1718      1717      1716      1718
      1716      1718      1719      1716      1718      1720      1716      1718      1721
      1719      1718      1720      1719      1718      1721      1720      1718      1721
      1718      1721      1722      1718      1721      1723      1718      1721      1724
      1722      1721      1723      1722      1721      1724      1723      1721      1724
      1721      1724      1725      1721      1724      1726      1721      1724      1727
      1725      1724      1726      1725      1724      1727      1726      1724      1727
      1724      1727      1728      1724      1727      1729      1724      1727      1730
      1728      1727      1729      1728      1727      1730      1729      1727      1730
      1727      1730      1731      1727      1730      1732      1727      1730      1733
      1731      1730      1732      1731      1730      1733      1732      1730      1733
      1730      1733      1734      1730      1733      1735      1730      1733      1736
      1734      1733      1735      1734      1733      1736      1735      1733      1736
      1733      1736      1737      1733      1736      1738      1733      1736      1739
      1737      1736      1738      1737      1736      1739      1738      1736      1739
      1736      1739      1740      1736      1739      1741      1736      1739      1742
      1740      1739      1741      1740      1739      1742      1741      1739      1742
      1744      1743      1747      1744      1743      1751      1744      1743      1755
      1747      1743      1751      1747      1743      1755      1751      1743      1755
      1743      1744      1745      1743      1744      1746      1743      1744      1759
      1745      1744      1746      1745      1744      1759      1746      1744      1759
      1743      1747      1748      1743      1747      1749      1743      1747      1750
      1748      1747      1749      1748      1747      1750      1749      1747      1750
      1743      1751      1752      1743      1751      1753      1743      1751      1754
      1752      1751      1753      1752      1751      1754      1753      1751      1754
      1743      1755      1756      1743      1755      1757      1743      1755      1758
      1756      1755      1757      1756      1755      1758      1757      1755      1758
      1744      1759      1760      1744      1759      1761      1744      1759      1765
      1760      1759      1761      1760      1759      1765      1761      1759      1765
      1763      1762      1764      1763      1762      1765      1763      1762      1766
      1764      1762      1765      1764      1762      1766      1765      1762      1766
      1759      1765      1762      1762      1766      1767      1766      1767      1768
      1766      1767      1769      1766      1767      1770      1768      1767      1769
      1768      1767      1770      1769      1767      1770      1767      1770      1771
      1767      1770      1772      1767      1770      1778      1771      1770      1772
      1771      1770      1778      1772      1770      1778      1770      1772      1773
      1772      1773      1774      1772      1773      1775      1774      1773      1775
      1773      1775      1776      1773      1775      1777      1773      1775      1787
      1776      1775      1777      1776      1775      1787      1777      1775      1787
      1770      1778      1779      1770      1778      1780      1770      1778      1781
      1779      1778      1780      1779      1778      1781      1780      1778      1781
      1778      1781      1782      1781      1782      1783      1781      1782      1784
      1783      1782      1784      1782      1784      1785      1782      1784      1786
      1782      1784      1834      1785      1784      1786      1785      1784      1834
      1786      1784      1834      1775      1787      1788      1775      1787      1789
      1775      1787      1790      1788      1787      1789      1788      1787      1790
      1789      1787      1790      1787      1790      1791      1787      1790      1792
      1787      1790      1793      1791      1790      1792      1791      1790      1793
      1792      1790      1793      1790      1793      1794      1790      1793      1795
      1790      1793      1796      1794      1793      1795      1794      1793      1796
      1795      1793      1796      1793      1796      1797      1793      1796      1798
      1793      1796      1799      1797      1796      1798      1797      1796      1799
      1798      1796      1799      1796      1799      1800      1796      1799      1801
      1796      1799      1802      1800      1799      1801      1800      1799      1802
      1801      1799      1802      1799      1802      1803      1799      1802      1804
      1799      1802      1805      1803      1802      1804      1803      1802      1805
      1804      1802      1805      1802      1805      1806      1802      1805      1807
      1806      1805      1807      1805      1807      1808      1805      1807      1809
      1808      1807      1809      1807      1809      1810      1807      1809      1811
      1807      1809      1812      1810      1809      1811      1810      1809      1812
      1811      1809      1812      1809      1812      1813      1809      1812      1814
      1809      1812      1815      1813      1812      1814      1813      1812      1815
      1814      1812      1815      1812      1815      1816      1812      1815      1817
      1812      1815      1818      1816      1815      1817      1816      1815      1818
      1817      1815      1818      1815      1818      1819      1815      1818      1820
      1815      1818      1821      1819      1818      1820      1819      1818      1821
      1820      1818      1821      1818      1821      1822      1818      1821      1823
      1818      1821      1824      1822      1821      1823      1822      1821      1824
      1823      1821      1824      1821      1824      1825      1821      1824      1826
      1821      1824      1827      1825      1824      1826      1825      1824      1827
      1826      1824      1827      1824      1827      1828      1824      1827      1829
      1824      1827      1830      1828      1827      1829      1828      1827      1830
      1829      1827      1830      1827      1830      1831      1827      1830      1832
      1827      1830      1833      1831      1830      1832      1831      1830      1833
      1832      1830      1833      1784      1834      1835      1784      1834      1836
      1784      1834      1837      1835      1834      1836      1835      1834      1837
      1836      1834      1837      1834      1837      1838      1834      1837      1839
      1834      1837      1840      1838      1837      1839      1838      1837      1840
      1839      1837      1840      1837      1840      1841      1837      1840      1842
      1837      1840      1843      1841      1840      1842      1841      1840      1843
      1842      1840      1843      1840      1843      1844      1840      1843      1845
      1840      1843      1846      1844      1843      1845      1844      1843      1846
      1845      1843      1846      1843      1846      1847      1843      1846      1848
      1843      1846      1849      1847      1846      1848      1847      1846      1849
      1848      1846      1849      1846      1849      1850      1846      1849      1851
      1846      1849      1852      1850      1849      1851      1850      1849      1852
      1851      1849      1852      1849      1852      1853      1849      1852      1854
      1853      1852      1854      1852      1854      1855      1852      1854      1856
      1855      1854      1856      1854      1856      1857      1854      1856      1858
      1854      1856      1859      1857      1856      1858      1857      1856      1859
      1858      1856      1859      1856      1859      1860      1856      1859      1861
      1856      1859      1862      1860      1859      1861      1860      1859      1862
      1861      1859      1862      1859      1862      1863      1859      1862      1864
      1859      1862      1865      1863      1862      1864      1863      1862      1865
      1864      1862      1865      1862      1865      1866      1862      1865      1867
      1862      1865      1868      1866      1865      1867      1866      1865      1868
      1867      1865      1868      1865      1868      1869      1865      1868      1870
      1865      1868      1871      1869      1868      1870      1869      1868      1871
      1870      1868      1871      1868      1871      1872      1868      1871      1873
      1868      1871      1874      1872      1871      1873      1872      1871      1874
      1873      1871      1874      1871      1874      1875      1871      1874      1876
      1871      1874      1877      1875      1874      1876      1875      1874      1877
      1876      1874      1877      1874      1877      1878      1874      1877      1879
      1874      1877      1880      1878      1877      1879      1878      1877      1880
      1879      1877      1880      1882      1881      1885      1882      1881      1889
      1882      1881      1893      1885      1881      1889      1885      1881      1893
      1889      1881      1893      1881      1882      1883      1881      1882      1884
      1881      1882      1897      1883      1882      1884      1883      1882      1897
      1884      1882      1897      1881      1885      1886      1881      1885      1887
      1881      1885      1888      1886      1885      1887      1886      1885      1888
      1887      1885      1888      1881      1889      1890      1881      1889      1891
      1881      1889      1892      1890      1889      1891      1890      1889      1892
      1891      1889      1892      1881      1893      1894      1881      1893      1895
      1881      1893      1896      1894      1893      1895      1894      1893      1896
      1895      1893      1896      1882      1897      1898      1882      1897      1899
      1882      1897      1903      1898      1897      1899      1898      1897      1903
      1899      1897      1903      1901      1900      1902      1901      1900      1903
      1901      1900      1904      1902      1900      1903      1902      1900      1904
      1903      1900      1904      1897      1903      1900      1900      1904      1905
      1904      1905      1906      1904      1905      1907      1904      1905      1908
      1906      1905      1907      1906      1905      1908      1907      1905      1908
      1905      1908      1909      1905      1908      1910      1905      1908      1916
      1909      1908      1910      1909      1908      1916      1910      1908      1916
      1908      1910      1911      1910      1911      1912      1910      1911      1913
      1912      1911      1913      1911      1913      1914      1911      1913      1915
      1911      1913      1925      1914      1913      1915      1914      1913      1925
      1915      1913      1925      1908      1916      1917      1908      1916      1918
      1908      1916      1919      1917      1916      1918      1917      1916      1919
      1918      1916      1919      1916      1919      1920      1919      1920      1921
      1919      1920      1922      1921      1920      1922      1920      1922      1923
      1920      1922      1924      1920      1922      1972      1923      1922      1924
      1923      1922      1972      1924      1922      1972      1913      1925      1926
      1913      1925      1927      1913      1925      1928      1926      1925      1927
      1926      1925      1928      1927      1925      1928      1925      1928      1929
      1925      1928      1930      1925      1928      1931      1929      1928      1930
      1929      1928      1931      1930      1928      1931      1928      1931      1932
      1928      1931      1933      1928      1931      1934      1932      1931      1933
      1932      1931      1934      1933      1931      1934      1931      1934      1935
      1931      1934      1936      1931      1934      1937      1935      1934      1936
      1935      1934      1937      1936      1934      1937      1934      1937      1938
      1934      1937      1939      1934      1937      1940      1938      1937      1939
      1938      1937      1940      1939      1937      1940      1937      1940      1941
      1937      1940      1942      1937      1940      1943      1941      1940      1942
      1941      1940      1943      1942      1940      1943      1940      1943      1944
      1940      1943      1945      1944      1943      1945      1943      1945      1946
      1943      1945      1947      1946      1945      1947      1945      1947      1948
      1945      1947      1949      1945      1947      1950      1948      1947      1949
      1948      1947      1950      1949      1947      1950      1947      1950      1951
      1947      1950      1952      1947      1950      1953      1951      1950      1952
      1951      1950      1953      1952      1950      1953      1950      1953      1954
      1950      1953      1955      1950      1953      1956      1954      1953      1955
      1954      1953      1956      1955      1953      1956      1953      1956      1957
      1953      1956      1958      1953      1956      1959      1957      1956      1958
      1957      1956      1959      1958      1956      1959      1956      1959      1960
      1956      1959      1961      1956      1959      1962      1960      1959      1961
      1960      1959      1962      1961      1959      1962      1959      1962      1963
      1959      1962      1964      1959      1962      1965      1963      1962      1964
      1963      1962      1965      1964      1962      1965      1962      1965      1966
      1962      1965      1967      1962      1965      1968      1966      1965      1967
      1966      1965      1968      1967      1965      1968      1965      1968      1969
      1965      1968      1970      1965      1968      1971      1969      1968      1970
      1969      1968      1971      1970      1968      1971      1922      1972      1973
      1922      1972      1974      1922      1972      1975      1973      1972      1974
      1973      1972      1975      1974      1972      1975      1972      1975      1976
      1972      1975      1977      1972      1975      1978      1976      1975      1977
      1976      1975      1978      1977      1975      1978      1975      1978      1979
      1975      1978      1980      1975      1978      1981      1979      1978      1980
      1979      1978      1981      1980      1978      1981      1978      1981      1982
      1978      1981      1983      1978      1981      1984      1982      1981      1983
      1982      1981      1984      1983      1981      1984      1981      1984      1985
      1981      1984      1986      1981      1984      1987      1985      1984      1986
      1985      1984      1987      1986      1984      1987      1984      1987      1988
      1984      1987      1989      1984      1987      1990      1988      1987      1989
      1988      1987      1990      1989      1987      1990      1987      1990      1991
      1987      1990      1992      1991      1990      1992      1990      1992      1993
      1990      1992      1994      1993      1992      1994      1992      1994      1995
      1992      1994      1996      1992      1994      1997      1995      1994      1996
      1995      1994      1997      1996      1994      1997      1994      1997      1998
      1994      1997      1999      1994      1997      2000      1998      1997      1999
      1998      1997      2000      1999      1997      2000      1997      2000      2001
      1997      2000      2002      1997      2000      2003      2001      2000      2002
      2001      2000      2003      2002      2000      2003      2000      2003      2004
      2000      2003      2005      2000      2003      2006      2004      2003      2005
      2004      2003      2006      2005      2003      2006      2003      2006      2007
      2003      2006      2008      2003      2006      2009      2007      2006      2008
      2007      2006      2009      2008      2006      2009      2006      2009      2010
      2006      2009      2011      2006      2009      2012      2010      2009      2011
      2010      2009      2012      2011      2009      2012      2009      2012      2013
      2009      2012      2014      2009      2012      2015      2013      2012      2014
      2013      2012      2015      2014      2012      2015      2012      2015      2016
      2012      2015      2017      2012      2015      2018      2016      2015      2017
      2016      2015      2018      2017      2015      2018      2020      2019      2023
      2020      2019      2027      2020      2019      2031      2023      2019      2027
      2023      2019      2031      2027      2019      2031      2019      2020      2021
      2019      2020      2022      2019      2020      2035      2021      2020      2022
      2021      2020      2035      2022      2020      2035      2019      2023      2024
      2019      2023      2025      2019      2023      2026      2024      2023      2025
      2024      2023      2026      2025      2023      2026      2019      2027      2028
      2019      2027      2029      2019      2027      2030      2028      2027      2029
      2028      2027      2030      2029      2027      2030      2019      2031      2032
      2019      2031      2033      2019      2031      2034      2032      2031      2033
      2032      2031      2034      2033      2031      2034      2020      2035      2036
      2020      2035      2037      2020      2035      2041      2036      2035      2037
      2036      2035      2041      2037      2035      2041      2039      2038      2040
      2039      2038      2041      2039      2038      2042      2040      2038      2041
      2040      2038      2042      2041      2038      2042      2035      2041      2038
      2038      2042      2043      2042      2043      2044      2042      2043      2045
      2042      2043      2046      2044      2043      2045      2044      2043      2046
      2045      2043      2046      2043      2046      2047      2043      2046      2048
      2043      2046      2054      2047      2046      2048      2047      2046      2054
      2048      2046      2054      2046      2048      2049      2048      2049      2050
      2048      2049      2051      2050      2049      2051      2049      2051      2052
      2049      2051      2053      2049      2051      2063      2052      2051      2053
      2052      2051      2063      2053      2051      2063      2046      2054      2055
      2046      2054      2056      2046      2054      2057      2055      2054      2056
      2055      2054      2057      2056      2054      2057      2054      2057      2058
      2057      2058      2059      2057      2058      2060      2059      2058      2060
      2058      2060      2061      2058      2060      2062      2058      2060      2110
      2061      2060      2062      2061      2060      2110      2062      2060      2110
      2051      2063      2064      2051      2063      2065      2051      2063      2066
      2064      2063      2065      2064      2063      2066      2065      2063      2066
      2063      2066      2067      2063      2066      2068      2063      2066      2069
      2067      2066      2068      2067      2066      2069      2068      2066      2069
      2066      2069      2070      2066      2069      2071      2066      2069      2072
      2070      2069      2071      2070      2069      2072      2071      2069      2072
      2069      2072      2073      2069      2072      2074      2069      2072      2075
      2073      2072      2074      2073      2072      2075      2074      2072      2075
      2072      2075      2076      2072      2075      2077      2072      2075      2078
      2076      2075      2077      2076      2075      2078      2077      2075      2078
      2075      2078      2079      2075      2078      2080      2075      2078      2081
      2079      2078      2080      2079      2078      2081      2080      2078      2081
      2078      2081      2082      2078      2081      2083      2082      2081      2083
      2081      2083      2084      2081      2083      2085      2084      2083      2085
      2083      2085      2086      2083      2085      2087      2083      2085      2088
      2086      2085      2087      2086      2085      2088      2087      2085      2088
      2085      2088      2089      2085      2088      2090      2085      2088      2091
      2089      2088      2090      2089      2088      2091      2090      2088      2091
      2088      2091      2092      2088      2091      2093      2088      2091      2094
      2092      2091      2093      2092      2091      2094      2093      2091      2094
      2091      2094      2095      2091      2094      2096      2091      2094      2097
      2095      2094      2096      2095      2094      2097      2096      2094      2097
      2094      2097      2098      2094      2097      2099      2094      2097      2100
      2098      2097      2099      2098      2097      2100      2099      2097      2100
      2097      2100      2101      2097      2100      2102      2097      2100      2103
      2101      2100      2102      2101      2100      2103      2102      2100      2103
      2100      2103      2104      2100      2103      2105      2100      2103      2106
      2104      2103      2105      2104      2103      2106      2105      2103      2106
      2103      2106      2107      2103      2106      2108      2103      2106      2109
      2107      2106      2108      2107      2106      2109      2108      2106      2109
      2060      2110      2111      2060      2110      2112      2060      2110      2113
      2111      2110      2112      2111      2110      2113      2112      2110      2113
      2110      2113      2114      2110      2113      2115      2110      2113      2116
      2114      2113      2115      2114      2113      2116      2115      2113      2116
      2113      2116      2117      2113      2116      2118      2113      2116      2119
      2117      2116      2118      2117      2116      2119      2118      2116      2119
      2116      2119      2120      2116      2119      2121      2116      2119      2122
      2120      2119      2121      2120      2119      2122      2121      2119      2122
      2119      2122      2123      2119      2122      2124      2119      2122      2125
      2123      2122      2124      2123      2122      2125      2124      2122      2125
      2122      2125      2126      2122      2125      2127      2122      2125      2128
      2126      2125      2127      2126      2125      2128      2127      2125      2128
      2125      2128      2129      2125      2128      2130      2129      2128      2130
      2128      2130      2131      2128      2130      2132      2131      2130      2132
      2130      2132      2133      2130      2132      2134      2130      2132      2135
      2133      2132      2134      2133      2132      2135      2134      2132      2135
      2132      2135      2136      2132      2135      2137      2132      2135      2138
      2136      2135      2137      2136      2135      2138      2137      2135      2138
      2135      2138      2139      2135      2138      2140      2135      2138      2141
      2139      2138      2140      2139      2138      2141      2140      2138      2141
      2138      2141      2142      2138      2141      2143      2138      2141      2144
      2142      2141      2143      2142      2141      2144      2143      2141      2144
      2141      2144      2145      2141      2144      2146      2141      2144      2147
      2145      2144      2146      2145      2144      2147      2146      2144      2147
      2144      2147      2148      2144      2147      2149      2144      2147      2150
      2148      2147      2149      2148      2147      2150      2149      2147      2150
      2147      2150      2151      2147      2150      2152      2147      2150      2153
      2151      2150      2152      2151      2150      2153      2152      2150      2153
      2150      2153      2154      2150      2153      2155      2150      2153      2156
      2154      2153      2155      2154      2153      2156      2155      2153      2156
      2158      2157      2161      2158      2157      2165      2158      2157      2169
      2161      2157      2165      2161      2157      2169      2165      2157      2169
      2157      2158      2159      2157      2158      2160      2157      2158      2173
      2159      2158      2160      2159      2158      2173      2160      2158      2173
      2157      2161      2162      2157      2161      2163      2157      2161      2164
      2162      2161      2163      2162      2161      2164      2163      2161      2164
      2157      2165      2166      2157      2165      2167      2157      2165      2168
      2166      2165      2167      2166      2165      2168      2167      2165      2168
      2157      2169      2170      2157      2169      2171      2157      2169      2172
      2170      2169      2171      2170      2169      2172      2171      2169      2172
      2158      2173      2174      2158      2173      2175      2158      2173      2179
      2174      2173      2175      2174      2173      2179      2175      2173      2179
      2177      2176      2178      2177      2176      2179      2177      2176      2180
      2178      2176      2179      2178      2176      2180      2179      2176      2180
      2173      2179      2176      2176      2180      2181      2180      2181      2182
      2180      2181      2183      2180      2181      2184      2182      2181      2183
      2182      2181      2184      2183      2181      2184      2181      2184      2185
      2181      2184      2186      2181      2184      2192      2185      2184      2186
      2185      2184      2192      2186      2184      2192      2184      2186      2187
      2186      2187      2188      2186      2187      2189      2188      2187      2189
      2187      2189      2190      2187      2189      2191      2187      2189      2201
      2190      2189      2191      2190      2189      2201      2191      2189      2201
      2184      2192      2193      2184      2192      2194      2184      2192      2195
      2193      2192      2194      2193      2192      2195      2194      2192      2195
      2192      2195      2196      2195      2196      2197      2195      2196      2198
      2197      2196      2198      2196      2198      2199      2196      2198      2200
      2196      2198      2248      2199      2198      2200      2199      2198      2248
      2200      2198      2248      2189      2201      2202      2189      2201      2203
      2189      2201      2204      2202      2201      2203      2202      2201      2204
      2203      2201      2204      2201      2204      2205      2201      2204      2206
      2201      2204      2207      2205      2204      2206      2205      2204      2207
      2206      2204      2207      2204      2207      2208      2204      2207      2209
      2204      2207      2210      2208      2207      2209      2208      2207      2210
      2209      2207      2210      2207      2210      2211      2207      2210      2212
      2207      2210      2213      2211      2210      2212      2211      2210      2213
      2212      2210      2213      2210      2213      2214      2210      2213      2215
      2210      2213      2216      2214      2213      2215      2214      2213      2216
      2215      2213      2216      2213      2216      2217      2213      2216      2218
      2213      2216      2219      2217      2216      2218      2217      2216      2219
      2218      2216      2219      2216      2219      2220      2216      2219      2221
      2220      2219      2221      2219      2221      2222      2219      2221      2223
      2222      2221      2223      2221      2223      2224      2221      2223      2225
      2221      2223      2226      2224      2223      2225      2224      2223      2226
      2225      2223      2226      2223      2226      2227      2223      2226      2228
      2223      2226      2229      2227      2226      2228      2227      2226      2229
      2228      2226      2229      2226      2229      2230      2226      2229      2231
      2226      2229      2232      2230      2229      2231      2230      2229      2232
      2231      2229      2232      2229      2232      2233      2229      2232      2234
      2229      2232      2235      2233      2232      2234      2233      2232      2235
      2234      2232      2235      2232      2235      2236      2232      2235      2237
      2232      2235      2238      2236      2235      2237      2236      2235      2238
      2237      2235      2238      2235      2238      2239      2235      2238      2240
      2235      2238      2241      2239      2238      2240      2239      2238      2241
      2240      2238      2241      2238      2241      2242      2238      2241      2243
      2238      2241      2244      2242      2241      2243      2242      2241      2244
      2243      2241      2244      2241      2244      2245      2241      2244      2246
      2241      2244      2247      2245      2244      2246      2245      2244      2247
      2246      2244      2247      2198      2248      2249      2198      2248      2250
      2198      2248      2251      2249      2248      2250      2249      2248      2251
      2250      2248      2251      2248      2251      2252      2248      2251      2253
      2248      2251      2254      2252      2251      2253      2252      2251      2254
      2253      2251      2254      2251      2254      2255      2251      2254      2256
      2251      2254      2257      2255      2254      2256      2255      2254      2257
      2256      2254      2257      2254      2257      2258      2254      2257      2259
      2254      2257      2260      2258      2257      2259      2258      2257      2260
      2259      2257      2260      2257      2260      2261      2257      2260      2262
      2257      2260      2263      2261      2260      2262      2261      2260      2263
      2262      2260      2263      2260      2263      2264      2260      2263      2265
      2260      2263      2266      2264      2263      2265      2264      2263      2266
      2265      2263      2266      2263      2266      2267      2263      2266      2268
      2267      2266      2268      2266      2268      2269      2266      2268      2270
      2269      2268      2270      2268      2270      2271      2268      2270      2272
      2268      2270      2273      2271      2270      2272      2271      2270      2273
      2272      2270      2273      2270      2273      2274      2270      2273      2275
      2270      2273      2276      2274      2273      2275      2274      2273      2276
      2275      2273      2276      2273      2276      2277      2273      2276      2278
      2273      2276      2279      2277      2276      2278      2277      2276      2279
      2278      2276      2279      2276      2279      2280      2276      2279      2281
      2276      2279      2282      2280      2279      2281      2280      2279      2282
      2281      2279      2282      2279      2282      2283      2279      2282      2284
      2279      2282      2285      2283      2282      2284      2283      2282      2285
      2284      2282      2285      2282      2285      2286      2282      2285      2287
      2282      2285      2288      2286      2285      2287      2286      2285      2288
      2287      2285      2288      2285      2288      2289      2285      2288      2290
      2285      2288      2291      2289      2288      2290      2289      2288      2291
      2290      2288      2291      2288      2291      2292      2288      2291      2293
      2288      2291      2294      2292      2291      2293      2292      2291      2294
      2293      2291      2294      2296      2295      2299      2296      2295      2303
      2296      2295      2307      2299      2295      2303      2299      2295      2307
      2303      2295      2307      2295      2296      2297      2295      2296      2298
      2295      2296      2311      2297      2296      2298      2297      2296      2311
      2298      2296      2311      2295      2299      2300      2295      2299      2301
      2295      2299      2302      2300      2299      2301      2300      2299      2302
      2301      2299      2302      2295      2303      2304      2295      2303      2305
      2295      2303      2306      2304      2303      2305      2304      2303      2306
      2305      2303      2306      2295      2307      2308      2295      2307      2309
      2295      2307      2310      2308      2307      2309      2308      2307      2310
      2309      2307      2310      2296      2311      2312      2296      2311      2313
      2296      2311      2317      2312      2311      2313      2312      2311      2317
      2313      2311      2317      2315      2314      2316      2315      2314      2317
      2315      2314      2318      2316      2314      2317      2316      2314      2318
      2317      2314      2318      2311      2317      2314      2314      2318      2319
      2318      2319      2320      2318      2319      2321      2318      2319      2322
      2320      2319      2321      2320      2319      2322      2321      2319      2322
      2319      2322      2323      2319      2322      2324      2319      2322      2330
      2323      2322      2324      2323      2322      2330      2324      2322      2330
      2322      2324      2325      2324      2325      2326      2324      2325      2327
      2326      2325      2327      2325      2327      2328      2325      2327      2329
      2325      2327      2339      2328      2327      2329      2328      2327      2339
      2329      2327      2339      2322      2330      2331      2322      2330      2332
      2322      2330      2333      2331      2330      2332      2331      2330      2333
      2332      2330      2333      2330      2333      2334      2333      2334      2335
      2333      2334      2336      2335      2334      2336      2334      2336      2337
      2334      2336      2338      2334      2336      2386      2337      2336      2338
      2337      2336      2386      2338      2336      2386      2327      2339      2340
      2327      2339      2341      2327      2339      2342      2340      2339      2341
      2340      2339      2342      2341      2339      2342      2339      2342      2343
      2339      2342      2344      2339      2342      2345      2343      2342      2344
      2343      2342      2345      2344      2342      2345      2342      2345      2346
      2342      2345      2347      2342      2345      2348      2346      2345      2347
      2346      2345      2348      2347      2345      2348      2345      2348      2349
      2345      2348      2350      2345      2348      2351      2349      2348      2350
      2349      2348      2351      2350      2348      2351      2348      2351      2352
      2348      2351      2353      2348      2351      2354      2352      2351      2353
      2352      2351      2354      2353      2351      2354      2351      2354      2355
      2351      2354      2356      2351      2354      2357      2355      2354      2356
      2355      2354      2357      2356      2354      2357      2354      2357      2358
      2354      2357      2359      2358      2357      2359      2357      2359      2360
      2357      2359      2361      2360      2359      2361      2359      2361      2362
      2359      2361      2363      2359      2361      2364      2362      2361      2363
      2362      2361      2364      2363      2361      2364      2361      2364      2365
      2361      2364      2366      2361      2364      2367      2365      2364      2366
      2365      2364      2367      2366      2364      2367      2364      2367      2368
      2364      2367      2369      2364      2367      2370      2368      2367      2369
      2368      2367      2370      2369      2367      2370      2367      2370      2371
      2367      2370      2372      2367      2370      2373      2371      2370      2372
      2371      2370      2373      2372      2370      2373      2370      2373      2374
      2370      2373      2375      2370      2373      2376      2374      2373      2375
      2374      2373      2376      2375      2373      2376      2373      2376      2377
      2373      2376      2378      2373      2376      2379      2377      2376      2378
      2377      2376      2379      2378      2376      2379      2376      2379      2380
      2376      2379      2381      2376      2379      2382      2380      2379      2381
      2380      2379      2382      2381      2379      2382      2379      2382      2383
      2379      2382      2384      2379      2382      2385      2383      2382      2384
      2383      2382      2385      2384      2382      2385      2336      2386      2387
      2336      2386      2388      2336      2386      2389      2387      2386      2388
      2387      2386      2389      2388      2386      2389      2386      2389      2390
      2386      2389      2391      2386      2389      2392      2390      2389      2391
      2390      2389      2392      2391      2389      2392      2389      2392      2393
      2389      2392      2394      2389      2392      2395      2393      2392      2394
      2393      2392      2395      2394      2392      2395      2392      2395      2396
      2392      2395      2397      2392      2395      2398      2396      2395      2397
      2396      2395      2398      2397      2395      2398      2395      2398      2399
      2395      2398      2400      2395      2398      2401      2399      2398      2400
      2399      2398      2401      2400      2398      2401      2398      2401      2402
      2398      2401      2403      2398      2401      2404      2402      2401      2403
      2402      2401      2404      2403      2401      2404      2401      2404      2405
      2401      2404      2406      2405      2404      2406      2404      2406      2407
      2404      2406      2408      2407      2406      2408      2406      2408      2409
      2406      2408      2410      2406      2408      2411      2409      2408      2410
      2409      2408      2411      2410      2408      2411      2408      2411      2412
      2408      2411      2413      2408      2411      2414      2412      2411      2413
      2412      2411      2414      2413      2411      2414      2411      2414      2415
      2411      2414      2416      2411      2414      2417      2415      2414      2416
      2415      2414      2417      2416      2414      2417      2414      2417      2418
      2414      2417      2419      2414      2417      2420      2418      2417      2419
      2418      2417      2420      2419      2417      2420      2417      2420      2421
      2417      2420      2422      2417      2420      2423      2421      2420      2422
      2421      2420      2423      2422      2420      2423      2420      2423      2424
      2420      2423      2425      2420      2423      2426      2424      2423      2425
      2424      2423      2426      2425      2423      2426      2423      2426      2427
      2423      2426      2428      2423      2426      2429      2427      2426      2428
      2427      2426      2429      2428      2426      2429      2426      2429      2430
      2426      2429      2431      2426      2429      2432      2430      2429      2431
      2430      2429      2432      2431      2429      2432      2434      2433      2437
      2434      2433      2441      2434      2433      2445      2437      2433      2441
      2437      2433      2445      2441      2433      2445      2433      2434      2435
      2433      2434      2436      2433      2434      2449      2435      2434      2436
      2435      2434      2449      2436      2434      2449      2433      2437      2438
      2433      2437      2439      2433      2437      2440      2438      2437      2439
      2438      2437      2440      2439      2437      2440      2433      2441      2442
      2433      2441      2443      2433      2441      2444      2442      2441      2443
      2442      2441      2444      2443      2441      2444      2433      2445      2446
      2433      2445      2447      2433      2445      2448      2446      2445      2447
      2446      2445      2448      2447      2445      2448      2434      2449      2450
      2434      2449      2451      2434      2449      2455      2450      2449      2451
      2450      2449      2455      2451      2449      2455      2453      2452      2454
      2453      2452      2455      2453      2452      2456      2454      2452      2455
      2454      2452      2456      2455      2452      2456      2449      2455      2452
      2452      2456      2457      2456      2457      2458      2456      2457      2459
      2456      2457      2460      2458      2457      2459      2458      2457      2460
      2459      2457      2460      2457      2460      2461      2457      2460      2462
      2457      2460      2468      2461      2460      2462      2461      2460      2468
      2462      2460      2468      2460      2462      2463      2462      2463      2464
      2462      2463      2465      2464      2463      2465      2463      2465      2466
      2463      2465      2467      2463      2465      2477      2466      2465      2467
      2466      2465      2477      2467      2465      2477      2460      2468      2469
      2460      2468      2470      2460      2468      2471      2469      2468      2470
      2469      2468      2471      2470      2468      2471      2468      2471      2472
      2471      2472      2473      2471      2472      2474      2473      2472      2474
      2472      2474      2475      2472      2474      2476      2472      2474      2524
      2475      2474      2476      2475      2474      2524      2476      2474      2524
      2465      2477      2478      2465      2477      2479      2465      2477      2480
      2478      2477      2479      2478      2477      2480      2479      2477      2480
      2477      2480      2481      2477      2480      2482      2477      2480      2483
      2481      2480      2482      2481      2480      2483      2482      2480      2483
      2480      2483      2484      2480      2483      2485      2480      2483      2486
      2484      2483      2485      2484      2483      2486      2485      2483      2486
      2483      2486      2487      2483      2486      2488      2483      2486      2489
      2487      2486      2488      2487      2486      2489      2488      2486      2489
      2486      2489      2490      2486      2489      2491      2486      2489      2492
      2490      2489      2491      2490      2489      2492      2491      2489      2492
      2489      2492      2493      2489      2492      2494      2489      2492      2495
      2493      2492      2494      2493      2492      2495      2494      2492      2495
      2492      2495      2496      2492      2495      2497      2496      2495      2497
      2495      2497      2498      2495      2497      2499      2498      2497      2499
      2497      2499      2500      2497      2499      2501      2497      2499      2502
      2500      2499      2501      2500      2499      2502      2501      2499      2502
      2499      2502      2503      2499      2502      2504      2499      2502      2505
      2503      2502      2504      2503      2502      2505      2504      2502      2505
      2502      2505      2506      2502      2505      2507      2502      2505      2508
      2506      2505      2507      2506      2505      2508      2507      2505      2508
      2505      2508      2509      2505      2508      2510      2505      2508      2511
      2509      2508      2510      2509      2508      2511      2510      2508      2511
      2508      2511      2512      2508      2511      2513      2508      2511      2514
      2512      2511      2513      2512      2511      2514      2513      2511      2514
      2511      2514      2515      2511      2514      2516      2511      2514      2517
      2515      2514      2516      2515      2514      2517      2516      2514      2517
      2514      2517      2518      2514      2517      2519      2514      2517      2520
      2518      2517      2519      2518      2517      2520      2519      2517      2520
      2517      2520      2521      2517      2520      2522      2517      2520      2523
      2521      2520      2522      2521      2520      2523      2522      2520      2523
      2474      2524      2525      2474      2524      2526      2474      2524      2527
      2525      2524      2526      2525      2524      2527      2526      2524      2527
      2524      2527      2528      2524      2527      2529      2524      2527      2530
      2528      2527      2529      2528      2527      2530      2529      2527      2530
      2527      2530      2531      2527      2530      2532      2527      2530      2533
      2531      2530      2532      2531      2530      2533      2532      2530      2533
      2530      2533      2534      2530      2533      2535      2530      2533      2536
      2534      2533      2535      2534      2533      2536      2535      2533      2536
      2533      2536      2537      2533      2536      2538      2533      2536      2539
      2537      2536      2538      2537      2536      2539      2538      2536      2539
      2536      2539      2540      2536      2539      2541      2536      2539      2542
      2540      2539      2541      2540      2539      2542      2541      2539      2542
      2539      2542      2543      2539      2542      2544      2543      2542      2544
      2542      2544      2545      2542      2544      2546      2545      2544      2546
      2544      2546      2547      2544      2546      2548      2544      2546      2549
      2547      2546      2548      2547      2546      2549      2548      2546      2549
      2546      2549      2550      2546      2549      2551      2546      2549      2552
      2550      2549      2551      2550      2549      2552      2551      2549      2552
      2549      2552      2553      2549      2552      2554      2549      2552      2555
      2553      2552      2554      2553      2552      2555      2554      2552      2555
      2552      2555      2556      2552      2555      2557      2552      2555      2558
      2556      2555      2557      2556      2555      2558      2557      2555      2558
      2555      2558      2559      2555      2558      2560      2555      2558      2561
      2559      2558      2560      2559      2558      2561      2560      2558      2561
      2558      2561      2562      2558      2561      2563      2558      2561      2564
      2562      2561      2563      2562      2561      2564      2563      2561      2564
      2561      2564      2565      2561      2564      2566      2561      2564      2567
      2565      2564      2566      2565      2564      2567      2566      2564      2567
      2564      2567      2568      2564      2567      2569      2564      2567      2570
      2568      2567      2569      2568      2567      2570      2569      2567      2570
      2572      2571      2575      2572      2571      2579      2572      2571      2583
      2575      2571      2579      2575      2571      2583      2579      2571      2583
      2571      2572      2573      2571      2572      2574      2571      2572      2587
      2573      2572      2574      2573      2572      2587      2574      2572      2587
      2571      2575      2576      2571      2575      2577      2571      2575      2578
      2576      2575      2577      2576      2575      2578      2577      2575      2578
      2571      2579      2580      2571      2579      2581      2571      2579      2582
      2580      2579      2581      2580      2579      2582      2581      2579      2582
      2571      2583      2584      2571      2583      2585      2571      2583      2586
      2584      2583      2585      2584      2583      2586      2585      2583      2586
      2572      2587      2588      2572      2587      2589      2572      2587      2593
      2588      2587      2589      2588      2587      2593      2589      2587      2593
      2591      2590      2592      2591      2590      2593      2591      2590      2594
      2592      2590      2593      2592      2590      2594      2593      2590      2594
      2587      2593      2590      2590      2594      2595      2594      2595      2596
      2594      2595      2597      2594      2595      2598      2596      2595      2597
      2596      2595      2598      2597      2595      2598      2595      2598      2599
      2595      2598      2600      2595      2598      2606      2599      2598      2600
      2599      2598      2606      2600      2598      2606      2598      2600      2601
      2600      2601      2602      2600      2601      2603      2602      2601      2603
      2601      2603      2604      2601      2603      2605      2601      2603      2615
      2604      2603      2605      2604      2603      2615      2605      2603      2615
      2598      2606      2607      2598      2606      2608      2598      2606      2609
      2607      2606      2608      2607      2606      2609      2608      2606      2609
      2606      2609      2610      2609      2610      2611      2609      2610      2612
      2611      2610      2612      2610      2612      2613      2610      2612      2614
      2610      2612      2662      2613      2612      2614      2613      2612      2662
      2614      2612      2662      2603      2615      2616      2603      2615      2617
      2603      2615      2618      2616      2615      2617      2616      2615      2618
      2617      2615      2618      2615      2618      2619      2615      2618      2620
      2615      2618      2621      2619      2618      2620      2619      2618      2621
      2620      2618      2621      2618      2621      2622      2618      2621      2623
      2618      2621      2624      2622      2621      2623      2622      2621      2624
      2623      2621      2624      2621      2624      2625      2621      2624      2626
      2621      2624      2627      2625      2624      2626      2625      2624      2627
      2626      2624      2627      2624      2627      2628      2624      2627      2629
      2624      2627      2630      2628      2627      2629      2628      2627      2630
      2629      2627      2630      2627      2630      2631      2627      2630      2632
      2627      2630      2633      2631      2630      2632      2631      2630      2633
      2632      2630      2633      2630      2633      2634      2630      2633      2635
      2634      2633      2635      2633      2635      2636      2633      2635      2637
      2636      2635      2637      2635      2637      2638      2635      2637      2639
      2635      2637      2640      2638      2637      2639      2638      2637      2640
      2639      2637      2640      2637      2640      2641      2637      2640      2642
      2637      2640      2643      2641      2640      2642      2641      2640      2643
      2642      2640      2643      2640      2643      2644      2640      2643      2645
      2640      2643      2646      2644      2643      2645      2644      2643      2646
      2645      2643      2646      2643      2646      2647      2643      2646      2648
      2643      2646      2649      2647      2646      2648      2647      2646      2649
      2648      2646      2649      2646      2649      2650      2646      2649      2651
      2646      2649      2652      2650      2649      2651      2650      2649      2652
      2651      2649      2652      2649      2652      2653      2649      2652      2654
      2649      2652      2655      2653      2652      2654      2653      2652      2655
      2654      2652      2655      2652      2655      2656      2652      2655      2657
      2652      2655      2658      2656      2655      2657      2656      2655      2658
      2657      2655      2658      2655      2658      2659      2655      2658      2660
      2655      2658      2661      2659      2658      2660      2659      2658      2661
      2660      2658      2661      2612      2662      2663      2612      2662      2664
      2612      2662      2665      2663      2662      2664      2663      2662      2665
      2664      2662      2665      2662      2665      2666      2662      2665      2667
      2662      2665      2668      2666      2665      2667      2666      2665      2668
      2667      2665      2668      2665      2668      2669      2665      2668      2670
      2665      2668      2671      2669      2668      2670      2669      2668      2671
      2670      2668      2671      2668      2671      2672      2668      2671      2673
      2668      2671      2674      2672      2671      2673      2672      2671      2674
      2673      2671      2674      2671      2674      2675      2671      2674      2676
      2671      2674      2677      2675      2674      2676      2675      2674      2677
      2676      2674      2677      2674      2677      2678      2674      2677      2679
      2674      2677      2680      2678      2677      2679      2678      2677      2680
      2679      2677      2680      2677      2680      2681      2677      2680      2682
      2681      2680      2682      2680      2682      2683      2680      2682      2684
      2683      2682      2684      2682      2684      2685      2682      2684      2686
      2682      2684      2687      2685      2684      2686      2685      2684      2687
      2686      2684      2687      2684      2687      2688      2684      2687      2689
      2684      2687      2690      2688      2687      2689      2688      2687      2690
      2689      2687      2690      2687      2690      2691      2687      2690      2692
      2687      2690      2693      2691      2690      2692      2691      2690      2693
      2692      2690      2693      2690      2693      2694      2690      2693      2695
      2690      2693      2696      2694      2693      2695      2694      2693      2696
      2695      2693      2696      2693      2696      2697      2693      2696      2698
      2693      2696      2699      2697      2696      2698      2697      2696      2699
      2698      2696      2699      2696      2699      2700      2696      2699      2701
      2696      2699      2702      2700      2699      2701      2700      2699      2702
      2701      2699      2702      2699      2702      2703      2699      2702      2704
      2699      2702      2705      2703      2702      2704      2703      2702      2705
      2704      2702      2705      2702      2705      2706      2702      2705      2707
      2702      2705      2708      2706      2705      2707      2706      2705      2708
      2707      2705      2708      2710      2709      2713      2710      2709      2717
      2710      2709      2721      2713      2709      2717      2713      2709      2721
      2717      2709      2721      2709      2710      2711      2709      2710      2712
      2709      2710      2725      2711      2710      2712      2711      2710      2725
      2712      2710      2725      2709      2713      2714      2709      2713      2715
      2709      2713      2716      2714      2713      2715      2714      2713      2716
      2715      2713      2716      2709      2717      2718      2709      2717      2719
      2709      2717      2720      2718      2717      2719      2718      2717      2720
      2719      2717      2720      2709      2721      2722      2709      2721      2723
      2709      2721      2724      2722      2721      2723      2722      2721      2724
      2723      2721      2724      2710      2725      2726      2710      2725      2727
      2710      2725      2731      2726      2725      2727      2726      2725      2731
      2727      2725      2731      2729      2728      2730      2729      2728      2731
      2729      2728      2732      2730      2728      2731      2730      2728      2732
      2731      2728      2732      2725      2731      2728      2728      2732      2733
      2732      2733      2734      2732      2733      2735      2732      2733      2736
      2734      2733      2735      2734      2733      2736      2735      2733      2736
      2733      2736      2737      2733      2736      2738      2733      2736      2744
      2737      2736      2738      2737      2736      2744      2738      2736      2744
      2736      2738      2739      2738      2739      2740      2738      2739      2741
      2740      2739      2741      2739      2741      2742      2739      2741      2743
      2739      2741      2753      2742      2741      2743      2742      2741      2753
      2743      2741      2753      2736      2744      2745      2736      2744      2746
      2736      2744      2747      2745      2744      2746      2745      2744      2747
      2746      2744      2747      2744      2747      2748      2747      2748      2749
      2747      2748      2750      2749      2748      2750      2748      2750      2751
      2748      2750      2752      2748      2750      2800      2751      2750      2752
      2751      2750      2800      2752      2750      2800      2741      2753      2754
      2741      2753      2755      2741      2753      2756      2754      2753      2755
      2754      2753      2756      2755      2753      2756      2753      2756      2757
      2753      2756      2758      2753      2756      2759      2757      2756      2758
      2757      2756      2759      2758      2756      2759      2756      2759      2760
      2756      2759      2761      2756      2759      2762      2760      2759      2761
      2760      2759      2762      2761      2759      2762      2759      2762      2763
      2759      2762      2764      2759      2762      2765      2763      2762      2764
      2763      2762      2765      2764      2762      2765      2762      2765      2766
      2762      2765      2767      2762      2765      2768      2766      2765      2767
      2766      2765      2768      2767      2765      2768      2765      2768      2769
      2765      2768      2770      2765      2768      2771      2769      2768      2770
      2769      2768      2771      2770      2768      2771      2768      2771      2772
      2768      2771      2773      2772      2771      2773      2771      2773      2774
      2771      2773      2775      2774      2773      2775      2773      2775      2776
      2773      2775      2777      2773      2775      2778      2776      2775      2777
      2776      2775      2778      2777      2775      2778      2775      2778      2779
      2775      2778      2780      2775      2778      2781      2779      2778      2780
      2779      2778      2781      2780      2778      2781      2778      2781      2782
      2778      2781      2783      2778      2781      2784      2782      2781      2783
      2782      2781      2784      2783      2781      2784      2781      2784      2785
      2781      2784      2786      2781      2784      2787      2785      2784      2786
      2785      2784      2787      2786      2784      2787      2784      2787      2788
      2784      2787      2789      2784      2787      2790      2788      2787      2789
      2788      2787      2790      2789      2787      2790      2787      2790      2791
      2787      2790      2792      2787      2790      2793      2791      2790      2792
      2791      2790      2793      2792      2790      2793      2790      2793      2794
      2790      2793      2795      2790      2793      2796      2794      2793      2795
      2794      2793      2796      2795      2793      2796      2793      2796      2797
      2793      2796      2798      2793      2796      2799      2797      2796      2798
      2797      2796      2799      2798      2796      2799      2750      2800      2801
      2750      2800      2802      2750      2800      2803      2801      2800      2802
      2801      2800      2803      2802      2800      2803      2800      2803      2804
      2800      2803      2805      2800      2803      2806      2804      2803      2805
      2804      2803      2806      2805      2803      2806      2803      2806      2807
      2803      2806      2808      2803      2806      2809      2807      2806      2808
      2807      2806      2809      2808      2806      2809      2806      2809      2810
      2806      2809      2811      2806      2809      2812      2810      2809      2811
      2810      2809      2812      2811      2809      2812      2809      2812      2813
      2809      2812      2814      2809      2812      2815      2813      2812      2814
      2813      2812      2815      2814      2812      2815      2812      2815      2816
      2812      2815      2817      2812      2815      2818      2816      2815      2817
      2816      2815      2818      2817      2815      2818      2815      2818      2819
      2815      2818      2820      2819      2818      2820      2818      2820      2821
      2818      2820      2822      2821      2820      2822      2820      2822      2823
      2820      2822      2824      2820      2822      2825      2823      2822      2824
      2823      2822      2825      2824      2822      2825      2822      2825      2826
      2822      2825      2827      2822      2825      2828      2826      2825      2827
      2826      2825      2828      2827      2825      2828      2825      2828      2829
      2825      2828      2830      2825      2828      2831      2829      2828      2830
      2829      2828      2831      2830      2828      2831      2828      2831      2832
      2828      2831      2833      2828      2831      2834      2832      2831      2833
      2832      2831      2834      2833      2831      2834      2831      2834      2835
      2831      2834      2836      2831      2834      2837      2835      2834      2836
      2835      2834      2837      2836      2834      2837      2834      2837      2838
      2834      2837      2839      2834      2837      2840      2838      2837      2839
      2838      2837      2840      2839      2837      2840      2837      2840      2841
      2837      2840      2842      2837      2840      2843      2841      2840      2842
      2841      2840      2843      2842      2840      2843      2840      2843      2844
      2840      2843      2845      2840      2843      2846      2844      2843      2845
      2844      2843      2846      2845      2843      2846      2848      2847      2851
      2848      2847      2855      2848      2847      2859      2851      2847      2855
      2851      2847      2859      2855      2847      2859      2847      2848      2849
      2847      2848      2850      2847      2848      2863      2849      2848      2850
      2849      2848      2863      2850      2848      2863      2847      2851      2852
      2847      2851      2853      2847      2851      2854      2852      2851      2853
      2852      2851      2854      2853      2851      2854      2847      2855      2856
      2847      2855      2857      2847      2855      2858      2856      2855      2857
      2856      2855      2858      2857      2855      2858      2847      2859      2860
      2847      2859      2861      2847      2859      2862      2860      2859      2861
      2860      2859      2862      2861      2859      2862      2848      2863      2864
      2848      2863      2865      2848      2863      2869      2864      2863      2865
      2864      2863      2869      2865      2863      2869      2867      2866      2868
      2867      2866      2869      2867      2866      2870      2868      2866      2869
      2868      2866      2870      2869      2866      2870      2863      2869      2866
      2866      2870      2871      2870      2871      2872      2870      2871      2873
      2870      2871      2874      2872      2871      2873      2872      2871      2874
      2873      2871      2874      2871      2874      2875      2871      2874      2876
      2871      2874      2882      2875      2874      2876      2875      2874      2882
      2876      2874      2882      2874      2876      2877      2876      2877      2878
      2876      2877      2879      2878      2877      2879      2877      2879      2880
      2877      2879      2881      2877      2879      2891      2880      2879      2881
      2880      2879      2891      2881      2879      2891      2874      2882      2883
      2874      2882      2884      2874      2882      2885      2883      2882      2884
      2883      2882      2885      2884      2882      2885      2882      2885      2886
      2885      2886      2887      2885      2886      2888      2887      2886      2888
      2886      2888      2889      2886      2888      2890      2886      2888      2938
      2889      2888      2890      2889      2888      2938      2890      2888      2938
      2879      2891      2892      2879      2891      2893      2879      2891      2894
      2892      2891      2893      2892      2891      2894      2893      2891      2894
      2891      2894      2895      2891      2894      2896      2891      2894      2897
      2895      2894      2896      2895      2894      2897      2896      2894      2897
      2894      2897      2898      2894      2897      2899      2894      2897      2900
      2898      2897      2899      2898      2897      2900      2899      2897      2900
      2897      2900      2901      2897      2900      2902      2897      2900      2903
      2901      2900      2902      2901      2900      2903      2902      2900      2903
      2900      2903      2904      2900      2903      2905      2900      2903      2906
      2904      2903      2905      2904      2903      2906      2905      2903      2906
      2903      2906      2907      2903      2906      2908      2903      2906      2909
      2907      2906      2908      2907      2906      2909      2908      2906      2909
      2906      2909      2910      2906      2909      2911      2910      2909      2911
      2909      2911      2912      2909      2911      2913      2912      2911      2913
      2911      2913      2914      2911      2913      2915      2911      2913      2916
      2914      2913      2915      2914      2913      2916      2915      2913      2916
      2913      2916      2917      2913      2916      2918      2913      2916      2919
      2917      2916      2918      2917      2916      2919      2918      2916      2919
      2916      2919      2920      2916      2919      2921      2916      2919      2922
      2920      2919      2921      2920      2919      2922      2921      2919      2922
      2919      2922      2923      2919      2922      2924      2919      2922      2925
      2923      2922      2924      2923      2922      2925      2924      2922      2925
      2922      2925      2926      2922      2925      2927      2922      2925      2928
      2926      2925      2927      2926      2925      2928      2927      2925      2928
      2925      2928      2929      2925      2928      2930      2925      2928      2931
      2929      2928      2930      2929      2928      2931      2930      2928      2931
      2928      2931      2932      2928      2931      2933      2928      2931      2934
      2932      2931      2933      2932      2931      2934      2933      2931      2934
      2931      2934      2935      2931      2934      2936      2931      2934      2937
      2935      2934      2936      2935      2934      2937      2936      2934      2937
      2888      2938      2939      2888      2938      2940      2888      2938      2941
      2939      2938      2940      2939      2938      2941      2940      2938      2941
      2938      2941      2942      2938      2941      2943      2938      2941      2944
      2942      2941      2943      2942      2941      2944      2943      2941      2944
      2941      2944      2945      2941      2944      2946      2941      2944      2947
      2945      2944      2946      2945      2944      2947      2946      2944      2947
      2944      2947      2948      2944      2947      2949      2944      2947      2950
      2948      2947      2949      2948      2947      2950      2949      2947      2950
      2947      2950      2951      2947      2950      2952      2947      2950      2953
      2951      2950      2952      2951      2950      2953      2952      2950      2953
      2950      2953      2954      2950      2953      2955      2950      2953      2956
      2954      2953      2955      2954      2953      2956      2955      2953      2956
      2953      2956      2957      2953      2956      2958      2957      2956      2958
      2956      2958      2959      2956      2958      2960      2959      2958      2960
      2958      2960      2961      2958      2960      2962      2958      2960      2963
      2961      2960      2962      2961      2960      2963      2962      2960      2963
      2960      2963      2964      2960      2963      2965      2960      2963      2966
      2964      2963      2965      2964      2963      2966      2965      2963      2966
      2963      2966      2967      2963      2966      2968      2963      2966      2969
      2967      2966      2968      2967      2966      2969      2968      2966      2969
      2966      2969      2970      2966      2969      2971      2966      2969      2972
      2970      2969      2971      2970      2969      2972      2971      2969      2972
      2969      2972      2973      2969      2972      2974      2969      2972      2975
      2973      2972      2974      2973      2972      2975      2974      2972      2975
      2972      2975      2976      2972      2975      2977      2972      2975      2978
      2976      2975      2977      2976      2975      2978      2977      2975      2978
      2975      2978      2979      2975      2978      2980      2975      2978      2981
      2979      2978      2980      2979      2978      2981      2980      2978      2981
      2978      2981      2982      2978      2981      2983      2978      2981      2984
      2982      2981      2983      2982      2981      2984      2983      2981      2984
      2986      2985      2989      2986      2985      2993      2986      2985      2997
      2989      2985      2993      2989      2985      2997      2993      2985      2997
      2985      2986      2987      2985      2986      2988      2985      2986      3001
      2987      2986      2988      2987      2986      3001      2988      2986      3001
      2985      2989      2990      2985      2989      2991      2985      2989      2992
      2990      2989      2991      2990      2989      2992      2991      2989      2992
      2985      2993      2994      2985      2993      2995      2985      2993      2996
      2994      2993      2995      2994      2993      2996      2995      2993      2996
      2985      2997      2998      2985      2997      2999      2985      2997      3000
      2998      2997      2999      2998      2997      3000      2999      2997      3000
      2986      3001      3002      2986      3001      3003      2986      3001      3007
      3002      3001      3003      3002      3001      3007      3003      3001      3007
      3005      3004      3006      3005      3004      3007      3005      3004      3008
      3006      3004      3007      3006      3004      3008      3007      3004      3008
      3001      3007      3004      3004      3008      3009      3008      3009      3010
      3008      3009      3011      3008      3009      3012      3010      3009      3011
      3010      3009      3012      3011      3009      3012      3009      3012      3013
      3009      3012      3014      3009      3012      3020      3013      3012      3014
      3013      3012      3020      3014      3012      3020      3012      3014      3015
      3014      3015      3016      3014      3015      3017      3016      3015      3017
      3015      3017      3018      3015      3017      3019      3015      3017      3029
      3018      3017      3019      3018      3017      3029      3019      3017      3029
      3012      3020      3021      3012      3020      3022      3012      3020      3023
      3021      3020      3022      3021      3020      3023      3022      3020      3023
      3020      3023      3024      3023      3024      3025      3023      3024      3026
      3025      3024      3026      3024      3026      3027      3024      3026      3028
      3024      3026      3076      3027      3026      3028      3027      3026      3076
      3028      3026      3076      3017      3029      3030      3017      3029      3031
      3017      3029      3032      3030      3029      3031      3030      3029      3032
      3031      3029      3032      3029      3032      3033      3029      3032      3034
      3029      3032      3035      3033      3032      3034      3033      3032      3035
      3034      3032      3035      3032      3035      3036      3032      3035      3037
      3032      3035      3038      3036      3035      3037      3036      3035      3038
      3037      3035      3038      3035      3038      3039      3035      3038      3040
      3035      3038      3041      3039      3038      3040      3039      3038      3041
      3040      3038      3041      3038      3041      3042      3038      3041      3043
      3038      3041      3044      3042      3041      3043      3042      3041      3044
      3043      3041      3044      3041      3044      3045      3041      3044      3046
      3041      3044      3047      3045      3044      3046      3045      3044      3047
      3046      3044      3047      3044      3047      3048      3044      3047      3049
      3048      3047      3049      3047      3049      3050      3047      3049      3051
      3050      3049      3051      3049      3051      3052      3049      3051      3053
      3049      3051      3054      3052      3051      3053      3052      3051      3054
      3053      3051      3054      3051      3054      3055      3051      3054      3056
      3051      3054      3057      3055      3054      3056      3055      3054      3057
      3056      3054      3057      3054      3057      3058      3054      3057      3059
      3054      3057      3060      3058      3057      3059      3058      3057      3060
      3059      3057      3060      3057      3060      3061      3057      3060      3062
      3057      3060      3063      3061      3060      3062      3061      3060      3063
      3062      3060      3063      3060      3063      3064      3060      3063      3065
      3060      3063      3066      3064      3063      3065      3064      3063      3066
      3065      3063      3066      3063      3066      3067      3063      3066      3068
      3063      3066      3069      3067      3066      3068      3067      3066      3069
      3068      3066      3069      3066      3069      3070      3066      3069      3071
      3066      3069      3072      3070      3069      3071      3070      3069      3072
      3071      3069      3072      3069      3072      3073      3069      3072      3074
      3069      3072      3075      3073      3072      3074      3073      3072      3075
      3074      3072      3075      3026      3076      3077      3026      3076      3078
      3026      3076      3079      3077      3076      3078      3077      3076      3079
      3078      3076      3079      3076      3079      3080      3076      3079      3081
      3076      3079      3082      3080      3079      3081      3080      3079      3082
      3081      3079      3082      3079      3082      3083      3079      3082      3084
      3079      3082      3085      3083      3082      3084      3083      3082      3085
      3084      3082      3085      3082      3085      3086      3082      3085      3087
      3082      3085      3088      3086      3085      3087      3086      3085      3088
      3087      3085      3088      3085      3088      3089      3085      3088      3090
      3085      3088      3091      3089      3088      3090      3089      3088      3091
      3090      3088      3091      3088      3091      3092      3088      3091      3093
      3088      3091      3094      3092      3091      3093      3092      3091      3094
      3093      3091      3094      3091      3094      3095      3091      3094      3096
      3095      3094      3096      3094      3096      3097      3094      3096      3098
      3097      3096      3098      3096      3098      3099      3096      3098      3100
      3096      3098      3101      3099      3098      3100      3099      3098      3101
      3100      3098      3101      3098      3101      3102      3098      3101      3103
      3098      3101      3104      3102      3101      3103      3102      3101      3104
      3103      3101      3104      3101      3104      3105      3101      3104      3106
      3101      3104      3107      3105      3104      3106      3105      3104      3107
      3106      3104      3107      3104      3107      3108      3104      3107      3109
      3104      3107      3110      3108      3107      3109      3108      3107      3110
      3109      3107      3110      3107      3110      3111      3107      3110      3112
      3107      3110      3113      3111      3110      3112      3111      3110      3113
      3112      3110      3113      3110      3113      3114      3110      3113      3115
      3110      3113      3116      3114      3113      3115      3114      3113      3116
      3115      3113      3116      3113      3116      3117      3113      3116      3118
      3113      3116      3119      3117      3116      3118      3117      3116      3119
      3118      3116      3119      3116      3119      3120      3116      3119      3121
      3116      3119      3122      3120      3119      3121      3120      3119      3122
      3121      3119      3122      3124      3123      3127      3124      3123      3131
      3124      3123      3135      3127      3123      3131      3127      3123      3135
      3131      3123      3135      3123      3124      3125      3123      3124      3126
      3123      3124      3139      3125      3124      3126      3125      3124      3139
      3126      3124      3139      3123      3127      3128      3123      3127      3129
      3123      3127      3130      3128      3127      3129      3128      3127      3130
      3129      3127      3130      3123      3131      3132      3123      3131      3133
      3123      3131      3134      3132      3131      3133      3132      3131      3134
      3133      3131      3134      3123      3135      3136      3123      3135      3137
      3123      3135      3138      3136      3135      3137      3136      3135      3138
      3137      3135      3138      3124      3139      3140      3124      3139      3141
      3124      3139      3145      3140      3139      3141      3140      3139      3145
      3141      3139      3145      3143      3142      3144      3143      3142      3145
      3143      3142      3146      3144      3142      3145      3144      3142      3146
      3145      3142      3146      3139      3145      3142      3142      3146      3147
      3146      3147      3148      3146      3147      3149      3146      3147      3150
      3148      3147      3149      3148      3147      3150      3149      3147      3150
      3147      3150      3151      3147      3150      3152      3147      3150      3158
      3151      3150      3152      3151      3150      3158      3152      3150      3158
      3150      3152      3153      3152      3153      3154      3152      3153      3155
      3154      3153      3155      3153      3155      3156      3153      3155      3157
      3153      3155      3167      3156      3155      3157      3156      3155      3167
      3157      3155      3167      3150      3158      3159      3150      3158      3160
      3150      3158      3161      3159      3158      3160      3159      3158      3161
      3160      3158      3161      3158      3161      3162      3161      3162      3163
      3161      3162      3164      3163      3162      3164      3162      3164      3165
      3162      3164      3166      3162      3164      3214      3165      3164      3166
      3165      3164      3214      3166      3164      3214      3155      3167      3168
      3155      3167      3169      3155      3167      3170      3168      3167      3169
      3168      3167      3170      3169      3167      3170      3167      3170      3171
      3167      3170      3172      3167      3170      3173      3171      3170      3172
      3171      3170      3173      3172      3170      3173      3170      3173      3174
      3170      3173      3175      3170      3173      3176      3174      3173      3175
      3174      3173      3176      3175      3173      3176      3173      3176      3177
      3173      3176      3178      3173      3176      3179      3177      3176      3178
      3177      3176      3179      3178      3176      3179      3176      3179      3180
      3176      3179      3181      3176      3179      3182      3180      3179      3181
      3180      3179      3182      3181      3179      3182      3179      3182      3183
      3179      3182      3184      3179      3182      3185      3183      3182      3184
      3183      3182      3185      3184      3182      3185      3182      3185      3186
      3182      3185      3187      3186      3185      3187      3185      3187      3188
      3185      3187      3189      3188      3187      3189      3187      3189      3190
      3187      3189      3191      3187      3189      3192      3190      3189      3191
      3190      3189      3192      3191      3189      3192      3189      3192      3193
      3189      3192      3194      3189      3192      3195      3193      3192      3194
      3193      3192      3195      3194      3192      3195      3192      3195      3196
      3192      3195      3197      3192      3195      3198      3196      3195      3197
      3196      3195      3198      3197      3195      3198      3195      3198      3199
      3195      3198      3200      3195      3198      3201      3199      3198      3200
      3199      3198      3201      3200      3198      3201      3198      3201      3202
      3198      3201      3203      3198      3201      3204      3202      3201      3203
      3202      3201      3204      3203      3201      3204      3201      3204      3205
      3201      3204      3206      3201      3204      3207      3205      3204      3206
      3205      3204      3207      3206      3204      3207      3204      3207      3208
      3204      3207      3209      3204      3207      3210      3208      3207      3209
      3208      3207      3210      3209      3207      3210      3207      3210      3211
      3207      3210      3212      3207      3210      3213      3211      3210      3212
      3211      3210      3213      3212      3210      3213      3164      3214      3215
      3164      3214      3216      3164      3214      3217      3215      3214      3216
      3215      3214      3217      3216      3214      3217      3214      3217      3218
      3214      3217      3219      3214      3217      3220      3218      3217      3219
      3218      3217      3220      3219      3217      3220      3217      3220      3221
      3217      3220      3222      3217      3220      3223      3221      3220      3222
      3221      3220      3223      3222      3220      3223      3220      3223      3224
      3220      3223      3225      3220      3223      3226      3224      3223      3225
      3224      3223      3226      3225      3223      3226      3223      3226      3227
      3223      3226      3228      3223      3226      3229      3227      3226      3228
      3227      3226      3229      3228      3226      3229      3226      3229      3230
      3226      3229      3231      3226      3229      3232      3230      3229      3231
      3230      3229      3232      3231      3229      3232      3229      3232      3233
      3229      3232      3234      3233      3232      3234      3232      3234      3235
      3232      3234      3236      3235      3234      3236      3234      3236      3237
      3234      3236      3238      3234      3236      3239      3237      3236      3238
      3237      3236      3239      3238      3236      3239      3236      3239      3240
      3236      3239      3241      3236      3239      3242      3240      3239      3241
      3240      3239      3242      3241      3239      3242      3239      3242      3243
      3239      3242      3244      3239      3242      3245      3243      3242      3244
      3243      3242      3245      3244      3242      3245      3242      3245      3246
      3242      3245      3247      3242      3245      3248      3246      3245      3247
      3246      3245      3248      3247      3245      3248      3245      3248      3249
      3245      3248      3250      3245      3248      3251      3249      3248      3250
      3249      3248      3251      3250      3248      3251      3248      3251      3252
      3248      3251      3253      3248      3251      3254      3252      3251      3253
      3252      3251      3254      3253      3251      3254      3251      3254      3255
      3251      3254      3256      3251      3254      3257      3255      3254      3256
      3255      3254      3257      3256      3254      3257      3254      3257      3258
      3254      3257      3259      3254      3257      3260      3258      3257      3259
      3258      3257      3260      3259      3257      3260      3262      3261      3265
      3262      3261      3269      3262      3261      3273      3265      3261      3269
      3265      3261      3273      3269      3261      3273      3261      3262      3263
      3261      3262      3264      3261      3262      3277      3263      3262      3264
      3263      3262      3277      3264      3262      3277      3261      3265      3266
      3261      3265      3267      3261      3265      3268      3266      3265      3267
      3266      3265      3268      3267      3265      3268      3261      3269      3270
      3261      3269      3271      3261      3269      3272      3270      3269      3271
      3270      3269      3272      3271      3269      3272      3261      3273      3274
      3261      3273      3275      3261      3273      3276      3274      3273      3275
      3274      3273      3276      3275      3273      3276      3262      3277      3278
      3262      3277      3279      3262      3277      3283      3278      3277      3279
      3278      3277      3283      3279      3277      3283      3281      3280      3282
      3281      3280      3283      3281      3280      3284      3282      3280      3283
      3282      3280      3284      3283      3280      3284      3277      3283      3280
      3280      3284      3285      3284      3285      3286      3284      3285      3287
      3284      3285      3288      3286      3285      3287      3286      3285      3288
      3287      3285      3288      3285      3288      3289      3285      3288      3290
      3285      3288      3296      3289      3288      3290      3289      3288      3296
      3290      3288      3296      3288      3290      3291      3290      3291      3292
      3290      3291      3293      3292      3291      3293      3291      3293      3294
      3291      3293      3295      3291      3293      3305      3294      3293      3295
      3294      3293      3305      3295      3293      3305      3288      3296      3297
      3288      3296      3298      3288      3296      3299      3297      3296      3298
      3297      3296      3299      3298      3296      3299      3296      3299      3300
      3299      3300      3301      3299      3300      3302      3301      3300      3302
      3300      3302      3303      3300      3302      3304      3300      3302      3352
      3303      3302      3304      3303      3302      3352      3304      3302      3352
      3293      3305      3306      3293      3305      3307      3293      3305      3308
      3306      3305      3307      3306      3305      3308      3307      3305      3308
      3305      3308      3309      3305      3308      3310      3305      3308      3311
      3309      3308      3310      3309      3308      3311      3310      3308      3311
      3308      3311      3312      3308      3311      3313      3308      3311      3314
      3312      3311      3313      3312      3311      3314      3313      3311      3314
      3311      3314      3315      3311      3314      3316      3311      3314      3317
      3315      3314      3316      3315      3314      3317      3316      3314      3317
      3314      3317      3318      3314      3317      3319      3314      3317      3320
      3318      3317      3319      3318      3317      3320      3319      3317      3320
      3317      3320      3321      3317      3320      3322      3317      3320      3323
      3321      3320      3322      3321      3320      3323      3322      3320      3323
      3320      3323      3324      3320      3323      3325      3324      3323      3325
      3323      3325      3326      3323      3325      3327      3326      3325      3327
      3325      3327      3328      3325      3327      3329      3325      3327      3330
      3328      3327      3329      3328      3327      3330      3329      3327      3330
      3327      3330      3331      3327      3330      3332      3327      3330      3333
      3331      3330      3332      3331      3330      3333      3332      3330      3333
      3330      3333      3334      3330      3333      3335      3330      3333      3336
      3334      3333      3335      3334      3333      3336      3335      3333      3336
      3333      3336      3337      3333      3336      3338      3333      3336      3339
      3337      3336      3338      3337      3336      3339      3338      3336      3339
      3336      3339      3340      3336      3339      3341      3336      3339      3342
      3340      3339      3341      3340      3339      3342      3341      3339      3342
      3339      3342      3343      3339      3342      3344      3339      3342      3345
      3343      3342      3344      3343      3342      3345      3344      3342      3345
      3342      3345      3346      3342      3345      3347      3342      3345      3348
      3346      3345      3347      3346      3345      3348      3347      3345      3348
      3345      3348      3349      3345      3348      3350      3345      3348      3351
      3349      3348      3350      3349      3348      3351      3350      3348      3351
      3302      3352      3353      3302      3352      3354      3302      3352      3355
      3353      3352      3354      3353      3352      3355      3354      3352      3355
      3352      3355      3356      3352      3355      3357      3352      3355      3358
      3356      3355      3357      3356      3355      3358      3357      3355      3358
      3355      3358      3359      3355      3358      3360      3355      3358      3361
      3359      3358      3360      3359      3358      3361      3360      3358      3361
      3358      3361      3362      3358      3361      3363      3358      3361      3364
      3362      3361      3363      3362      3361      3364      3363      3361      3364
      3361      3364      3365      3361      3364      3366      3361      3364      3367
      3365      3364      3366      3365      3364      3367      3366      3364      3367
      3364      3367      3368      3364      3367      3369      3364      3367      3370
      3368      3367      3369      3368      3367      3370      3369      3367      3370
      3367      3370      3371      3367      3370      3372      3371      3370      3372
      3370      3372      3373      3370      3372      3374      3373      3372      3374
      3372      3374      3375      3372      3374      3376      3372      3374      3377
      3375      3374      3376      3375      3374      3377      3376      3374      3377
      3374      3377      3378      3374      3377      3379      3374      3377      3380
      3378      3377      3379      3378      3377      3380      3379      3377      3380
      3377      3380      3381      3377      3380      3382      3377      3380      3383
      3381      3380      3382      3381      3380      3383      3382      3380      3383
      3380      3383      3384      3380      3383      3385      3380      3383      3386
      3384      3383      3385      3384      3383      3386      3385      3383      3386
      3383      3386      3387      3383      3386      3388      3383      3386      3389
      3387      3386      3388      3387      3386      3389      3388      3386      3389
      3386      3389      3390      3386      3389      3391      3386      3389      3392
      3390      3389      3391      3390      3389      3392      3391      3389      3392
      3389      3392      3393      3389      3392      3394      3389      3392      3395
      3393      3392      3394      3393      3392      3395      3394      3392      3395
      3392      3395      3396      3392      3395      3397      3392      3395      3398
      3396      3395      3397      3396      3395      3398      3397      3395      3398
      3400      3399      3403      3400      3399      3407      3400      3399      3411
      3403      3399      3407      3403      3399      3411      3407      3399      3411
      3399      3400      3401      3399      3400      3402      3399      3400      3415
      3401      3400      3402      3401      3400      3415      3402      3400      3415
      3399      3403      3404      3399      3403      3405      3399      3403      3406
      3404      3403      3405      3404      3403      3406      3405      3403      3406
      3399      3407      3408      3399      3407      3409      3399      3407      3410
      3408      3407      3409      3408      3407      3410      3409      3407      3410
      3399      3411      3412      3399      3411      3413      3399      3411      3414
      3412      3411      3413      3412      3411      3414      3413      3411      3414
      3400      3415      3416      3400      3415      3417      3400      3415      3421
      3416      3415      3417      3416      3415      3421      3417      3415      3421
      3419      3418      3420      3419      3418      3421      3419      3418      3422
      3420      3418      3421      3420      3418      3422      3421      3418      3422
      3415      3421      3418      3418      3422      3423      3422      3423      3424
      3422      3423      3425      3422      3423      3426      3424      3423      3425
      3424      3423      3426      3425      3423      3426      3423      3426      3427
      3423      3426      3428      3423      3426      3434      3427      3426      3428
      3427      3426      3434      3428      3426      3434      3426      3428      3429
      3428      3429      3430      3428      3429      3431      3430      3429      3431
      3429      3431      3432      3429      3431      3433      3429      3431      3443
      3432      3431      3433      3432      3431      3443      3433      3431      3443
      3426      3434      3435      3426      3434      3436      3426      3434      3437
      3435      3434      3436      3435      3434      3437      3436      3434      3437
      3434      3437      3438      3437      3438      3439      3437      3438      3440
      3439      3438      3440      3438      3440      3441      3438      3440      3442
      3438      3440      3490      3441      3440      3442      3441      3440      3490
      3442      3440      3490      3431      3443      3444      3431      3443      3445
      3431      3443      3446      3444      3443      3445      3444      3443      3446
      3445      3443      3446      3443      3446      3447      3443      3446      3448
      3443      3446      3449      3447      3446      3448      3447      3446      3449
      3448      3446      3449      3446      3449      3450      3446      3449      3451
      3446      3449      3452      3450      3449      3451      3450      3449      3452
      3451      3449      3452      3449      3452      3453      3449      3452      3454
      3449      3452      3455      3453      3452      3454      3453      3452      3455
      3454      3452      3455      3452      3455      3456      3452      3455      3457
      3452      3455      3458      3456      3455      3457      3456      3455      3458
      3457      3455      3458      3455      3458      3459      3455      3458      3460
      3455      3458      3461      3459      3458      3460      3459      3458      3461
      3460      3458      3461      3458      3461      3462      3458      3461      3463
      3462      3461      3463      3461      3463      3464      3461      3463      3465
      3464      3463      3465      3463      3465      3466      3463      3465      3467
      3463      3465      3468      3466      3465      3467      3466      3465      3468
      3467      3465      3468      3465      3468      3469      3465      3468      3470
      3465      3468      3471      3469      3468      3470      3469      3468      3471
      3470      3468      3471      3468      3471      3472      3468      3471      3473
      3468      3471      3474      3472      3471      3473      3472      3471      3474
      3473      3471      3474      3471      3474      3475      3471      3474      3476
      3471      3474      3477      3475      3474      3476      3475      3474      3477
      3476      3474      3477      3474      3477      3478      3474      3477      3479
      3474      3477      3480      3478      3477      3479      3478      3477      3480
      3479      3477      3480      3477      3480      3481      3477      3480      3482
      3477      3480      3483      3481      3480      3482      3481      3480      3483
      3482      3480      3483      3480      3483      3484      3480      3483      3485
      3480      3483      3486      3484      3483      3485      3484      3483      3486
      3485      3483      3486      3483      3486      3487      3483      3486      3488
      3483      3486      3489      3487      3486      3488      3487      3486      3489
      3488      3486      3489      3440      3490      3491      3440      3490      3492
      3440      3490      3493      3491      3490      3492      3491      3490      3493
      3492      3490      3493      3490      3493      3494      3490      3493      3495
      3490      3493      3496      3494      3493      3495      3494      3493      3496
      3495      3493      3496      3493      3496      3497      3493      3496      3498
      3493      3496      3499      3497      3496      3498      3497      3496      3499
      3498      3496      3499      3496      3499      3500      3496      3499      3501
      3496      3499      3502      3500      3499      3501      3500      3499      3502
      3501      3499      3502      3499      3502      3503      3499      3502      3504
      3499      3502      3505      3503      3502      3504      3503      3502      3505
      3504      3502      3505      3502      3505      3506      3502      3505      3507
      3502      3505      3508      3506      3505      3507      3506      3505      3508
      3507      3505      3508      3505      3508      3509      3505      3508      3510
      3509      3508      3510      3508      3510      3511      3508      3510      3512
      3511      3510      3512      3510      3512      3513      3510      3512      3514
      3510      3512      3515      3513      3512      3514      3513      3512      3515
      3514      3512      3515      3512      3515      3516      3512      3515      3517
      3512      3515      3518      3516      3515      3517      3516      3515      3518
      3517      3515      3518      3515      3518      3519      3515      3518      3520
      3515      3518      3521      3519      3518      3520      3519      3518      3521
      3520      3518      3521      3518      3521      3522      3518      3521      3523
      3518      3521      3524      3522      3521      3523      3522      3521      3524
      3523      3521      3524      3521      3524      3525      3521      3524      3526
      3521      3524      3527      3525      3524      3526      3525      3524      3527
      3526      3524      3527      3524      3527      3528      3524      3527      3529
      3524      3527      3530      3528      3527      3529      3528      3527      3530
      3529      3527      3530      3527      3530      3531      3527      3530      3532
      3527      3530      3533      3531      3530      3532      3531      3530      3533
      3532      3530      3533      3530      3533      3534      3530      3533      3535
      3530      3533      3536      3534      3533      3535      3534      3533      3536
      3535      3533      3536      3538      3537      3541      3538      3537      3545
      3538      3537      3549      3541      3537      3545      3541      3537      3549
      3545      3537      3549      3537      3538      3539      3537      3538      3540
      3537      3538      3553      3539      3538      3540      3539      3538      3553
      3540      3538      3553      3537      3541      3542      3537      3541      3543
      3537      3541      3544      3542      3541      3543      3542      3541      3544
      3543      3541      3544      3537      3545      3546      3537      3545      3547
      3537      3545      3548      3546      3545      3547      3546      3545      3548
      3547      3545      3548      3537      3549      3550      3537      3549      3551
      3537      3549      3552      3550      3549      3551      3550      3549      3552
      3551      3549      3552      3538      3553      3554      3538      3553      3555
      3538      3553      3559      3554      3553      3555      3554      3553      3559
      3555      3553      3559      3557      3556      3558      3557      3556      3559
      3557      3556      3560      3558      3556      3559      3558      3556      3560
      3559      3556      3560      3553      3559      3556      3556      3560      3561
      3560      3561      3562      3560      3561      3563      3560      3561      3564
      3562      3561      3563      3562      3561      3564      3563      3561      3564
      3561      3564      3565      3561      3564      3566      3561      3564      3572
      3565      3564      3566      3565      3564      3572      3566      3564      3572
      3564      3566      3567      3566      3567      3568      3566      3567      3569
      3568      3567      3569      3567      3569      3570      3567      3569      3571
      3567      3569      3581      3570      3569      3571      3570      3569      3581
      3571      3569      3581      3564      3572      3573      3564      3572      3574
      3564      3572      3575      3573      3572      3574      3573      3572      3575
      3574      3572      3575      3572      3575      3576      3575      3576      3577
      3575      3576      3578      3577      3576      3578      3576      3578      3579
      3576      3578      3580      3576      3578      3628      3579      3578      3580
      3579      3578      3628      3580      3578      3628      3569      3581      3582
      3569      3581      3583      3569      3581      3584      3582      3581      3583
      3582      3581      3584      3583      3581      3584      3581      3584      3585
      3581      3584      3586      3581      3584      3587      3585      3584      3586
      3585      3584      3587      3586      3584      3587      3584      3587      3588
      3584      3587      3589      3584      3587      3590      3588      3587      3589
      3588      3587      3590      3589      3587      3590      3587      3590      3591
      3587      3590      3592      3587      3590      3593      3591      3590      3592
      3591      3590      3593      3592      3590      3593      3590      3593      3594
      3590      3593      3595      3590      3593      3596      3594      3593      3595
      3594      3593      3596      3595      3593      3596      3593      3596      3597
      3593      3596      3598      3593      3596      3599      3597      3596      3598
      3597      3596      3599      3598      3596      3599      3596      3599      3600
      3596      3599      3601      3600      3599      3601      3599      3601      3602
      3599      3601      3603      3602      3601      3603      3601      3603      3604
      3601      3603      3605      3601      3603      3606      3604      3603      3605
      3604      3603      3606      3605      3603      3606      3603      3606      3607
      3603      3606      3608      3603      3606      3609      3607      3606      3608
      3607      3606      3609      3608      3606      3609      3606      3609      3610
      3606      3609      3611      3606      3609      3612      3610      3609      3611
      3610      3609      3612      3611      3609      3612      3609      3612      3613
      3609      3612      3614      3609      3612      3615      3613      3612      3614
      3613      3612      3615      3614      3612      3615      3612      3615      3616
      3612      3615      3617      3612      3615      3618      3616      3615      3617
      3616      3615      3618      3617      3615      3618      3615      3618      3619
      3615      3618      3620      3615      3618      3621      3619      3618      3620
      3619      3618      3621      3620      3618      3621      3618      3621      3622
      3618      3621      3623      3618      3621      3624      3622      3621      3623
      3622      3621      3624      3623      3621      3624      3621      3624      3625
      3621      3624      3626      3621      3624      3627      3625      3624      3626
      3625      3624      3627      3626      3624      3627      3578      3628      3629
      3578      3628      3630      3578      3628      3631      3629      3628      3630
      3629      3628      3631      3630      3628      3631      3628      3631      3632
      3628      3631      3633      3628      3631      3634      3632      3631      3633
      3632      3631      3634      3633      3631      3634      3631      3634      3635
      3631      3634      3636      3631      3634      3637      3635      3634      3636
      3635      3634      3637      3636      3634      3637      3634      3637      3638
      3634      3637      3639      3634      3637      3640      3638      3637      3639
      3638      3637      3640      3639      3637      3640      3637      3640      3641
      3637      3640      3642      3637      3640      3643      3641      3640      3642
      3641      3640      3643      3642      3640      3643      3640      3643      3644
      3640      3643      3645      3640      3643      3646      3644      3643      3645
      3644      3643      3646      3645      3643      3646      3643      3646      3647
      3643      3646      3648      3647      3646      3648      3646      3648      3649
      3646      3648      3650      3649      3648      3650      3648      3650      3651
      3648      3650      3652      3648      3650      3653      3651      3650      3652
      3651      3650      3653      3652      3650      3653      3650      3653      3654
      3650      3653      3655      3650      3653      3656      3654      3653      3655
      3654      3653      3656      3655      3653      3656      3653      3656      3657
      3653      3656      3658      3653      3656      3659      3657      3656      3658
      3657      3656      3659      3658      3656      3659      3656      3659      3660
      3656      3659      3661      3656      3659      3662      3660      3659      3661
      3660      3659      3662      3661      3659      3662      3659      3662      3663
      3659      3662      3664      3659      3662      3665      3663      3662      3664
      3663      3662      3665      3664      3662      3665      3662      3665      3666
      3662      3665      3667      3662      3665      3668      3666      3665      3667
      3666      3665      3668      3667      3665      3668      3665      3668      3669
      3665      3668      3670      3665      3668      3671      3669      3668      3670
      3669      3668      3671      3670      3668      3671      3668      3671      3672
      3668      3671      3673      3668      3671      3674      3672      3671      3673
      3672      3671      3674      3673      3671      3674      3676      3675      3679
      3676      3675      3683      3676      3675      3687      3679      3675      3683
      3679      3675      3687      3683      3675      3687      3675      3676      3677
      3675      3676      3678      3675      3676      3691      3677      3676      3678
      3677      3676      3691      3678      3676      3691      3675      3679      3680
      3675      3679      3681      3675      3679      3682      3680      3679      3681
      3680      3679      3682      3681      3679      3682      3675      3683      3684
      3675      3683      3685      3675      3683      3686      3684      3683      3685
      3684      3683      3686      3685      3683      3686      3675      3687      3688
      3675      3687      3689      3675      3687      3690      3688      3687      3689
      3688      3687      3690      3689      3687      3690      3676      3691      3692
      3676      3691      3693      3676      3691      3697      3692      3691      3693
      3692      3691      3697      3693      3691      3697      3695      3694      3696
      3695      3694      3697      3695      3694      3698      3696      3694      3697
      3696      3694      3698      3697      3694      3698      3691      3697      3694
      3694      3698      3699      3698      3699      3700      3698      3699      3701
      3698      3699      3702      3700      3699      3701      3700      3699      3702
      3701      3699      3702      3699      3702      3703      3699      3702      3704
      3699      3702      3710      3703      3702      3704      3703      3702      3710
      3704      3702      3710      3702      3704      3705      3704      3705      3706
      3704      3705      3707      3706      3705      3707      3705      3707      3708
      3705      3707      3709      3705      3707      3719      3708      3707      3709
      3708      3707      3719      3709      3707      3719      3702      3710      3711
      3702      3710      3712      3702      3710      3713      3711      3710      3712
      3711      3710      3713      3712      3710      3713      3710      3713      3714
      3713      3714      3715      3713      3714      3716      3715      3714      3716
      3714      3716      3717      3714      3716      3718      3714      3716      3766
      3717      3716      3718      3717      3716      3766      3718      3716      3766
      3707      3719      3720      3707      3719      3721      3707      3719      3722
      3720      3719      3721      3720      3719      3722      3721      3719      3722
      3719      3722      3723      3719      3722      3724      3719      3722      3725
      3723      3722      3724      3723      3722      3725      3724      3722      3725
      3722      3725      3726      3722      3725      3727      3722      3725      3728
      3726      3725      3727      3726      3725      3728      3727      3725      3728
      3725      3728      3729      3725      3728      3730      3725      3728      3731
      3729      3728      3730      3729      3728      3731      3730      3728      3731
      3728      3731      3732      3728      3731      3733      3728      3731      3734
      3732      3731      3733      3732      3731      3734      3733      3731      3734
      3731      3734      3735      3731      3734      3736      3731      3734      3737
      3735      3734      3736      3735      3734      3737      3736      3734      3737
      3734      3737      3738      3734      3737      3739      3738      3737      3739
      3737      3739      3740      3737      3739      3741      3740      3739      3741
      3739      3741      3742      3739      3741      3743      3739      3741      3744
      3742      3741      3743      3742      3741      3744      3743      3741      3744
      3741      3744      3745      3741      3744      3746      3741      3744      3747
      3745      3744      3746      3745      3744      3747      3746      3744      3747
      3744      3747      3748      3744      3747      3749      3744      3747      3750
      3748      3747      3749      3748      3747      3750      3749      3747      3750
      3747      3750      3751      3747      3750      3752      3747      3750      3753
      3751      3750      3752      3751      3750      3753      3752      3750      3753
      3750      3753      3754      3750      3753      3755      3750      3753      3756
      3754      3753      3755      3754      3753      3756      3755      3753      3756
      3753      3756      3757      3753      3756      3758      3753      3756      3759
      3757      3756      3758      3757      3756      3759      3758      3756      3759
      3756      3759      3760      3756      3759      3761      3756      3759      3762
      3760      3759      3761      3760      3759      3762      3761      3759      3762
      3759      3762      3763      3759      3762      3764      3759      3762      3765
      3763      3762      3764      3763      3762      3765      3764      3762      3765
      3716      3766      3767      3716      3766      3768      3716      3766      3769
      3767      3766      3768      3767      3766      3769      3768      3766      3769
      3766      3769      3770      3766      3769      3771      3766      3769      3772
      3770      3769      3771      3770      3769      3772      3771      3769      3772
      3769      3772      3773      3769      3772      3774      3769      3772      3775
      3773      3772      3774      3773      3772      3775      3774      3772      3775
      3772      3775      3776      3772      3775      3777      3772      3775      3778
      3776      3775      3777      3776      3775      3778      3777      3775      3778
      3775      3778      3779      3775      3778      3780      3775      3778      3781
      3779      3778      3780      3779      3778      3781      3780      3778      3781
      3778      3781      3782      3778      3781      3783      3778      3781      3784
      3782      3781      3783      3782      3781      3784      3783      3781      3784
      3781      3784      3785      3781      3784      3786      3785      3784      3786
      3784      3786      3787      3784      3786      3788      3787      3786      3788
      3786      3788      3789      3786      3788      3790      3786      3788      3791
      3789      3788      3790      3789      3788      3791      3790      3788      3791
      3788      3791      3792      3788      3791      3793      3788      3791      3794
      3792      3791      3793      3792      3791      3794      3793      3791      3794
      3791      3794      3795      3791      3794      3796      3791      3794      3797
      3795      3794      3796      3795      3794      3797      3796      3794      3797
      3794      3797      3798      3794      3797      3799      3794      3797      3800
      3798      3797      3799      3798      3797      3800      3799      3797      3800
      3797      3800      3801      3797      3800      3802      3797      3800      3803
      3801      3800      3802      3801      3800      3803      3802      3800      3803
      3800      3803      3804      3800      3803      3805      3800      3803      3806
      3804      3803      3805      3804      3803      3806      3805      3803      3806
      3803      3806      3807      3803      3806      3808      3803      3806      3809
      3807      3806      3808      3807      3806      3809      3808      3806      3809
      3806      3809      3810      3806      3809      3811      3806      3809      3812
      3810      3809      3811      3810      3809      3812      3811      3809      3812
      3814      3813      3817      3814      3813      3821      3814      3813      3825
      3817      3813      3821      3817      3813      3825      3821      3813      3825
      3813      3814      3815      3813      3814      3816      3813      3814      3829
      3815      3814      3816      3815      3814      3829      3816      3814      3829
      3813      3817      3818      3813      3817      3819      3813      3817      3820
      3818      3817      3819      3818      3817      3820      3819      3817      3820
      3813      3821      3822      3813      3821      3823      3813      3821      3824
      3822      3821      3823      3822      3821      3824      3823      3821      3824
      3813      3825      3826      3813      3825      3827      3813      3825      3828
      3826      3825      3827      3826      3825      3828      3827      3825      3828
      3814      3829      3830      3814      3829      3831      3814      3829      3835
      3830      3829      3831      3830      3829      3835      3831      3829      3835
      3833      3832      3834      3833      3832      3835      3833      3832      3836
      3834      3832      3835      3834      3832      3836      3835      3832      3836
      3829      3835      3832      3832      3836      3837      3836      3837      3838
      3836      3837      3839      3836      3837      3840      3838      3837      3839
      3838      3837      3840      3839      3837      3840      3837      3840      3841
      3837      3840      3842      3837      3840      3848      3841      3840      3842
      3841      3840      3848      3842      3840      3848      3840      3842      3843
      3842      3843      3844      3842      3843      3845      3844      3843      3845
      3843      3845      3846      3843      3845      3847      3843      3845      3857
      3846      3845      3847      3846      3845      3857      3847      3845      3857
      3840      3848      3849      3840      3848      3850      3840      3848      3851
      3849      3848      3850      3849      3848      3851      3850      3848      3851
      3848      3851      3852      3851      3852      3853      3851      3852      3854
      3853      3852      3854      3852      3854      3855      3852      3854      3856
      3852      3854      3904      3855      3854      3856      3855      3854      3904
      3856      3854      3904      3845      3857      3858      3845      3857      3859
      3845      3857      3860      3858      3857      3859      3858      3857      3860
      3859      3857      3860      3857      3860      3861      3857      3860      3862
      3857      3860      3863      3861      3860      3862      3861      3860      3863
      3862      3860      3863      3860      3863      3864      3860      3863      3865
      3860      3863      3866      3864      3863      3865      3864      3863      3866
      3865      3863      3866      3863      3866      3867      3863      3866      3868
      3863      3866      3869      3867      3866      3868      3867      3866      3869
      3868      3866      3869      3866      3869      3870      3866      3869      3871
      3866      3869      3872      3870      3869      3871      3870      3869      3872
      3871      3869      3872      3869      3872      3873      3869      3872      3874
      3869      3872      3875      3873      3872      3874      3873      3872      3875
      3874      3872      3875      3872      3875      3876      3872      3875      3877
      3876      3875      3877      3875      3877      3878      3875      3877      3879
      3878      3877      3879      3877      3879      3880      3877      3879      3881
      3877      3879      3882      3880      3879      3881      3880      3879      3882
      3881      3879      3882      3879      3882      3883      3879      3882      3884
      3879      3882      3885      3883      3882      3884      3883      3882      3885
      3884      3882      3885      3882      3885      3886      3882      3885      3887
      3882      3885      3888      3886      3885      3887      3886      3885      3888
      3887      3885      3888      3885      3888      3889      3885      3888      3890
      3885      3888      3891      3889      3888      3890      3889      3888      3891
      3890      3888      3891      3888      3891      3892      3888      3891      3893
      3888      3891      3894      3892      3891      3893      3892      3891      3894
      3893      3891      3894      3891      3894      3895      3891      3894      3896
      3891      3894      3897      3895      3894      3896      3895      3894      3897
      3896      3894      3897      3894      3897      3898      3894      3897      3899
      3894      3897      3900      3898      3897      3899      3898      3897      3900
      3899      3897      3900      3897      3900      3901      3897      3900      3902
      3897      3900      3903      3901      3900      3902      3901      3900      3903
      3902      3900      3903      3854      3904      3905      3854      3904      3906
      3854      3904      3907      3905      3904      3906      3905      3904      3907
      3906      3904      3907      3904      3907      3908      3904      3907      3909
      3904      3907      3910      3908      3907      3909      3908      3907      3910
      3909      3907      3910      3907      3910      3911      3907      3910      3912
      3907      3910      3913      3911      3910      3912      3911      3910      3913
      3912      3910      3913      3910      3913      3914      3910      3913      3915
      3910      3913      3916      3914      3913      3915      3914      3913      3916
      3915      3913      3916      3913      3916      3917      3913      3916      3918
      3913      3916      3919      3917      3916      3918      3917      3916      3919
      3918      3916      3919      3916      3919      3920      3916      3919      3921
      3916      3919      3922      3920      3919      3921      3920      3919      3922
      3921      3919      3922      3919      3922      3923      3919      3922      3924
      3923      3922      3924      3922      3924      3925      3922      3924      3926
      3925      3924      3926      3924      3926      3927      3924      3926      3928
      3924      3926      3929      3927      3926      3928      3927      3926      3929
      3928      3926      3929      3926      3929      3930      3926      3929      3931
      3926      3929      3932      3930      3929      3931      3930      3929      3932
      3931      3929      3932      3929      3932      3933      3929      3932      3934
      3929      3932      3935      3933      3932      3934      3933      3932      3935
      3934      3932      3935      3932      3935      3936      3932      3935      3937
      3932      3935      3938      3936      3935      3937      3936      3935      3938
      3937      3935      3938      3935      3938      3939      3935      3938      3940
      3935      3938      3941      3939      3938      3940      3939      3938      3941
      3940      3938      3941      3938      3941      3942      3938      3941      3943
      3938      3941      3944      3942      3941      3943      3942      3941      3944
      3943      3941      3944      3941      3944      3945      3941      3944      3946
      3941      3944      3947      3945      3944      3946      3945      3944      3947
      3946      3944      3947      3944      3947      3948      3944      3947      3949
      3944      3947      3950      3948      3947      3949      3948      3947      3950
      3949      3947      3950      3952      3951      3955      3952      3951      3959
      3952      3951      3963      3955      3951      3959      3955      3951      3963
      3959      3951      3963      3951      3952      3953      3951      3952      3954
      3951      3952      3967      3953      3952      3954      3953      3952      3967
      3954      3952      3967      3951      3955      3956      3951      3955      3957
      3951      3955      3958      3956      3955      3957      3956      3955      3958
      3957      3955      3958      3951      3959      3960      3951      3959      3961
      3951      3959      3962      3960      3959      3961      3960      3959      3962
      3961      3959      3962      3951      3963      3964      3951      3963      3965
      3951      3963      3966      3964      3963      3965      3964      3963      3966
      3965      3963      3966      3952      3967      3968      3952      3967      3969
      3952      3967      3973      3968      3967      3969      3968      3967      3973
      3969      3967      3973      3971      3970      3972      3971      3970      3973
      3971      3970      3974      3972      3970      3973      3972      3970      3974
      3973      3970      3974      3967      3973      3970      3970      3974      3975
      3974      3975      3976      3974      3975      3977      3974      3975      3978
      3976      3975      3977      3976      3975      3978      3977      3975      3978
      3975      3978      3979      3975      3978      3980      3975      3978      3986
      3979      3978      3980      3979      3978      3986      3980      3978      3986
      3978      3980      3981      3980      3981      3982      3980      3981      3983
      3982      3981      3983      3981      3983      3984      3981      3983      3985
      3981      3983      3995      3984      3983      3985      3984      3983      3995
      3985      3983      3995      3978      3986      3987      3978      3986      3988
      3978      3986      3989      3987      3986      3988      3987      3986      3989
      3988      3986      3989      3986      3989      3990      3989      3990      3991
      3989      3990      3992      3991      3990      3992      3990      3992      3993
      3990      3992      3994      3990      3992      4042      3993      3992      3994
      3993      3992      4042      3994      3992      4042      3983      3995      3996
      3983      3995      3997      3983      3995      3998      3996      3995      3997
      3996      3995      3998      3997      3995      3998      3995      3998      3999
      3995      3998      4000      3995      3998      4001      3999      3998      4000
      3999      3998      4001      4000      3998      4001      3998      4001      4002
      3998      4001      4003      3998      4001      4004      4002      4001      4003
      4002      4001      4004      4003      4001      4004      4001      4004      4005
      4001      4004      4006      4001      4004      4007      4005      4004      4006
      4005      4004      4007      4006      4004      4007      4004      4007      4008
      4004      4007      4009      4004      4007      4010      4008      4007      4009
      4008      4007      4010      4009      4007      4010      4007      4010      4011
      4007      4010      4012      4007      4010      4013      4011      4010      4012
      4011      4010      4013      4012      4010      4013      4010      4013      4014
      4010      4013      4015      4014      4013      4015      4013      4015      4016
      4013      4015      4017      4016      4015      4017      4015      4017      4018
      4015      4017      4019      4015      4017      4020      4018      4017      4019
      4018      4017      4020      4019      4017      4020      4017      4020      4021
      4017      4020      4022      4017      4020      4023      4021      4020      4022
      4021      4020      4023      4022      4020      4023      4020      4023      4024
      4020      4023      4025      4020      4023      4026      4024      4023      4025
      4024      4023      4026      4025      4023      4026      4023      4026      4027
      4023      4026      4028      4023      4026      4029      4027      4026      4028
      4027      4026      4029      4028      4026      4029      4026      4029      4030
      4026      4029      4031      4026      4029      4032      4030      4029      4031
      4030      4029      4032      4031      4029      4032      4029      4032      4033
      4029      4032      4034      4029      4032      4035      4033      4032      4034
      4033      4032      4035      4034      4032      4035      4032      4035      4036
      4032      4035      4037      4032      4035      4038      4036      4035      4037
      4036      4035      4038      4037      4035      4038      4035      4038      4039
      4035      4038      4040      4035      4038      4041      4039      4038      4040
      4039      4038      4041      4040      4038      4041      3992      4042      4043
      3992      4042      4044      3992      4042      4045      4043      4042      4044
      4043      4042      4045      4044      4042      4045      4042      4045      4046
      4042      4045      4047      4042      4045      4048      4046      4045      4047
      4046      4045      4048      4047      4045      4048      4045      4048      4049
      4045      4048      4050      4045      4048      4051      4049      4048      4050
      4049      4048      4051      4050      4048      4051      4048      4051      4052
      4048      4051      4053      4048      4051      4054      4052      4051      4053
      4052      4051      4054      4053      4051      4054      4051      4054      4055
      4051      4054      4056      4051      4054      4057      4055      4054      4056
      4055      4054      4057      4056      4054      4057      4054      4057      4058
      4054      4057      4059      4054      4057      4060      4058      4057      4059
      4058      4057      4060      4059      4057      4060      4057      4060      4061
      4057      4060      4062      4061      4060      4062      4060      4062      4063
      4060      4062      4064      4063      4062      4064      4062      4064      4065
      4062      4064      4066      4062      4064      4067      4065      4064      4066
      4065      4064      4067      4066      4064      4067      4064      4067      4068
      4064      4067      4069      4064      4067      4070      4068      4067      4069
      4068      4067      4070      4069      4067      4070      4067      4070      4071
      4067      4070      4072      4067      4070      4073      4071      4070      4072
      4071      4070      4073      4072      4070      4073      4070      4073      4074
      4070      4073      4075      4070      4073      4076      4074      4073      4075
      4074      4073      4076      4075      4073      4076      4073      4076      4077
      4073      4076      4078      4073      4076      4079      4077      4076      4078
      4077      4076      4079      4078      4076      4079      4076      4079      4080
      4076      4079      4081      4076      4079      4082      4080      4079      4081
      4080      4079      4082      4081      4079      4082      4079      4082      4083
      4079      4082      4084      4079      4082      4085      4083      4082      4084
      4083      4082      4085      4084      4082      4085      4082      4085      4086
      4082      4085      4087      4082      4085      4088      4086      4085      4087
      4086      4085      4088      4087      4085      4088      4090      4089      4093
      4090      4089      4097      4090      4089      4101      4093      4089      4097
      4093      4089      4101      4097      4089      4101      4089      4090      4091
      4089      4090      4092      4089      4090      4105      4091      4090      4092
      4091      4090      4105      4092      4090      4105      4089      4093      4094
      4089      4093      4095      4089      4093      4096      4094      4093      4095
      4094      4093      4096      4095      4093      4096      4089      4097      4098
      4089      4097      4099      4089      4097      4100      4098      4097      4099
      4098      4097      4100      4099      4097      4100      4089      4101      4102
      4089      4101      4103      4089      4101      4104      4102      4101      4103
      4102      4101      4104      4103      4101      4104      4090      4105      4106
      4090      4105      4107      4090      4105      4111      4106      4105      4107
      4106      4105      4111      4107      4105      4111      4109      4108      4110
      4109      4108      4111      4109      4108      4112      4110      4108      4111
      4110      4108      4112      4111      4108      4112      4105      4111      4108
      4108      4112      4113      4112      4113      4114      4112      4113      4115
      4112      4113      4116      4114      4113      4115      4114      4113      4116
      4115      4113      4116      4113      4116      4117      4113      4116      4118
      4113      4116      4124      4117      4116      4118      4117      4116      4124
      4118      4116      4124      4116      4118      4119      4118      4119      4120
      4118      4119      4121      4120      4119      4121      4119      4121      4122
      4119      4121      4123      4119      4121      4133      4122      4121      4123
      4122      4121      4133      4123      4121      4133      4116      4124      4125
      4116      4124      4126      4116      4124      4127      4125      4124      4126
      4125      4124      4127      4126      4124      4127      4124      4127      4128
      4127      4128      4129      4127      4128      4130      4129      4128      4130
      4128      4130      4131      4128      4130      4132      4128      4130      4180
      4131      4130      4132      4131      4130      4180      4132      4130      4180
      4121      4133      4134      4121      4133      4135      4121      4133      4136
      4134      4133      4135      4134      4133      4136      4135      4133      4136
      4133      4136      4137      4133      4136      4138      4133      4136      4139
      4137      4136      4138      4137      4136      4139      4138      4136      4139
      4136      4139      4140      4136      4139      4141      4136      4139      4142
      4140      4139      4141      4140      4139      4142      4141      4139      4142
      4139      4142      4143      4139      4142      4144      4139      4142      4145
      4143      4142      4144      4143      4142      4145      4144      4142      4145
      4142      4145      4146      4142      4145      4147      4142      4145      4148
      4146      4145      4147      4146      4145      4148      4147      4145      4148
      4145      4148      4149      4145      4148      4150      4145      4148      4151
      4149      4148      4150      4149      4148      4151      4150      4148      4151
      4148      4151      4152      4148      4151      4153      4152      4151      4153
      4151      4153      4154      4151      4153      4155      4154      4153      4155
      4153      4155      4156      4153      4155      4157      4153      4155      4158
      4156      4155      4157      4156      4155      4158      4157      4155      4158
      4155      4158      4159      4155      4158      4160      4155      4158      4161
      4159      4158      4160      4159      4158      4161      4160      4158      4161
      4158      4161      4162      4158      4161      4163      4158      4161      4164
      4162      4161      4163      4162      4161      4164      4163      4161      4164
      4161      4164      4165      4161      4164      4166      4161      4164      4167
      4165      4164      4166      4165      4164      4167      4166      4164      4167
      4164      4167      4168      4164      4167      4169      4164      4167      4170
      4168      4167      4169      4168      4167      4170      4169      4167      4170
      4167      4170      4171      4167      4170      4172      4167      4170      4173
      4171      4170      4172      4171      4170      4173      4172      4170      4173
      4170      4173      4174      4170      4173      4175      4170      4173      4176
      4174      4173      4175      4174      4173      4176      4175      4173      4176
      4173      4176      4177      4173      4176      4178      4173      4176      4179
      4177      4176      4178      4177      4176      4179      4178      4176      4179
      4130      4180      4181      4130      4180      4182      4130      4180      4183
      4181      4180      4182      4181      4180      4183      4182      4180      4183
      4180      4183      4184      4180      4183      4185      4180      4183      4186
      4184      4183      4185      4184      4183      4186      4185      4183      4186
      4183      4186      4187      4183      4186      4188      4183      4186      4189
      4187      4186      4188      4187      4186      4189      4188      4186      4189
      4186      4189      4190      4186      4189      4191      4186      4189      4192
      4190      4189      4191      4190      4189      4192      4191      4189      4192
      4189      4192      4193      4189      4192      4194      4189      4192      4195
      4193      4192      4194      4193      4192      4195      4194      4192      4195
      4192      4195      4196      4192      4195      4197      4192      4195      4198
      4196      4195      4197      4196      4195      4198      4197      4195      4198
      4195      4198      4199      4195      4198      4200      4199      4198      4200
      4198      4200      4201      4198      4200      4202      4201      4200      4202
      4200      4202      4203      4200      4202      4204      4200      4202      4205
      4203      4202      4204      4203      4202      4205      4204      4202      4205
      4202      4205      4206      4202      4205      4207      4202      4205      4208
      4206      4205      4207      4206      4205      4208      4207      4205      4208
      4205      4208      4209      4205      4208      4210      4205      4208      4211
      4209      4208      4210      4209      4208      4211      4210      4208      4211
      4208      4211      4212      4208      4211      4213      4208      4211      4214
      4212      4211      4213      4212      4211      4214      4213      4211      4214
      4211      4214      4215      4211      4214      4216      4211      4214      4217
      4215      4214      4216      4215      4214      4217      4216      4214      4217
      4214      4217      4218      4214      4217      4219      4214      4217      4220
      4218      4217      4219      4218      4217      4220      4219      4217      4220
      4217      4220      4221      4217      4220      4222      4217      4220      4223
      4221      4220      4222      4221      4220      4223      4222      4220      4223
      4220      4223      4224      4220      4223      4225      4220      4223      4226
      4224      4223      4225      4224      4223      4226      4225      4223      4226
      4228      4227      4231      4228      4227      4235      4228      4227      4239
      4231      4227      4235      4231      4227      4239      4235      4227      4239
      4227      4228      4229      4227      4228      4230      4227      4228      4243
      4229      4228      4230      4229      4228      4243      4230      4228      4243
      4227      4231      4232      4227      4231      4233      4227      4231      4234
      4232      4231      4233      4232      4231      4234      4233      4231      4234
      4227      4235      4236      4227      4235      4237      4227      4235      4238
      4236      4235      4237      4236      4235      4238      4237      4235      4238
      4227      4239      4240      4227      4239      4241      4227      4239      4242
      4240      4239      4241      4240      4239      4242      4241      4239      4242
      4228      4243      4244      4228      4243      4245      4228      4243      4249
      4244      4243      4245      4244      4243      4249      4245      4243      4249
      4247      4246      4248      4247      4246      4249      4247      4246      4250
      4248      4246      4249      4248      4246      4250      4249      4246      4250
      4243      4249      4246      4246      4250      4251      4250      4251      4252
      4250      4251      4253      4250      4251      4254      4252      4251      4253
      4252      4251      4254      4253      4251      4254      4251      4254      4255
      4251      4254      4256      4251      4254      4262      4255      4254      4256
      4255      4254      4262      4256      4254      4262      4254      4256      4257
      4256      4257      4258      4256      4257      4259      4258      4257      4259
      4257      4259      4260      4257      4259      4261      4257      4259      4271
      4260      4259      4261      4260      4259      4271      4261      4259      4271
      4254      4262      4263      4254      4262      4264      4254      4262      4265
      4263      4262      4264      4263      4262      4265      4264      4262      4265
      4262      4265      4266      4265      4266      4267      4265      4266      4268
      4267      4266      4268      4266      4268      4269      4266      4268      4270
      4266      4268      4318      4269      4268      4270      4269      4268      4318
      4270      4268      4318      4259      4271      4272      4259      4271      4273
      4259      4271      4274      4272      4271      4273      4272      4271      4274
      4273      4271      4274      4271      4274      4275      4271      4274      4276
      4271      4274      4277      4275      4274      4276      4275      4274      4277
      4276      4274      4277      4274      4277      4278      4274      4277      4279
      4274      4277      4280      4278      4277      4279      4278      4277      4280
      4279      4277      4280      4277      4280      4281      4277      4280      4282
      4277      4280      4283      4281      4280      4282      4281      4280      4283
      4282      4280      4283      4280      4283      4284      4280      4283      4285
      4280      4283      4286      4284      4283      4285      4284      4283      4286
      4285      4283      4286      4283      4286      4287      4283      4286      4288
      4283      4286      4289      4287      4286      4288      4287      4286      4289
      4288      4286      4289      4286      4289      4290      4286      4289      4291
      4290      4289      4291      4289      4291      4292      4289      4291      4293
      4292      4291      4293      4291      4293      4294      4291      4293      4295
      4291      4293      4296      4294      4293      4295      4294      4293      4296
      4295      4293      4296      4293      4296      4297      4293      4296      4298
      4293      4296      4299      4297      4296      4298      4297      4296      4299
      4298      4296      4299      4296      4299      4300      4296      4299      4301
      4296      4299      4302      4300      4299      4301      4300      4299      4302
      4301      4299      4302      4299      4302      4303      4299      4302      4304
      4299      4302      4305      4303      4302      4304      4303      4302      4305
      4304      4302      4305      4302      4305      4306      4302      4305      4307
      4302      4305      4308      4306      4305      4307      4306      4305      4308
      4307      4305      4308      4305      4308      4309      4305      4308      4310
      4305      4308      4311      4309      4308      4310      4309      4308      4311
      4310      4308      4311      4308      4311      4312      4308      4311      4313
      4308      4311      4314      4312      4311      4313      4312      4311      4314
      4313      4311      4314      4311      4314      4315      4311      4314      4316
      4311      4314      4317      4315      4314      4316      4315      4314      4317
      4316      4314      4317      4268      4318      4319      4268      4318      4320
      4268      4318      4321      4319      4318      4320      4319      4318      4321
      4320      4318      4321      4318      4321      4322      4318      4321      4323
      4318      4321      4324      4322      4321      4323      4322      4321      4324
      4323      4321      4324      4321      4324      4325      4321      4324      4326
      4321      4324      4327      4325      4324      4326      4325      4324      4327
      4326      4324      4327      4324      4327      4328      4324      4327      4329
      4324      4327      4330      4328      4327      4329      4328      4327      4330
      4329      4327      4330      4327      4330      4331      4327      4330      4332
      4327      4330      4333      4331      4330      4332      4331      4330      4333
      4332      4330      4333      4330      4333      4334      4330      4333      4335
      4330      4333      4336      4334      4333      4335      4334      4333      4336
      4335      4333      4336      4333      4336      4337      4333      4336      4338
      4337      4336      4338      4336      4338      4339      4336      4338      4340
      4339      4338      4340      4338      4340      4341      4338      4340      4342
      4338      4340      4343      4341      4340      4342      4341      4340      4343
      4342      4340      4343      4340      4343      4344      4340      4343      4345
      4340      4343      4346      4344      4343      4345      4344      4343      4346
      4345      4343      4346      4343      4346      4347      4343      4346      4348
      4343      4346      4349      4347      4346      4348      4347      4346      4349
      4348      4346      4349      4346      4349      4350      4346      4349      4351
      4346      4349      4352      4350      4349      4351      4350      4349      4352
      4351      4349      4352      4349      4352      4353      4349      4352      4354
      4349      4352      4355      4353      4352      4354      4353      4352      4355
      4354      4352      4355      4352      4355      4356      4352      4355      4357
      4352      4355      4358      4356      4355      4357      4356      4355      4358
      4357      4355      4358      4355      4358      4359      4355      4358      4360
      4355      4358      4361      4359      4358      4360      4359      4358      4361
      4360      4358      4361      4358      4361      4362      4358      4361      4363
      4358      4361      4364      4362      4361      4363      4362      4361      4364
      4363      4361      4364      4366      4365      4369      4366      4365      4373
      4366      4365      4377      4369      4365      4373      4369      4365      4377
      4373      4365      4377      4365      4366      4367      4365      4366      4368
      4365      4366      4381      4367      4366      4368      4367      4366      4381
      4368      4366      4381      4365      4369      4370      4365      4369      4371
      4365      4369      4372      4370      4369      4371      4370      4369      4372
      4371      4369      4372      4365      4373      4374      4365      4373      4375
      4365      4373      4376      4374      4373      4375      4374      4373      4376
      4375      4373      4376      4365      4377      4378      4365      4377      4379
      4365      4377      4380      4378      4377      4379      4378      4377      4380
      4379      4377      4380      4366      4381      4382      4366      4381      4383
      4366      4381      4387      4382      4381      4383      4382      4381      4387
      4383      4381      4387      4385      4384      4386      4385      4384      4387
      4385      4384      4388      4386      4384      4387      4386      4384      4388
      4387      4384      4388      4381      4387      4384      4384      4388      4389
      4388      4389      4390      4388      4389      4391      4388      4389      4392
      4390      4389      4391      4390      4389      4392      4391      4389      4392
      4389      4392      4393      4389      4392      4394      4389      4392      4400
      4393      4392      4394      4393      4392      4400      4394      4392      4400
      4392      4394      4395      4394      4395      4396      4394      4395      4397
      4396      4395      4397      4395      4397      4398      4395      4397      4399
      4395      4397      4409      4398      4397      4399      4398      4397      4409
      4399      4397      4409      4392      4400      4401      4392      4400      4402
      4392      4400      4403      4401      4400      4402      4401      4400      4403
      4402      4400      4403      4400      4403      4404      4403      4404      4405
      4403      4404      4406      4405      4404      4406      4404      4406      4407
      4404      4406      4408      4404      4406      4456      4407      4406      4408
      4407      4406      4456      4408      4406      4456      4397      4409      4410
      4397      4409      4411      4397      4409      4412      4410      4409      4411
      4410      4409      4412      4411      4409      4412      4409      4412      4413
      4409      4412      4414      4409      4412      4415      4413      4412      4414
      4413      4412      4415      4414      4412      4415      4412      4415      4416
      4412      4415      4417      4412      4415      4418      4416      4415      4417
      4416      4415      4418      4417      4415      4418      4415      4418      4419
      4415      4418      4420      4415      4418      4421      4419      4418      4420
      4419      4418      4421      4420      4418      4421      4418      4421      4422
      4418      4421      4423      4418      4421      4424      4422      4421      4423
      4422      4421      4424      4423      4421      4424      4421      4424      4425
      4421      4424      4426      4421      4424      4427      4425      4424      4426
      4425      4424      4427      4426      4424      4427      4424      4427      4428
      4424      4427      4429      4428      4427      4429      4427      4429      4430
      4427      4429      4431      4430      4429      4431      4429      4431      4432
      4429      4431      4433      4429      4431      4434      4432      4431      4433
      4432      4431      4434      4433      4431      4434      4431      4434      4435
      4431      4434      4436      4431      4434      4437      4435      4434      4436
      4435      4434      4437      4436      4434      4437      4434      4437      4438
      4434      4437      4439      4434      4437      4440      4438      4437      4439
      4438      4437      4440      4439      4437      4440      4437      4440      4441
      4437      4440      4442      4437      4440      4443      4441      4440      4442
      4441      4440      4443      4442      4440      4443      4440      4443      4444
      4440      4443      4445      4440      4443      4446      4444      4443      4445
      4444      4443      4446      4445      4443      4446      4443      4446      4447
      4443      4446      4448      4443      4446      4449      4447      4446      4448
      4447      4446      4449      4448      4446      4449      4446      4449      4450
      4446      4449      4451      4446      4449      4452      4450      4449      4451
      4450      4449      4452      4451      4449      4452      4449      4452      4453
      4449      4452      4454      4449      4452      4455      4453      4452      4454
      4453      4452      4455      4454      4452      4455      4406      4456      4457
      4406      4456      4458      4406      4456      4459      4457      4456      4458
      4457      4456      4459      4458      4456      4459      4456      4459      4460
      4456      4459      4461      4456      4459      4462      4460      4459      4461
      4460      4459      4462      4461      4459      4462      4459      4462      4463
      4459      4462      4464      4459      4462      4465      4463      4462      4464
      4463      4462      4465      4464      4462      4465      4462      4465      4466
      4462      4465      4467      4462      4465      4468      4466      4465      4467
      4466      4465      4468      4467      4465      4468      4465      4468      4469
      4465      4468      4470      4465      4468      4471      4469      4468      4470
      4469      4468      4471      4470      4468      4471      4468      4471      4472
      4468      4471      4473      4468      4471      4474      4472      4471      4473
      4472      4471      4474      4473      4471      4474      4471      4474      4475
      4471      4474      4476      4475      4474      4476      4474      4476      4477
      4474      4476      4478      4477      4476      4478      4476      4478      4479
      4476      4478      4480      4476      4478      4481      4479      4478      4480
      4479      4478      4481      4480      4478      4481      4478      4481      4482
      4478      4481      4483      4478      4481      4484      4482      4481      4483
      4482      4481      4484      4483      4481      4484      4481      4484      4485
      4481      4484      4486      4481      4484      4487      4485      4484      4486
      4485      4484      4487      4486      4484      4487      4484      4487      4488
      4484      4487      4489      4484      4487      4490      4488      4487      4489
      4488      4487      4490      4489      4487      4490      4487      4490      4491
      4487      4490      4492      4487      4490      4493      4491      4490      4492
      4491      4490      4493      4492      4490      4493      4490      4493      4494
      4490      4493      4495      4490      4493      4496      4494      4493      4495
      4494      4493      4496      4495      4493      4496      4493      4496      4497
      4493      4496      4498      4493      4496      4499      4497      4496      4498
      4497      4496      4499      4498      4496      4499      4496      4499      4500
      4496      4499      4501      4496      4499      4502      4500      4499      4501
      4500      4499      4502      4501      4499      4502      4504      4503      4507
      4504      4503      4511      4504      4503      4515      4507      4503      4511
      4507      4503      4515      4511      4503      4515      4503      4504      4505
      4503      4504      4506      4503      4504      4519      4505      4504      4506
      4505      4504      4519      4506      4504      4519      4503      4507      4508
      4503      4507      4509      4503      4507      4510      4508      4507      4509
      4508      4507      4510      4509      4507      4510      4503      4511      4512
      4503      4511      4513      4503      4511      4514      4512      4511      4513
      4512      4511      4514      4513      4511      4514      4503      4515      4516
      4503      4515      4517      4503      4515      4518      4516      4515      4517
      4516      4515      4518      4517      4515      4518      4504      4519      4520
      4504      4519      4521      4504      4519      4525      4520      4519      4521
      4520      4519      4525      4521      4519      4525      4523      4522      4524
      4523      4522      4525      4523      4522      4526      4524      4522      4525
      4524      4522      4526      4525      4522      4526      4519      4525      4522
      4522      4526      4527      4526      4527      4528      4526      4527      4529
      4526      4527      4530      4528      4527      4529      4528      4527      4530
      4529      4527      4530      4527      4530      4531      4527      4530      4532
      4527      4530      4538      4531      4530      4532      4531      4530      4538
      4532      4530      4538      4530      4532      4533      4532      4533      4534
      4532      4533      4535      4534      4533      4535      4533      4535      4536
      4533      4535      4537      4533      4535      4547      4536      4535      4537
      4536      4535      4547      4537      4535      4547      4530      4538      4539
      4530      4538      4540      4530      4538      4541      4539      4538      4540
      4539      4538      4541      4540      4538      4541      4538      4541      4542
      4541      4542      4543      4541      4542      4544      4543      4542      4544
      4542      4544      4545      4542      4544      4546      4542      4544      4594
      4545      4544      4546      4545      4544      4594      4546      4544      4594
      4535      4547      4548      4535      4547      4549      4535      4547      4550
      4548      4547      4549      4548      4547      4550      4549      4547      4550
      4547      4550      4551      4547      4550      4552      4547      4550      4553
      4551      4550      4552      4551      4550      4553      4552      4550      4553
      4550      4553      4554      4550      4553      4555      4550      4553      4556
      4554      4553      4555      4554      4553      4556      4555      4553      4556
      4553      4556      4557      4553      4556      4558      4553      4556      4559
      4557      4556      4558      4557      4556      4559      4558      4556      4559
      4556      4559      4560      4556      4559      4561      4556      4559      4562
      4560      4559      4561      4560      4559      4562      4561      4559      4562
      4559      4562      4563      4559      4562      4564      4559      4562      4565
      4563      4562      4564      4563      4562      4565      4564      4562      4565
      4562      4565      4566      4562      4565      4567      4566      4565      4567
      4565      4567      4568      4565      4567      4569      4568      4567      4569
      4567      4569      4570      4567      4569      4571      4567      4569      4572
      4570      4569      4571      4570      4569      4572      4571      4569      4572
      4569      4572      4573      4569      4572      4574      4569      4572      4575
      4573      4572      4574      4573      4572      4575      4574      4572      4575
      4572      4575      4576      4572      4575      4577      4572      4575      4578
      4576      4575      4577      4576      4575      4578      4577      4575      4578
      4575      4578      4579      4575      4578      4580      4575      4578      4581
      4579      4578      4580      4579      4578      4581      4580      4578      4581
      4578      4581      4582      4578      4581      4583      4578      4581      4584
      4582      4581      4583      4582      4581      4584      4583      4581      4584
      4581      4584      4585      4581      4584      4586      4581      4584      4587
      4585      4584      4586      4585      4584      4587      4586      4584      4587
      4584      4587      4588      4584      4587      4589      4584      4587      4590
      4588      4587      4589      4588      4587      4590      4589      4587      4590
      4587      4590      4591      4587      4590      4592      4587      4590      4593
      4591      4590      4592      4591      4590      4593      4592      4590      4593
      4544      4594      4595      4544      4594      4596      4544      4594      4597
      4595      4594      4596      4595      4594      4597      4596      4594      4597
      4594      4597      4598      4594      4597      4599      4594      4597      4600
      4598      4597      4599      4598      4597      4600      4599      4597      4600
      4597      4600      4601      4597      4600      4602      4597      4600      4603
      4601      4600      4602      4601      4600      4603      4602      4600      4603
      4600      4603      4604      4600      4603      4605      4600      4603      4606
      4604      4603      4605      4604      4603      4606      4605      4603      4606
      4603      4606      4607      4603      4606      4608      4603      4606      4609
      4607      4606      4608      4607      4606      4609      4608      4606      4609
      4606      4609      4610      4606      4609      4611      4606      4609      4612
      4610      4609      4611      4610      4609      4612      4611      4609      4612
      4609      4612      4613      4609      4612      4614      4613      4612      4614
      4612      4614      4615      4612      4614      4616      4615      4614      4616
      4614      4616      4617      4614      4616      4618      4614      4616      4619
      4617      4616      4618      4617      4616      4619      4618      4616      4619
      4616      4619      4620      4616      4619      4621      4616      4619      4622
      4620      4619      4621      4620      4619      4622      4621      4619      4622
      4619      4622      4623      4619      4622      4624      4619      4622      4625
      4623      4622      4624      4623      4622      4625      4624      4622      4625
      4622      4625      4626      4622      4625      4627      4622      4625      4628
      4626      4625      4627      4626      4625      4628      4627      4625      4628
      4625      4628      4629      4625      4628      4630      4625      4628      4631
      4629      4628      4630      4629      4628      4631      4630      4628      4631
      4628      4631      4632      4628      4631      4633      4628      4631      4634
      4632      4631      4633      4632      4631      4634      4633      4631      4634
      4631      4634      4635      4631      4634      4636      4631      4634      4637
      4635      4634      4636      4635      4634      4637      4636      4634      4637
      4634      4637      4638      4634      4637      4639      4634      4637      4640
      4638      4637      4639      4638      4637      4640      4639      4637      4640
      4642      4641      4645      4642      4641      4649      4642      4641      4653
      4645      4641      4649      4645      4641      4653      4649      4641      4653
      4641      4642      4643      4641      4642      4644      4641      4642      4657
      4643      4642      4644      4643      4642      4657      4644      4642      4657
      4641      4645      4646      4641      4645      4647      4641      4645      4648
      4646      4645      4647      4646      4645      4648      4647      4645      4648
      4641      4649      4650      4641      4649      4651      4641      4649      4652
      4650      4649      4651      4650      4649      4652      4651      4649      4652
      4641      4653      4654      4641      4653      4655      4641      4653      4656
      4654      4653      4655      4654      4653      4656      4655      4653      4656
      4642      4657      4658      4642      4657      4659      4642      4657      4663
      4658      4657      4659      4658      4657      4663      4659      4657      4663
      4661      4660      4662      4661      4660      4663      4661      4660      4664
      4662      4660      4663      4662      4660      4664      4663      4660      4664
      4657      4663      4660      4660      4664      4665      4664      4665      4666
      4664      4665      4667      4664      4665      4668      4666      4665      4667
      4666      4665      4668      4667      4665      4668      4665      4668      4669
      4665      4668      4670      4665      4668      4676      4669      4668      4670
      4669      4668      4676      4670      4668      4676      4668      4670      4671
      4670      4671      4672      4670      4671      4673      4672      4671      4673
      4671      4673      4674      4671      4673      4675      4671      4673      4685
      4674      4673      4675      4674      4673      4685      4675      4673      4685
      4668      4676      4677      4668      4676      4678      4668      4676      4679
      4677      4676      4678      4677      4676      4679      4678      4676      4679
      4676      4679      4680      4679      4680      4681      4679      4680      4682
      4681      4680      4682      4680      4682      4683      4680      4682      4684
      4680      4682      4732      4683      4682      4684      4683      4682      4732
      4684      4682      4732      4673      4685      4686      4673      4685      4687
      4673      4685      4688      4686      4685      4687      4686      4685      4688
      4687      4685      4688      4685      4688      4689      4685      4688      4690
      4685      4688      4691      4689      4688      4690      4689      4688      4691
      4690      4688      4691      4688      4691      4692      4688      4691      4693
      4688      4691      4694      4692      4691      4693      4692      4691      4694
      4693      4691      4694      4691      4694      4695      4691      4694      4696
      4691      4694      4697      4695      4694      4696      4695      4694      4697
      4696      4694      4697      4694      4697      4698      4694      4697      4699
      4694      4697      4700      4698      4697      4699      4698      4697      4700
      4699      4697      4700      4697      4700      4701      4697      4700      4702
      4697      4700      4703      4701      4700      4702      4701      4700      4703
      4702      4700      4703      4700      4703      4704      4700      4703      4705
      4704      4703      4705      4703      4705      4706      4703      4705      4707
      4706      4705      4707      4705      4707      4708      4705      4707      4709
      4705      4707      4710      4708      4707      4709      4708      4707      4710
      4709      4707      4710      4707      4710      4711      4707      4710      4712
      4707      4710      4713      4711      4710      4712      4711      4710      4713
      4712      4710      4713      4710      4713      4714      4710      4713      4715
      4710      4713      4716      4714      4713      4715      4714      4713      4716
      4715      4713      4716      4713      4716      4717      4713      4716      4718
      4713      4716      4719      4717      4716      4718      4717      4716      4719
      4718      4716      4719      4716      4719      4720      4716      4719      4721
      4716      4719      4722      4720      4719      4721      4720      4719      4722
      4721      4719      4722      4719      4722      4723      4719      4722      4724
      4719      4722      4725      4723      4722      4724      4723      4722      4725
      4724      4722      4725      4722      4725      4726      4722      4725      4727
      4722      4725      4728      4726      4725      4727      4726      4725      4728
      4727      4725      4728      4725      4728      4729      4725      4728      4730
      4725      4728      4731      4729      4728      4730      4729      4728      4731
      4730      4728      4731      4682      4732      4733      4682      4732      4734
      4682      4732      4735      4733      4732      4734      4733      4732      4735
      4734      4732      4735      4732      4735      4736      4732      4735      4737
      4732      4735      4738      4736      4735      4737      4736      4735      4738
      4737      4735      4738      4735      4738      4739      4735      4738      4740
      4735      4738      4741      4739      4738      4740      4739      4738      4741
      4740      4738      4741      4738      4741      4742      4738      4741      4743
      4738      4741      4744      4742      4741      4743      4742      4741      4744
      4743      4741      4744      4741      4744      4745      4741      4744      4746
      4741      4744      4747      4745      4744      4746      4745      4744      4747
      4746      4744      4747      4744      4747      4748      4744      4747      4749
      4744      4747      4750      4748      4747      4749      4748      4747      4750
      4749      4747      4750      4747      4750      4751      4747      4750      4752
      4751      4750      4752      4750      4752      4753      4750      4752      4754
      4753      4752      4754      4752      4754      4755      4752      4754      4756
      4752      4754      4757      4755      4754      4756      4755      4754      4757
      4756      4754      4757      4754      4757      4758      4754      4757      4759
      4754      4757      4760      4758      4757      4759      4758      4757      4760
      4759      4757      4760      4757      4760      4761      4757      4760      4762
      4757      4760      4763      4761      4760      4762      4761      4760      4763
      4762      4760      4763      4760      4763      4764      4760      4763      4765
      4760      4763      4766      4764      4763      4765      4764      4763      4766
      4765      4763      4766      4763      4766      4767      4763      4766      4768
      4763      4766      4769      4767      4766      4768      4767      4766      4769
      4768      4766      4769      4766      4769      4770      4766      4769      4771
      4766      4769      4772      4770      4769      4771      4770      4769      4772
      4771      4769      4772      4769      4772      4773      4769      4772      4774
      4769      4772      4775      4773      4772      4774      4773      4772      4775
      4774      4772      4775      4772      4775      4776      4772      4775      4777
      4772      4775      4778      4776      4775      4777      4776      4775      4778
      4777      4775      4778      4780      4779      4783      4780      4779      4787
      4780      4779      4791      4783      4779      4787      4783      4779      4791
      4787      4779      4791      4779      4780      4781      4779      4780      4782
      4779      4780      4795      4781      4780      4782      4781      4780      4795
      4782      4780      4795      4779      4783      4784      4779      4783      4785
      4779      4783      4786      4784      4783      4785      4784      4783      4786
      4785      4783      4786      4779      4787      4788      4779      4787      4789
      4779      4787      4790      4788      4787      4789      4788      4787      4790
      4789      4787      4790      4779      4791      4792      4779      4791      4793
      4779      4791      4794      4792      4791      4793      4792      4791      4794
      4793      4791      4794      4780      4795      4796      4780      4795      4797
      4780      4795      4801      4796      4795      4797      4796      4795      4801
      4797      4795      4801      4799      4798      4800      4799      4798      4801
      4799      4798      4802      4800      4798      4801      4800      4798      4802
      4801      4798      4802      4795      4801      4798      4798      4802      4803
      4802      4803      4804      4802      4803      4805      4802      4803      4806
      4804      4803      4805      4804      4803      4806      4805      4803      4806
      4803      4806      4807      4803      4806      4808      4803      4806      4814
      4807      4806      4808      4807      4806      4814      4808      4806      4814
      4806      4808      4809      4808      4809      4810      4808      4809      4811
      4810      4809      4811      4809      4811      4812      4809      4811      4813
      4809      4811      4823      4812      4811      4813      4812      4811      4823
      4813      4811      4823      4806      4814      4815      4806      4814      4816
      4806      4814      4817      4815      4814      4816      4815      4814      4817
      4816      4814      4817      4814      4817      4818      4817      4818      4819
      4817      4818      4820      4819      4818      4820      4818      4820      4821
      4818      4820      4822      4818      4820      4870      4821      4820      4822
      4821      4820      4870      4822      4820      4870      4811      4823      4824
      4811      4823      4825      4811      4823      4826      4824      4823      4825
      4824      4823      4826      4825      4823      4826      4823      4826      4827
      4823      4826      4828      4823      4826      4829      4827      4826      4828
      4827      4826      4829      4828      4826      4829      4826      4829      4830
      4826      4829      4831      4826      4829      4832      4830      4829      4831
      4830      4829      4832      4831      4829      4832      4829      4832      4833
      4829      4832      4834      4829      4832      4835      4833      4832      4834
      4833      4832      4835      4834      4832      4835      4832      4835      4836
      4832      4835      4837      4832      4835      4838      4836      4835      4837
      4836      4835      4838      4837      4835      4838      4835      4838      4839
      4835      4838      4840      4835      4838      4841      4839      4838      4840
      4839      4838      4841      4840      4838      4841      4838      4841      4842
      4838      4841      4843      4842      4841      4843      4841      4843      4844
      4841      4843      4845      4844      4843      4845      4843      4845      4846
      4843      4845      4847      4843      4845      4848      4846      4845      4847
      4846      4845      4848      4847      4845      4848      4845      4848      4849
      4845      4848      4850      4845      4848      4851      4849      4848      4850
      4849      4848      4851      4850      4848      4851      4848      4851      4852
      4848      4851      4853      4848      4851      4854      4852      4851      4853
      4852      4851      4854      4853      4851      4854      4851      4854      4855
      4851      4854      4856      4851      4854      4857      4855      4854      4856
      4855      4854      4857      4856      4854      4857      4854      4857      4858
      4854      4857      4859      4854      4857      4860      4858      4857      4859
      4858      4857      4860      4859      4857      4860      4857      4860      4861
      4857      4860      4862      4857      4860      4863      4861      4860      4862
      4861      4860      4863      4862      4860      4863      4860      4863      4864
      4860      4863      4865      4860      4863      4866      4864      4863      4865
      4864      4863      4866      4865      4863      4866      4863      4866      4867
      4863      4866      4868      4863      4866      4869      4867      4866      4868
      4867      4866      4869      4868      4866      4869      4820      4870      4871
      4820      4870      4872      4820      4870      4873      4871      4870      4872
      4871      4870      4873      4872      4870      4873      4870      4873      4874
      4870      4873      4875      4870      4873      4876      4874      4873      4875
      4874      4873      4876      4875      4873      4876      4873      4876      4877
      4873      4876      4878      4873      4876      4879      4877      4876      4878
      4877      4876      4879      4878      4876      4879      4876      4879      4880
      4876      4879      4881      4876      4879      4882      4880      4879      4881
      4880      4879      4882      4881      4879      4882      4879      4882      4883
      4879      4882      4884      4879      4882      4885      4883      4882      4884
      4883      4882      4885      4884      4882      4885      4882      4885      4886
      4882      4885      4887      4882      4885      4888      4886      4885      4887
      4886      4885      4888      4887      4885      4888      4885      4888      4889
      4885      4888      4890      4889      4888      4890      4888      4890      4891
      4888      4890      4892      4891      4890      4892      4890      4892      4893
      4890      4892      4894      4890      4892      4895      4893      4892      4894
      4893      4892      4895      4894      4892      4895      4892      4895      4896
      4892      4895      4897      4892      4895      4898      4896      4895      4897
      4896      4895      4898      4897      4895      4898      4895      4898      4899
      4895      4898      4900      4895      4898      4901      4899      4898      4900
      4899      4898      4901      4900      4898      4901      4898      4901      4902
      4898      4901      4903      4898      4901      4904      4902      4901      4903
      4902      4901      4904      4903      4901      4904      4901      4904      4905
      4901      4904      4906      4901      4904      4907      4905      4904      4906
      4905      4904      4907      4906      4904      4907      4904      4907      4908
      4904      4907      4909      4904      4907      4910      4908      4907      4909
      4908      4907      4910      4909      4907      4910      4907      4910      4911
      4907      4910      4912      4907      4910      4913      4911      4910      4912
      4911      4910      4913      4912      4910      4913      4910      4913      4914
      4910      4913      4915      4910      4913      4916      4914      4913      4915
      4914      4913      4916      4915      4913      4916      4918      4917      4921
      4918      4917      4925      4918      4917      4929      4921      4917      4925
      4921      4917      4929      4925      4917      4929      4917      4918      4919
      4917      4918      4920      4917      4918      4933      4919      4918      4920
      4919      4918      4933      4920      4918      4933      4917      4921      4922
      4917      4921      4923      4917      4921      4924      4922      4921      4923
      4922      4921      4924      4923      4921      4924      4917      4925      4926
      4917      4925      4927      4917      4925      4928      4926      4925      4927
      4926      4925      4928      4927      4925      4928      4917      4929      4930
      4917      4929      4931      4917      4929      4932      4930      4929      4931
      4930      4929      4932      4931      4929      4932      4918      4933      4934
      4918      4933      4935      4918      4933      4939      4934      4933      4935
      4934      4933      4939      4935      4933      4939      4937      4936      4938
      4937      4936      4939      4937      4936      4940      4938      4936      4939
      4938      4936      4940      4939      4936      4940      4933      4939      4936
      4936      4940      4941      4940      4941      4942      4940      4941      4943
      4940      4941      4944      4942      4941      4943      4942      4941      4944
      4943      4941      4944      4941      4944      4945      4941      4944      4946
      4941      4944      4952      4945      4944      4946      4945      4944      4952
      4946      4944      4952      4944      4946      4947      4946      4947      4948
      4946      4947      4949      4948      4947      4949      4947      4949      4950
      4947      4949      4951      4947      4949      4961      4950      4949      4951
      4950      4949      4961      4951      4949      4961      4944      4952      4953
      4944      4952      4954      4944      4952      4955      4953      4952      4954
      4953      4952      4955      4954      4952      4955      4952      4955      4956
      4955      4956      4957      4955      4956      4958      4957      4956      4958
      4956      4958      4959      4956      4958      4960      4956      4958      5008
      4959      4958      4960      4959      4958      5008      4960      4958      5008
      4949      4961      4962      4949      4961      4963      4949      4961      4964
      4962      4961      4963      4962      4961      4964      4963      4961      4964
      4961      4964      4965      4961      4964      4966      4961      4964      4967
      4965      4964      4966      4965      4964      4967      4966      4964      4967
      4964      4967      4968      4964      4967      4969      4964      4967      4970
      4968      4967      4969      4968      4967      4970      4969      4967      4970
      4967      4970      4971      4967      4970      4972      4967      4970      4973
      4971      4970      4972      4971      4970      4973      4972      4970      4973
      4970      4973      4974      4970      4973      4975      4970      4973      4976
      4974      4973      4975      4974      4973      4976      4975      4973      4976
      4973      4976      4977      4973      4976      4978      4973      4976      4979
      4977      4976      4978      4977      4976      4979      4978      4976      4979
      4976      4979      4980      4976      4979      4981      4980      4979      4981
      4979      4981      4982      4979      4981      4983      4982      4981      4983
      4981      4983      4984      4981      4983      4985      4981      4983      4986
      4984      4983      4985      4984      4983      4986      4985      4983      4986
      4983      4986      4987      4983      4986      4988      4983      4986      4989
      4987      4986      4988      4987      4986      4989      4988      4986      4989
      4986      4989      4990      4986      4989      4991      4986      4989      4992
      4990      4989      4991      4990      4989      4992      4991      4989      4992
      4989      4992      4993      4989      4992      4994      4989      4992      4995
      4993      4992      4994      4993      4992      4995      4994      4992      4995
      4992      4995      4996      4992      4995      4997      4992      4995      4998
      4996      4995      4997      4996      4995      4998      4997      4995      4998
      4995      4998      4999      4995      4998      5000      4995      4998      5001
      4999      4998      5000      4999      4998      5001      5000      4998      5001
      4998      5001      5002      4998      5001      5003      4998      5001      5004
      5002      5001      5003      5002      5001      5004      5003      5001      5004
      5001      5004      5005      5001      5004      5006      5001      5004      5007
      5005      5004      5006      5005      5004      5007      5006      5004      5007
      4958      5008      5009      4958      5008      5010      4958      5008      5011
      5009      5008      5010      5009      5008      5011      5010      5008      5011
      5008      5011      5012      5008      5011      5013      5008      5011      5014
      5012      5011      5013      5012      5011      5014      5013      5011      5014
      5011      5014      5015      5011      5014      5016      5011      5014      5017
      5015      5014      5016      5015      5014      5017      5016      5014      5017
      5014      5017      5018      5014      5017      5019      5014      5017      5020
      5018      5017      5019      5018      5017      5020      5019      5017      5020
      5017      5020      5021      5017      5020      5022      5017      5020      5023
      5021      5020      5022      5021      5020      5023      5022      5020      5023
      5020      5023      5024      5020      5023      5025      5020      5023      5026
      5024      5023      5025      5024      5023      5026      5025      5023      5026
      5023      5026      5027      5023      5026      5028      5027      5026      5028
      5026      5028      5029      5026      5028      5030      5029      5028      5030
      5028      5030      5031      5028      5030      5032      5028      5030      5033
      5031      5030      5032      5031      5030      5033      5032      5030      5033
      5030      5033      5034      5030      5033      5035      5030      5033      5036
      5034      5033      5035      5034      5033      5036      5035      5033      5036
      5033      5036      5037      5033      5036      5038      5033      5036      5039
      5037      5036      5038      5037      5036      5039      5038      5036      5039
      5036      5039      5040      5036      5039      5041      5036      5039      5042
      5040      5039      5041      5040      5039      5042      5041      5039      5042
      5039      5042      5043      5039      5042      5044      5039      5042      5045
      5043      5042      5044      5043      5042      5045      5044      5042      5045
      5042      5045      5046      5042      5045      5047      5042      5045      5048
      5046      5045      5047      5046      5045      5048      5047      5045      5048
      5045      5048      5049      5045      5048      5050      5045      5048      5051
      5049      5048      5050      5049      5048      5051      5050      5048      5051
      5048      5051      5052      5048      5051      5053      5048      5051      5054
      5052      5051      5053      5052      5051      5054      5053      5051      5054
      5056      5055      5059      5056      5055      5063      5056      5055      5067
      5059      5055      5063      5059      5055      5067      5063      5055      5067
      5055      5056      5057      5055      5056      5058      5055      5056      5071
      5057      5056      5058      5057      5056      5071      5058      5056      5071
      5055      5059      5060      5055      5059      5061      5055      5059      5062
      5060      5059      5061      5060      5059      5062      5061      5059      5062
      5055      5063      5064      5055      5063      5065      5055      5063      5066
      5064      5063      5065      5064      5063      5066      5065      5063      5066
      5055      5067      5068      5055      5067      5069      5055      5067      5070
      5068      5067      5069      5068      5067      5070      5069      5067      5070
      5056      5071      5072      5056      5071      5073      5056      5071      5077
      5072      5071      5073      5072      5071      5077      5073      5071      5077
      5075      5074      5076      5075      5074      5077      5075      5074      5078
      5076      5074      5077      5076      5074      5078      5077      5074      5078
      5071      5077      5074      5074      5078      5079      5078      5079      5080
      5078      5079      5081      5078      5079      5082      5080      5079      5081
      5080      5079      5082      5081      5079      5082      5079      5082      5083
      5079      5082      5084      5079      5082      5090      5083      5082      5084
      5083      5082      5090      5084      5082      5090      5082      5084      5085
      5084      5085      5086      5084      5085      5087      5086      5085      5087
      5085      5087      5088      5085      5087      5089      5085      5087      5099
      5088      5087      5089      5088      5087      5099      5089      5087      5099
      5082      5090      5091      5082      5090      5092      5082      5090      5093
      5091      5090      5092      5091      5090      5093      5092      5090      5093
      5090      5093      5094      5093      5094      5095      5093      5094      5096
      5095      5094      5096      5094      5096      5097      5094      5096      5098
      5094      5096      5146      5097      5096      5098      5097      5096      5146
      5098      5096      5146      5087      5099      5100      5087      5099      5101
      5087      5099      5102      5100      5099      5101      5100      5099      5102
      5101      5099      5102      5099      5102      5103      5099      5102      5104
      5099      5102      5105      5103      5102      5104      5103      5102      5105
      5104      5102      5105      5102      5105      5106      5102      5105      5107
      5102      5105      5108      5106      5105      5107      5106      5105      5108
      5107      5105      5108      5105      5108      5109      5105      5108      5110
      5105      5108      5111      5109      5108      5110      5109      5108      5111
      5110      5108      5111      5108      5111      5112      5108      5111      5113
      5108      5111      5114      5112      5111      5113      5112      5111      5114
      5113      5111      5114      5111      5114      5115      5111      5114      5116
      5111      5114      5117      5115      5114      5116      5115      5114      5117
      5116      5114      5117      5114      5117      5118      5114      5117      5119
      5118      5117      5119      5117      5119      5120      5117      5119      5121
      5120      5119      5121      5119      5121      5122      5119      5121      5123
      5119      5121      5124      5122      5121      5123      5122      5121      5124
      5123      5121      5124      5121      5124      5125      5121      5124      5126
      5121      5124      5127      5125      5124      5126      5125      5124      5127
      5126      5124      5127      5124      5127      5128      5124      5127      5129
      5124      5127      5130      5128      5127      5129      5128      5127      5130
      5129      5127      5130      5127      5130      5131      5127      5130      5132
      5127      5130      5133      5131      5130      5132      5131      5130      5133
      5132      5130      5133      5130      5133      5134      5130      5133      5135
      5130      5133      5136      5134      5133      5135      5134      5133      5136
      5135      5133      5136      5133      5136      5137      5133      5136      5138
      5133      5136      5139      5137      5136      5138      5137      5136      5139
      5138      5136      5139      5136      5139      5140      5136      5139      5141
      5136      5139      5142      5140      5139      5141      5140      5139      5142
      5141      5139      5142      5139      5142      5143      5139      5142      5144
      5139      5142      5145      5143      5142      5144      5143      5142      5145
      5144      5142      5145      5096      5146      5147      5096      5146      5148
      5096      5146      5149      5147      5146      5148      5147      5146      5149
      5148      5146      5149      5146      5149      5150      5146      5149      5151
      5146      5149      5152      5150      5149      5151      5150      5149      5152
      5151      5149      5152      5149      5152      5153      5149      5152      5154
      5149      5152      5155      5153      5152      5154      5153      5152      5155
      5154      5152      5155      5152      5155      5156      5152      5155      5157
      5152      5155      5158      5156      5155      5157      5156      5155      5158
      5157      5155      5158      5155      5158      5159      5155      5158      5160
      5155      5158      5161      5159      5158      5160      5159      5158      5161
      5160      5158      5161      5158      5161      5162      5158      5161      5163
      5158      5161      5164      5162      5161      5163      5162      5161      5164
      5163      5161      5164      5161      5164      5165      5161      5164      5166
      5165      5164      5166      5164      5166      5167      5164      5166      5168
      5167      5166      5168      5166      5168      5169      5166      5168      5170
      5166      5168      5171      5169      5168      5170      5169      5168      5171
      5170      5168      5171      5168      5171      5172      5168      5171      5173
      5168      5171      5174      5172      5171      5173      5172      5171      5174
      5173      5171      5174      5171      5174      5175      5171      5174      5176
      5171      5174      5177      5175      5174      5176      5175      5174      5177
      5176      5174      5177      5174      5177      5178      5174      5177      5179
      5174      5177      5180      5178      5177      5179      5178      5177      5180
      5179      5177      5180      5177      5180      5181      5177      5180      5182
      5177      5180      5183      5181      5180      5182      5181      5180      5183
      5182      5180      5183      5180      5183      5184      5180      5183      5185
      5180      5183      5186      5184      5183      5185      5184      5183      5186
      5185      5183      5186      5183      5186      5187      5183      5186      5188
      5183      5186      5189      5187      5186      5188      5187      5186      5189
      5188      5186      5189      5186      5189      5190      5186      5189      5191
      5186      5189      5192      5190      5189      5191      5190      5189      5192
      5191      5189      5192      5194      5193      5197      5194      5193      5201
      5194      5193      5205      5197      5193      5201      5197      5193      5205
      5201      5193      5205      5193      5194      5195      5193      5194      5196
      5193      5194      5209      5195      5194      5196      5195      5194      5209
      5196      5194      5209      5193      5197      5198      5193      5197      5199
      5193      5197      5200      5198      5197      5199      5198      5197      5200
      5199      5197      5200      5193      5201      5202      5193      5201      5203
      5193      5201      5204      5202      5201      5203      5202      5201      5204
      5203      5201      5204      5193      5205      5206      5193      5205      5207
      5193      5205      5208      5206      5205      5207      5206      5205      5208
      5207      5205      5208      5194      5209      5210      5194      5209      5211
      5194      5209      5215      5210      5209      5211      5210      5209      5215
      5211      5209      5215      5213      5212      5214      5213      5212      5215
      5213      5212      5216      5214      5212      5215      5214      5212      5216
      5215      5212      5216      5209      5215      5212      5212      5216      5217
      5216      5217      5218      5216      5217      5219      5216      5217      5220
      5218      5217      5219      5218      5217      5220      5219      5217      5220
      5217      5220      5221      5217      5220      5222      5217      5220      5228
      5221      5220      5222      5221      5220      5228      5222      5220      5228
      5220      5222      5223      5222      5223      5224      5222      5223      5225
      5224      5223      5225      5223      5225      5226      5223      5225      5227
      5223      5225      5237      5226      5225      5227      5226      5225      5237
      5227      5225      5237      5220      5228      5229      5220      5228      5230
      5220      5228      5231      5229      5228      5230      5229      5228      5231
      5230      5228      5231      5228      5231      5232      5231      5232      5233
      5231      5232      5234      5233      5232      5234      5232      5234      5235
      5232      5234      5236      5232      5234      5284      5235      5234      5236
      5235      5234      5284      5236      5234      5284      5225      5237      5238
      5225      5237      5239      5225      5237      5240      5238      5237      5239
      5238      5237      5240      5239      5237      5240      5237      5240      5241
      5237      5240      5242      5237      5240      5243      5241      5240      5242
      5241      5240      5243      5242      5240      5243      5240      5243      5244
      5240      5243      5245      5240      5243      5246      5244      5243      5245
      5244      5243      5246      5245      5243      5246      5243      5246      5247
      5243      5246      5248      5243      5246      5249      5247      5246      5248
      5247      5246      5249      5248      5246      5249      5246      5249      5250
      5246      5249      5251      5246      5249      5252      5250      5249      5251
      5250      5249      5252      5251      5249      5252      5249      5252      5253
      5249      5252      5254      5249      5252      5255      5253      5252      5254
      5253      5252      5255      5254      5252      5255      5252      5255      5256
      5252      5255      5257      5256      5255      5257      5255      5257      5258
      5255      5257      5259      5258      5257      5259      5257      5259      5260
      5257      5259      5261      5257      5259      5262      5260      5259      5261
      5260      5259      5262      5261      5259      5262      5259      5262      5263
      5259      5262      5264      5259      5262      5265      5263      5262      5264
      5263      5262      5265      5264      5262      5265      5262      5265      5266
      5262      5265      5267      5262      5265      5268      5266      5265      5267
      5266      5265      5268      5267      5265      5268      5265      5268      5269
      5265      5268      5270      5265      5268      5271      5269      5268      5270
      5269      5268      5271      5270      5268      5271      5268      5271      5272
      5268      5271      5273      5268      5271      5274      5272      5271      5273
      5272      5271      5274      5273      5271      5274      5271      5274      5275
      5271      5274      5276      5271      5274      5277      5275      5274      5276
      5275      5274      5277      5276      5274      5277      5274      5277      5278
      5274      5277      5279      5274      5277      5280      5278      5277      5279
      5278      5277      5280      5279      5277      5280      5277      5280      5281
      5277      5280      5282      5277      5280      5283      5281      5280      5282
      5281      5280      5283      5282      5280      5283      5234      5284      5285
      5234      5284      5286      5234      5284      5287      5285      5284      5286
      5285      5284      5287      5286      5284      5287      5284      5287      5288
      5284      5287      5289      5284      5287      5290      5288      5287      5289
      5288      5287      5290      5289      5287      5290      5287      5290      5291
      5287      5290      5292      5287      5290      5293      5291      5290      5292
      5291      5290      5293      5292      5290      5293      5290      5293      5294
      5290      5293      5295      5290      5293      5296      5294      5293      5295
      5294      5293      5296      5295      5293      5296      5293      5296      5297
      5293      5296      5298      5293      5296      5299      5297      5296      5298
      5297      5296      5299      5298      5296      5299      5296      5299      5300
      5296      5299      5301      5296      5299      5302      5300      5299      5301
      5300      5299      5302      5301      5299      5302      5299      5302      5303
      5299      5302      5304      5303      5302      5304      5302      5304      5305
      5302      5304      5306      5305      5304      5306      5304      5306      5307
      5304      5306      5308      5304      5306      5309      5307      5306      5308
      5307      5306      5309      5308      5306      5309      5306      5309      5310
      5306      5309      5311      5306      5309      5312      5310      5309      5311
      5310      5309      5312      5311      5309      5312      5309      5312      5313
      5309      5312      5314      5309      5312      5315      5313      5312      5314
      5313      5312      5315      5314      5312      5315      5312      5315      5316
      5312      5315      5317      5312      5315      5318      5316      5315      5317
      5316      5315      5318      5317      5315      5318      5315      5318      5319
      5315      5318      5320      5315      5318      5321      5319      5318      5320
      5319      5318      5321      5320      5318      5321      5318      5321      5322
      5318      5321      5323      5318      5321      5324      5322      5321      5323
      5322      5321      5324      5323      5321      5324      5321      5324      5325
      5321      5324      5326      5321      5324      5327      5325      5324      5326
      5325      5324      5327      5326      5324      5327      5324      5327      5328
      5324      5327      5329      5324      5327      5330      5328      5327      5329
      5328      5327      5330      5329      5327      5330      5332      5331      5335
      5332      5331      5339      5332      5331      5343      5335      5331      5339
      5335      5331      5343      5339      5331      5343      5331      5332      5333
      5331      5332      5334      5331      5332      5347      5333      5332      5334
      5333      5332      5347      5334      5332      5347      5331      5335      5336
      5331      5335      5337      5331      5335      5338      5336      5335      5337
      5336      5335      5338      5337      5335      5338      5331      5339      5340
      5331      5339      5341      5331      5339      5342      5340      5339      5341
      5340      5339      5342      5341      5339      5342      5331      5343      5344
      5331      5343      5345      5331      5343      5346      5344      5343      5345
      5344      5343      5346      5345      5343      5346      5332      5347      5348
      5332      5347      5349      5332      5347      5353      5348      5347      5349
      5348      5347      5353      5349      5347      5353      5351      5350      5352
      5351      5350      5353      5351      5350      5354      5352      5350      5353
      5352      5350      5354      5353      5350      5354      5347      5353      5350
      5350      5354      5355      5354      5355      5356      5354      5355      5357
      5354      5355      5358      5356      5355      5357      5356      5355      5358
      5357      5355      5358      5355      5358      5359      5355      5358      5360
      5355      5358      5366      5359      5358      5360      5359      5358      5366
      5360      5358      5366      5358      5360      5361      5360      5361      5362
      5360      5361      5363      5362      5361      5363      5361      5363      5364
      5361      5363      5365      5361      5363      5375      5364      5363      5365
      5364      5363      5375      5365      5363      5375      5358      5366      5367
      5358      5366      5368      5358      5366      5369      5367      5366      5368
      5367      5366      5369      5368      5366      5369      5366      5369      5370
      5369      5370      5371      5369      5370      5372      5371      5370      5372
      5370      5372      5373      5370      5372      5374      5370      5372      5422
      5373      5372      5374      5373      5372      5422      5374      5372      5422
      5363      5375      5376      5363      5375      5377      5363      5375      5378
      5376      5375      5377      5376      5375      5378      5377      5375      5378
      5375      5378      5379      5375      5378      5380      5375      5378      5381
      5379      5378      5380      5379      5378      5381      5380      5378      5381
      5378      5381      5382      5378      5381      5383      5378      5381      5384
      5382      5381      5383      5382      5381      5384      5383      5381      5384
      5381      5384      5385      5381      5384      5386      5381      5384      5387
      5385      5384      5386      5385      5384      5387      5386      5384      5387
      5384      5387      5388      5384      5387      5389      5384      5387      5390
      5388      5387      5389      5388      5387      5390      5389      5387      5390
      5387      5390      5391      5387      5390      5392      5387      5390      5393
      5391      5390      5392      5391      5390      5393      5392      5390      5393
      5390      5393      5394      5390      5393      5395      5394      5393      5395
      5393      5395      5396      5393      5395      5397      5396      5395      5397
      5395      5397      5398      5395      5397      5399      5395      5397      5400
      5398      5397      5399      5398      5397      5400      5399      5397      5400
      5397      5400      5401      5397      5400      5402      5397      5400      5403
      5401      5400      5402      5401      5400      5403      5402      5400      5403
      5400      5403      5404      5400      5403      5405      5400      5403      5406
      5404      5403      5405      5404      5403      5406      5405      5403      5406
      5403      5406      5407      5403      5406      5408      5403      5406      5409
      5407      5406      5408      5407      5406      5409      5408      5406      5409
      5406      5409      5410      5406      5409      5411      5406      5409      5412
      5410      5409      5411      5410      5409      5412      5411      5409      5412
      5409      5412      5413      5409      5412      5414      5409      5412      5415
      5413      5412      5414      5413      5412      5415      5414      5412      5415
      5412      5415      5416      5412      5415      5417      5412      5415      5418
      5416      5415      5417      5416      5415      5418      5417      5415      5418
      5415      5418      5419      5415      5418      5420      5415      5418      5421
      5419      5418      5420      5419      5418      5421      5420      5418      5421
      5372      5422      5423      5372      5422      5424      5372      5422      5425
      5423      5422      5424      5423      5422      5425      5424      5422      5425
      5422      5425      5426      5422      5425      5427      5422      5425      5428
      5426      5425      5427      5426      5425      5428      5427      5425      5428
      5425      5428      5429      5425      5428      5430      5425      5428      5431
      5429      5428      5430      5429      5428      5431      5430      5428      5431
      5428      5431      5432      5428      5431      5433      5428      5431      5434
      5432      5431      5433      5432      5431      5434      5433      5431      5434
      5431      5434      5435      5431      5434      5436      5431      5434      5437
      5435      5434      5436      5435      5434      5437      5436      5434      5437
      5434      5437      5438      5434      5437      5439      5434      5437      5440
      5438      5437      5439      5438      5437      5440      5439      5437      5440
      5437      5440      5441      5437      5440      5442      5441      5440      5442
      5440      5442      5443      5440      5442      5444      5443      5442      5444
      5442      5444      5445      5442      5444      5446      5442      5444      5447
      5445      5444      5446      5445      5444      5447      5446      5444      5447
      5444      5447      5448      5444      5447      5449      5444      5447      5450
      5448      5447      5449      5448      5447      5450      5449      5447      5450
      5447      5450      5451      5447      5450      5452      5447      5450      5453
      5451      5450      5452      5451      5450      5453      5452      5450      5453
      5450      5453      5454      5450      5453      5455      5450      5453      5456
      5454      5453      5455      5454      5453      5456      5455      5453      5456
      5453      5456      5457      5453      5456      5458      5453      5456      5459
      5457      5456      5458      5457      5456      5459      5458      5456      5459
      5456      5459      5460      5456      5459      5461      5456      5459      5462
      5460      5459      5461      5460      5459      5462      5461      5459      5462
      5459      5462      5463      5459      5462      5464      5459      5462      5465
      5463      5462      5464      5463      5462      5465      5464      5462      5465
      5462      5465      5466      5462      5465      5467      5462      5465      5468
      5466      5465      5467      5466      5465      5468      5467      5465      5468
      5470      5469      5473      5470      5469      5477      5470      5469      5481
      5473      5469      5477      5473      5469      5481      5477      5469      5481
      5469      5470      5471      5469      5470      5472      5469      5470      5485
      5471      5470      5472      5471      5470      5485      5472      5470      5485
      5469      5473      5474      5469      5473      5475      5469      5473      5476
      5474      5473      5475      5474      5473      5476      5475      5473      5476
      5469      5477      5478      5469      5477      5479      5469      5477      5480
      5478      5477      5479      5478      5477      5480      5479      5477      5480
      5469      5481      5482      5469      5481      5483      5469      5481      5484
      5482      5481      5483      5482      5481      5484      5483      5481      5484
      5470      5485      5486      5470      5485      5487      5470      5485      5491
      5486      5485      5487      5486      5485      5491      5487      5485      5491
      5489      5488      5490      5489      5488      5491      5489      5488      5492
      5490      5488      5491      5490      5488      5492      5491      5488      5492
      5485      5491      5488      5488      5492      5493      5492      5493      5494
      5492      5493      5495      5492      5493      5496      5494      5493      5495
      5494      5493      5496      5495      5493      5496      5493      5496      5497
      5493      5496      5498      5493      5496      5504      5497      5496      5498
      5497      5496      5504      5498      5496      5504      5496      5498      5499
      5498      5499      5500      5498      5499      5501      5500      5499      5501
      5499      5501      5502      5499      5501      5503      5499      5501      5513
      5502      5501      5503      5502      5501      5513      5503      5501      5513
      5496      5504      5505      5496      5504      5506      5496      5504      5507
      5505      5504      5506      5505      5504      5507      5506      5504      5507
      5504      5507      5508      5507      5508      5509      5507      5508      5510
      5509      5508      5510      5508      5510      5511      5508      5510      5512
      5508      5510      5560      5511      5510      5512      5511      5510      5560
      5512      5510      5560      5501      5513      5514      5501      5513      5515
      5501      5513      5516      5514      5513      5515      5514      5513      5516
      5515      5513      5516      5513      5516      5517      5513      5516      5518
      5513      5516      5519      5517      5516      5518      5517      5516      5519
      5518      5516      5519      5516      5519      5520      5516      5519      5521
      5516      5519      5522      5520      5519      5521      5520      5519      5522
      5521      5519      5522      5519      5522      5523      5519      5522      5524
      5519      5522      5525      5523      5522      5524      5523      5522      5525
      5524      5522      5525      5522      5525      5526      5522      5525      5527
      5522      5525      5528      5526      5525      5527      5526      5525      5528
      5527      5525      5528      5525      5528      5529      5525      5528      5530
      5525      5528      5531      5529      5528      5530      5529      5528      5531
      5530      5528      5531      5528      5531      5532      5528      5531      5533
      5532      5531      5533      5531      5533      5534      5531      5533      5535
      5534      5533      5535      5533      5535      5536      5533      5535      5537
      5533      5535      5538      5536      5535      5537      5536      5535      5538
      5537      5535      5538      5535      5538      5539      5535      5538      5540
      5535      5538      5541      5539      5538      5540      5539      5538      5541
      5540      5538      5541      5538      5541      5542      5538      5541      5543
      5538      5541      5544      5542      5541      5543      5542      5541      5544
      5543      5541      5544      5541      5544      5545      5541      5544      5546
      5541      5544      5547      5545      5544      5546      5545      5544      5547
      5546      5544      5547      5544      5547      5548      5544      5547      5549
      5544      5547      5550      5548      5547      5549      5548      5547      5550
      5549      5547      5550      5547      5550      5551      5547      5550      5552
      5547      5550      5553      5551      5550      5552      5551      5550      5553
      5552      5550      5553      5550      5553      5554      5550      5553      5555
      5550      5553      5556      5554      5553      5555      5554      5553      5556
      5555      5553      5556      5553      5556      5557      5553      5556      5558
      5553      5556      5559      5557      5556      5558      5557      5556      5559
      5558      5556      5559      5510      5560      5561      5510      5560      5562
      5510      5560      5563      5561      5560      5562      5561      5560      5563
      5562      5560      5563      5560      5563      5564      5560      5563      5565
      5560      5563      5566      5564      5563      5565      5564      5563      5566
      5565      5563      5566      5563      5566      5567      5563      5566      5568
      5563      5566      5569      5567      5566      5568      5567      5566      5569
      5568      5566      5569      5566      5569      5570      5566      5569      5571
      5566      5569      5572      5570      5569      5571      5570      5569      5572
      5571      5569      5572      5569      5572      5573      5569      5572      5574
      5569      5572      5575      5573      5572      5574      5573      5572      5575
      5574      5572      5575      5572      5575      5576      5572      5575      5577
      5572      5575      5578      5576      5575      5577      5576      5575      5578
      5577      5575      5578      5575      5578      5579      5575      5578      5580
      5579      5578      5580      5578      5580      5581      5578      5580      5582
      5581      5580      5582      5580      5582      5583      5580      5582      5584
      5580      5582      5585      5583      5582      5584      5583      5582      5585
      5584      5582      5585      5582      5585      5586      5582      5585      5587
      5582      5585      5588      5586      5585      5587      5586      5585      5588
      5587      5585      5588      5585      5588      5589      5585      5588      5590
      5585      5588      5591      5589      5588      5590      5589      5588      5591
      5590      5588      5591      5588      5591      5592      5588      5591      5593
      5588      5591      5594      5592      5591      5593      5592      5591      5594
      5593      5591      5594      5591      5594      5595      5591      5594      5596
      5591      5594      5597      5595      5594      5596      5595      5594      5597
      5596      5594      5597      5594      5597      5598      5594      5597      5599
      5594      5597      5600      5598      5597      5599      5598      5597      5600
      5599      5597      5600      5597      5600      5601      5597      5600      5602
      5597      5600      5603      5601      5600      5602      5601      5600      5603
      5602      5600      5603      5600      5603      5604      5600      5603      5605
      5600      5603      5606      5604      5603      5605      5604      5603      5606
      5605      5603      5606      5608      5607      5611      5608      5607      5615
      5608      5607      5619      5611      5607      5615      5611      5607      5619
      5615      5607      5619      5607      5608      5609      5607      5608      5610
      5607      5608      5623      5609      5608      5610      5609      5608      5623
      5610      5608      5623      5607      5611      5612      5607      5611      5613
      5607      5611      5614      5612      5611      5613      5612      5611      5614
      5613      5611      5614      5607      5615      5616      5607      5615      5617
      5607      5615      5618      5616      5615      5617      5616      5615      5618
      5617      5615      5618      5607      5619      5620      5607      5619      5621
      5607      5619      5622      5620      5619      5621      5620      5619      5622
      5621      5619      5622      5608      5623      5624      5608      5623      5625
      5608      5623      5629      5624      5623      5625      5624      5623      5629
      5625      5623      5629      5627      5626      5628      5627      5626      5629
      5627      5626      5630      5628      5626      5629      5628      5626      5630
      5629      5626      5630      5623      5629      5626      5626      5630      5631
      5630      5631      5632      5630      5631      5633      5630      5631      5634
      5632      5631      5633      5632      5631      5634      5633      5631      5634
      5631      5634      5635      5631      5634      5636      5631      5634      5642
      5635      5634      5636      5635      5634      5642      5636      5634      5642
      5634      5636      5637      5636      5637      5638      5636      5637      5639
      5638      5637      5639      5637      5639      5640      5637      5639      5641
      5637      5639      5651      5640      5639      5641      5640      5639      5651
      5641      5639      5651      5634      5642      5643      5634      5642      5644
      5634      5642      5645      5643      5642      5644      5643      5642      5645
      5644      5642      5645      5642      5645      5646      5645      5646      5647
      5645      5646      5648      5647      5646      5648      5646      5648      5649
      5646      5648      5650      5646      5648      5698      5649      5648      5650
      5649      5648      5698      5650      5648      5698      5639      5651      5652
      5639      5651      5653      5639      5651      5654      5652      5651      5653
      5652      5651      5654      5653      5651      5654      5651      5654      5655
      5651      5654      5656      5651      5654      5657      5655      5654      5656
      5655      5654      5657      5656      5654      5657      5654      5657      5658
      5654      5657      5659      5654      5657      5660      5658      5657      5659
      5658      5657      5660      5659      5657      5660      5657      5660      5661
      5657      5660      5662      5657      5660      5663      5661      5660      5662
      5661      5660      5663      5662      5660      5663      5660      5663      5664
      5660      5663      5665      5660      5663      5666      5664      5663      5665
      5664      5663      5666      5665      5663      5666      5663      5666      5667
      5663      5666      5668      5663      5666      5669      5667      5666      5668
      5667      5666      5669      5668      5666      5669      5666      5669      5670
      5666      5669      5671      5670      5669      5671      5669      5671      5672
      5669      5671      5673      5672      5671      5673      5671      5673      5674
      5671      5673      5675      5671      5673      5676      5674      5673      5675
      5674      5673      5676      5675      5673      5676      5673      5676      5677
      5673      5676      5678      5673      5676      5679      5677      5676      5678
      5677      5676      5679      5678      5676      5679      5676      5679      5680
      5676      5679      5681      5676      5679      5682      5680      5679      5681
      5680      5679      5682      5681      5679      5682      5679      5682      5683
      5679      5682      5684      5679      5682      5685      5683      5682      5684
      5683      5682      5685      5684      5682      5685      5682      5685      5686
      5682      5685      5687      5682      5685      5688      5686      5685      5687
      5686      5685      5688      5687      5685      5688      5685      5688      5689
      5685      5688      5690      5685      5688      5691      5689      5688      5690
      5689      5688      5691      5690      5688      5691      5688      5691      5692
      5688      5691      5693      5688      5691      5694      5692      5691      5693
      5692      5691      5694      5693      5691      5694      5691      5694      5695
      5691      5694      5696      5691      5694      5697      5695      5694      5696
      5695      5694      5697      5696      5694      5697      5648      5698      5699
      5648      5698      5700      5648      5698      5701      5699      5698      5700
      5699      5698      5701      5700      5698      5701      5698      5701      5702
      5698      5701      5703      5698      5701      5704      5702      5701      5703
      5702      5701      5704      5703      5701      5704      5701      5704      5705
      5701      5704      5706      5701      5704      5707      5705      5704      5706
      5705      5704      5707      5706      5704      5707      5704      5707      5708
      5704      5707      5709      5704      5707      5710      5708      5707      5709
      5708      5707      5710      5709      5707      5710      5707      5710      5711
      5707      5710      5712      5707      5710      5713      5711      5710      5712
      5711      5710      5713      5712      5710      5713      5710      5713      5714
      5710      5713      5715      5710      5713      5716      5714      5713      5715
      5714      5713      5716      5715      5713      5716      5713      5716      5717
      5713      5716      5718      5717      5716      5718      5716      5718      5719
      5716      5718      5720      5719      5718      5720      5718      5720      5721
      5718      5720      5722      5718      5720      5723      5721      5720      5722
      5721      5720      5723      5722      5720      5723      5720      5723      5724
      5720      5723      5725      5720      5723      5726      5724      5723      5725
      5724      5723      5726      5725      5723      5726      5723      5726      5727
      5723      5726      5728      5723      5726      5729      5727      5726      5728
      5727      5726      5729      5728      5726      5729      5726      5729      5730
      5726      5729      5731      5726      5729      5732      5730      5729      5731
      5730      5729      5732      5731      5729      5732      5729      5732      5733
      5729      5732      5734      5729      5732      5735      5733      5732      5734
      5733      5732      5735      5734      5732      5735      5732      5735      5736
      5732      5735      5737      5732      5735      5738      5736      5735      5737
      5736      5735      5738      5737      5735      5738      5735      5738      5739
      5735      5738      5740      5735      5738      5741      5739      5738      5740
      5739      5738      5741      5740      5738      5741      5738      5741      5742
      5738      5741      5743      5738      5741      5744      5742      5741      5743
      5742      5741      5744      5743      5741      5744      5746      5745      5749
      5746      5745      5753      5746      5745      5757      5749      5745      5753
      5749      5745      5757      5753      5745      5757      5745      5746      5747
      5745      5746      5748      5745      5746      5761      5747      5746      5748
      5747      5746      5761      5748      5746      5761      5745      5749      5750
      5745      5749      5751      5745      5749      5752      5750      5749      5751
      5750      5749      5752      5751      5749      5752      5745      5753      5754
      5745      5753      5755      5745      5753      5756      5754      5753      5755
      5754      5753      5756      5755      5753      5756      5745      5757      5758
      5745      5757      5759      5745      5757      5760      5758      5757      5759
      5758      5757      5760      5759      5757      5760      5746      5761      5762
      5746      5761      5763      5746      5761      5767      5762      5761      5763
      5762      5761      5767      5763      5761      5767      5765      5764      5766
      5765      5764      5767      5765      5764      5768      5766      5764      5767
      5766      5764      5768      5767      5764      5768      5761      5767      5764
      5764      5768      5769      5768      5769      5770      5768      5769      5771
      5768      5769      5772      5770      5769      5771      5770      5769      5772
      5771      5769      5772      5769      5772      5773      5769      5772      5774
      5769      5772      5780      5773      5772      5774      5773      5772      5780
      5774      5772      5780      5772      5774      5775      5774      5775      5776
      5774      5775      5777      5776      5775      5777      5775      5777      5778
      5775      5777      5779      5775      5777      5789      5778      5777      5779
      5778      5777      5789      5779      5777      5789      5772      5780      5781
      5772      5780      5782      5772      5780      5783      5781      5780      5782
      5781      5780      5783      5782      5780      5783      5780      5783      5784
      5783      5784      5785      5783      5784      5786      5785      5784      5786
      5784      5786      5787      5784      5786      5788      5784      5786      5836
      5787      5786      5788      5787      5786      5836      5788      5786      5836
      5777      5789      5790      5777      5789      5791      5777      5789      5792
      5790      5789      5791      5790      5789      5792      5791      5789      5792
      5789      5792      5793      5789      5792      5794      5789      5792      5795
      5793      5792      5794      5793      5792      5795      5794      5792      5795
      5792      5795      5796      5792      5795      5797      5792      5795      5798
      5796      5795      5797      5796      5795      5798      5797      5795      5798
      5795      5798      5799      5795      5798      5800      5795      5798      5801
      5799      5798      5800      5799      5798      5801      5800      5798      5801
      5798      5801      5802      5798      5801      5803      5798      5801      5804
      5802      5801      5803      5802      5801      5804      5803      5801      5804
      5801      5804      5805      5801      5804      5806      5801      5804      5807
      5805      5804      5806      5805      5804      5807      5806      5804      5807
      5804      5807      5808      5804      5807      5809      5808      5807      5809
      5807      5809      5810      5807      5809      5811      5810      5809      5811
      5809      5811      5812      5809      5811      5813      5809      5811      5814
      5812      5811      5813      5812      5811      5814      5813      5811      5814
      5811      5814      5815      5811      5814      5816      5811      5814      5817
      5815      5814      5816      5815      5814      5817      5816      5814      5817
      5814      5817      5818      5814      5817      5819      5814      5817      5820
      5818      5817      5819      5818      5817      5820      5819      5817      5820
      5817      5820      5821      5817      5820      5822      5817      5820      5823
      5821      5820      5822      5821      5820      5823      5822      5820      5823
      5820      5823      5824      5820      5823      5825      5820      5823      5826
      5824      5823      5825      5824      5823      5826      5825      5823      5826
      5823      5826      5827      5823      5826      5828      5823      5826      5829
      5827      5826      5828      5827      5826      5829      5828      5826      5829
      5826      5829      5830      5826      5829      5831      5826      5829      5832
      5830      5829      5831      5830      5829      5832      5831      5829      5832
      5829      5832      5833      5829      5832      5834      5829      5832      5835
      5833      5832      5834      5833      5832      5835      5834      5832      5835
      5786      5836      5837      5786      5836      5838      5786      5836      5839
      5837      5836      5838      5837      5836      5839      5838      5836      5839
      5836      5839      5840      5836      5839      5841      5836      5839      5842
      5840      5839      5841      5840      5839      5842      5841      5839      5842
      5839      5842      5843      5839      5842      5844      5839      5842      5845
      5843      5842      5844      5843      5842      5845      5844      5842      5845
      5842      5845      5846      5842      5845      5847      5842      5845      5848
      5846      5845      5847      5846      5845      5848      5847      5845      5848
      5845      5848      5849      5845      5848      5850      5845      5848      5851
      5849      5848      5850      5849      5848      5851      5850      5848      5851
      5848      5851      5852      5848      5851      5853      5848      5851      5854
      5852      5851      5853      5852      5851      5854      5853      5851      5854
      5851      5854      5855      5851      5854      5856      5855      5854      5856
      5854      5856      5857      5854      5856      5858      5857      5856      5858
      5856      5858      5859      5856      5858      5860      5856      5858      5861
      5859      5858      5860      5859      5858      5861      5860      5858      5861
      5858      5861      5862      5858      5861      5863      5858      5861      5864
      5862      5861      5863      5862      5861      5864      5863      5861      5864
      5861      5864      5865      5861      5864      5866      5861      5864      5867
      5865      5864      5866      5865      5864      5867      5866      5864      5867
      5864      5867      5868      5864      5867      5869      5864      5867      5870
      5868      5867      5869      5868      5867      5870      5869      5867      5870
      5867      5870      5871      5867      5870      5872      5867      5870      5873
      5871      5870      5872      5871      5870      5873      5872      5870      5873
      5870      5873      5874      5870      5873      5875      5870      5873      5876
      5874      5873      5875      5874      5873      5876      5875      5873      5876
      5873      5876      5877      5873      5876      5878      5873      5876      5879
      5877      5876      5878      5877      5876      5879      5878      5876      5879
      5876      5879      5880      5876      5879      5881      5876      5879      5882
      5880      5879      5881      5880      5879      5882      5881      5879      5882
      5884      5883      5887      5884      5883      5891      5884      5883      5895
      5887      5883      5891      5887      5883      5895      5891      5883      5895
      5883      5884      5885      5883      5884      5886      5883      5884      5899
      5885      5884      5886      5885      5884      5899      5886      5884      5899
      5883      5887      5888      5883      5887      5889      5883      5887      5890
      5888      5887      5889      5888      5887      5890      5889      5887      5890
      5883      5891      5892      5883      5891      5893      5883      5891      5894
      5892      5891      5893      5892      5891      5894      5893      5891      5894
      5883      5895      5896      5883      5895      5897      5883      5895      5898
      5896      5895      5897      5896      5895      5898      5897      5895      5898
      5884      5899      5900      5884      5899      5901      5884      5899      5905
      5900      5899      5901      5900      5899      5905      5901      5899      5905
      5903      5902      5904      5903      5902      5905      5903      5902      5906
      5904      5902      5905      5904      5902      5906      5905      5902      5906
      5899      5905      5902      5902      5906      5907      5906      5907      5908
      5906      5907      5909      5906      5907      5910      5908      5907      5909
      5908      5907      5910      5909      5907      5910      5907      5910      5911
      5907      5910      5912      5907      5910      5918      5911      5910      5912
      5911      5910      5918      5912      5910      5918      5910      5912      5913
      5912      5913      5914      5912      5913      5915      5914      5913      5915
      5913      5915      5916      5913      5915      5917      5913      5915      5927
      5916      5915      5917      5916      5915      5927      5917      5915      5927
      5910      5918      5919      5910      5918      5920      5910      5918      5921
      5919      5918      5920      5919      5918      5921      5920      5918      5921
      5918      5921      5922      5921      5922      5923      5921      5922      5924
      5923      5922      5924      5922      5924      5925      5922      5924      5926
      5922      5924      5974      5925      5924      5926      5925      5924      5974
      5926      5924      5974      5915      5927      5928      5915      5927      5929
      5915      5927      5930      5928      5927      5929      5928      5927      5930
      5929      5927      5930      5927      5930      5931      5927      5930      5932
      5927      5930      5933      5931      5930      5932      5931      5930      5933
      5932      5930      5933      5930      5933      5934      5930      5933      5935
      5930      5933      5936      5934      5933      5935      5934      5933      5936
      5935      5933      5936      5933      5936      5937      5933      5936      5938
      5933      5936      5939      5937      5936      5938      5937      5936      5939
      5938      5936      5939      5936      5939      5940      5936      5939      5941
      5936      5939      5942      5940      5939      5941      5940      5939      5942
      5941      5939      5942      5939      5942      5943      5939      5942      5944
      5939      5942      5945      5943      5942      5944      5943      5942      5945
      5944      5942      5945      5942      5945      5946      5942      5945      5947
      5946      5945      5947      5945      5947      5948      5945      5947      5949
      5948      5947      5949      5947      5949      5950      5947      5949      5951
      5947      5949      5952      5950      5949      5951      5950      5949      5952
      5951      5949      5952      5949      5952      5953      5949      5952      5954
      5949      5952      5955      5953      5952      5954      5953      5952      5955
      5954      5952      5955      5952      5955      5956      5952      5955      5957
      5952      5955      5958      5956      5955      5957      5956      5955      5958
      5957      5955      5958      5955      5958      5959      5955      5958      5960
      5955      5958      5961      5959      5958      5960      5959      5958      5961
      5960      5958      5961      5958      5961      5962      5958      5961      5963
      5958      5961      5964      5962      5961      5963      5962      5961      5964
      5963      5961      5964      5961      5964      5965      5961      5964      5966
      5961      5964      5967      5965      5964      5966      5965      5964      5967
      5966      5964      5967      5964      5967      5968      5964      5967      5969
      5964      5967      5970      5968      5967      5969      5968      5967      5970
      5969      5967      5970      5967      5970      5971      5967      5970      5972
      5967      5970      5973      5971      5970      5972      5971      5970      5973
      5972      5970      5973      5924      5974      5975      5924      5974      5976
      5924      5974      5977      5975      5974      5976      5975      5974      5977
      5976      5974      5977      5974      5977      5978      5974      5977      5979
      5974      5977      5980      5978      5977      5979      5978      5977      5980
      5979      5977      5980      5977      5980      5981      5977      5980      5982
      5977      5980      5983      5981      5980      5982      5981      5980      5983
      5982      5980      5983      5980      5983      5984      5980      5983      5985
      5980      5983      5986      5984      5983      5985      5984      5983      5986
      5985      5983      5986      5983      5986      5987      5983      5986      5988
      5983      5986      5989      5987      5986      5988      5987      5986      5989
      5988      5986      5989      5986      5989      5990      5986      5989      5991
      5986      5989      5992      5990      5989      5991      5990      5989      5992
      5991      5989      5992      5989      5992      5993      5989      5992      5994
      5993      5992      5994      5992      5994      5995      5992      5994      5996
      5995      5994      5996      5994      5996      5997      5994      5996      5998
      5994      5996      5999      5997      5996      5998      5997      5996      5999
      5998      5996      5999      5996      5999      6000      5996      5999      6001
      5996      5999      6002      6000      5999      6001      6000      5999      6002
      6001      5999      6002      5999      6002      6003      5999      6002      6004
      5999      6002      6005      6003      6002      6004      6003      6002      6005
      6004      6002      6005      6002      6005      6006      6002      6005      6007
      6002      6005      6008      6006      6005      6007      6006      6005      6008
      6007      6005      6008      6005      6008      6009      6005      6008      6010
      6005      6008      6011      6009      6008      6010      6009      6008      6011
      6010      6008      6011      6008      6011      6012      6008      6011      6013
      6008      6011      6014      6012      6011      6013      6012      6011      6014
      6013      6011      6014      6011      6014      6015      6011      6014      6016
      6011      6014      6017      6015      6014      6016      6015      6014      6017
      6016      6014      6017      6014      6017      6018      6014      6017      6019
      6014      6017      6020      6018      6017      6019      6018      6017      6020
      6019      6017      6020      6022      6021      6025      6022      6021      6029
      6022      6021      6033      6025      6021      6029      6025      6021      6033
      6029      6021      6033      6021      6022      6023      6021      6022      6024
      6021      6022      6037      6023      6022      6024      6023      6022      6037
      6024      6022      6037      6021      6025      6026      6021      6025      6027
      6021      6025      6028      6026      6025      6027      6026      6025      6028
      6027      6025      6028      6021      6029      6030      6021      6029      6031
      6021      6029      6032      6030      6029      6031      6030      6029      6032
      6031      6029      6032      6021      6033      6034      6021      6033      6035
      6021      6033      6036      6034      6033      6035      6034      6033      6036
      6035      6033      6036      6022      6037      6038      6022      6037      6039
      6022      6037      6043      6038      6037      6039      6038      6037      6043
      6039      6037      6043      6041      6040      6042      6041      6040      6043
      6041      6040      6044      6042      6040      6043      6042      6040      6044
      6043      6040      6044      6037      6043      6040      6040      6044      6045
      6044      6045      6046      6044      6045      6047      6044      6045      6048
      6046      6045      6047      6046      6045      6048      6047      6045      6048
      6045      6048      6049      6045      6048      6050      6045      6048      6056
      6049      6048      6050      6049      6048      6056      6050      6048      6056
      6048      6050      6051      6050      6051      6052      6050      6051      6053
      6052      6051      6053      6051      6053      6054      6051      6053      6055
      6051      6053      6065      6054      6053      6055      6054      6053      6065
      6055      6053      6065      6048      6056      6057      6048      6056      6058
      6048      6056      6059      6057      6056      6058      6057      6056      6059
      6058      6056      6059      6056      6059      6060      6059      6060      6061
      6059      6060      6062      6061      6060      6062      6060      6062      6063
      6060      6062      6064      6060      6062      6112      6063      6062      6064
      6063      6062      6112      6064      6062      6112      6053      6065      6066
      6053      6065      6067      6053      6065      6068      6066      6065      6067
      6066      6065      6068      6067      6065      6068      6065      6068      6069
      6065      6068      6070      6065      6068      6071      6069      6068      6070
      6069      6068      6071      6070      6068      6071      6068      6071      6072
      6068      6071      6073      6068      6071      6074      6072      6071      6073
      6072      6071      6074      6073      6071      6074      6071      6074      6075
      6071      6074      6076      6071      6074      6077      6075      6074      6076
      6075      6074      6077      6076      6074      6077      6074      6077      6078
      6074      6077      6079      6074      6077      6080      6078      6077      6079
      6078      6077      6080      6079      6077      6080      6077      6080      6081
      6077      6080      6082      6077      6080      6083      6081      6080      6082
      6081      6080      6083      6082      6080      6083      6080      6083      6084
      6080      6083      6085      6084      6083      6085      6083      6085      6086
      6083      6085      6087      6086      6085      6087      6085      6087      6088
      6085      6087      6089      6085      6087      6090      6088      6087      6089
      6088      6087      6090      6089      6087      6090      6087      6090      6091
      6087      6090      6092      6087      6090      6093      6091      6090      6092
      6091      6090      6093      6092      6090      6093      6090      6093      6094
      6090      6093      6095      6090      6093      6096      6094      6093      6095
      6094      6093      6096      6095      6093      6096      6093      6096      6097
      6093      6096      6098      6093      6096      6099      6097      6096      6098
      6097      6096      6099      6098      6096      6099      6096      6099      6100
      6096      6099      6101      6096      6099      6102      6100      6099      6101
      6100      6099      6102      6101      6099      6102      6099      6102      6103
      6099      6102      6104      6099      6102      6105      6103      6102      6104
      6103      6102      6105      6104      6102      6105      6102      6105      6106
      6102      6105      6107      6102      6105      6108      6106      6105      6107
      6106      6105      6108      6107      6105      6108      6105      6108      6109
      6105      6108      6110      6105      6108      6111      6109      6108      6110
      6109      6108      6111      6110      6108      6111      6062      6112      6113
      6062      6112      6114      6062      6112      6115      6113      6112      6114
      6113      6112      6115      6114      6112      6115      6112      6115      6116
      6112      6115      6117      6112      6115      6118      6116      6115      6117
      6116      6115      6118      6117      6115      6118      6115      6118      6119
      6115      6118      6120      6115      6118      6121      6119      6118      6120
      6119      6118      6121      6120      6118      6121      6118      6121      6122
      6118      6121      6123      6118      6121      6124      6122      6121      6123
      6122      6121      6124      6123      6121      6124      6121      6124      6125
      6121      6124      6126      6121      6124      6127      6125      6124      6126
      6125      6124      6127      6126      6124      6127      6124      6127      6128
      6124      6127      6129      6124      6127      6130      6128      6127      6129
      6128      6127      6130      6129      6127      6130      6127      6130      6131
      6127      6130      6132      6131      6130      6132      6130      6132      6133
      6130      6132      6134      6133      6132      6134      6132      6134      6135
      6132      6134      6136      6132      6134      6137      6135      6134      6136
      6135      6134      6137      6136      6134      6137      6134      6137      6138
      6134      6137      6139      6134      6137      6140      6138      6137      6139
      6138      6137      6140      6139      6137      6140      6137      6140      6141
      6137      6140      6142      6137      6140      6143      6141      6140      6142
      6141      6140      6143      6142      6140      6143      6140      6143      6144
      6140      6143      6145      6140      6143      6146      6144      6143      6145
      6144      6143      6146      6145      6143      6146      6143      6146      6147
      6143      6146      6148      6143      6146      6149      6147      6146      6148
      6147      6146      6149      6148      6146      6149      6146      6149      6150
      6146      6149      6151      6146      6149      6152      6150      6149      6151
      6150      6149      6152      6151      6149      6152      6149      6152      6153
      6149      6152      6154      6149      6152      6155      6153      6152      6154
      6153      6152      6155      6154      6152      6155      6152      6155      6156
      6152      6155      6157      6152      6155      6158      6156      6155      6157
      6156      6155      6158      6157      6155      6158      6160      6159      6163
      6160      6159      6167      6160      6159      6171      6163      6159      6167
      6163      6159      6171      6167      6159      6171      6159      6160      6161
      6159      6160      6162      6159      6160      6175      6161      6160      6162
      6161      6160      6175      6162      6160      6175      6159      6163      6164
      6159      6163      6165      6159      6163      6166      6164      6163      6165
      6164      6163      6166      6165      6163      6166      6159      6167      6168
      6159      6167      6169      6159      6167      6170      6168      6167      6169
      6168      6167      6170      6169      6167      6170      6159      6171      6172
      6159      6171      6173      6159      6171      6174      6172      6171      6173
      6172      6171      6174      6173      6171      6174      6160      6175      6176
      6160      6175      6177      6160      6175      6181      6176      6175      6177
      6176      6175      6181      6177      6175      6181      6179      6178      6180
      6179      6178      6181      6179      6178      6182      6180      6178      6181
      6180      6178      6182      6181      6178      6182      6175      6181      6178
      6178      6182      6183      6182      6183      6184      6182      6183      6185
      6182      6183      6186      6184      6183      6185      6184      6183      6186
      6185      6183      6186      6183      6186      6187      6183      6186      6188
      6183      6186      6194      6187      6186      6188      6187      6186      6194
      6188      6186      6194      6186      6188      6189      6188      6189      6190
      6188      6189      6191      6190      6189      6191      6189      6191      6192
      6189      6191      6193      6189      6191      6203      6192      6191      6193
      6192      6191      6203      6193      6191      6203      6186      6194      6195
      6186      6194      6196      6186      6194      6197      6195      6194      6196
      6195      6194      6197      6196      6194      6197      6194      6197      6198
      6197      6198      6199      6197      6198      6200      6199      6198      6200
      6198      6200      6201      6198      6200      6202      6198      6200      6250
      6201      6200      6202      6201      6200      6250      6202      6200      6250
      6191      6203      6204      6191      6203      6205      6191      6203      6206
      6204      6203      6205      6204      6203      6206      6205      6203      6206
      6203      6206      6207      6203      6206      6208      6203      6206      6209
      6207      6206      6208      6207      6206      6209      6208      6206      6209
      6206      6209      6210      6206      6209      6211      6206      6209      6212
      6210      6209      6211      6210      6209      6212      6211      6209      6212
      6209      6212      6213      6209      6212      6214      6209      6212      6215
      6213      6212      6214      6213      6212      6215      6214      6212      6215
      6212      6215      6216      6212      6215      6217      6212      6215      6218
      6216      6215      6217      6216      6215      6218      6217      6215      6218
      6215      6218      6219      6215      6218      6220      6215      6218      6221
      6219      6218      6220      6219      6218      6221      6220      6218      6221
      6218      6221      6222      6218      6221      6223      6222      6221      6223
      6221      6223      6224      6221      6223      6225      6224      6223      6225
      6223      6225      6226      6223      6225      6227      6223      6225      6228
      6226      6225      6227      6226      6225      6228      6227      6225      6228
      6225      6228      6229      6225      6228      6230      6225      6228      6231
      6229      6228      6230      6229      6228      6231      6230      6228      6231
      6228      6231      6232      6228      6231      6233      6228      6231      6234
      6232      6231      6233      6232      6231      6234      6233      6231      6234
      6231      6234      6235      6231      6234      6236      6231      6234      6237
      6235      6234      6236      6235      6234      6237      6236      6234      6237
      6234      6237      6238      6234      6237      6239      6234      6237      6240
      6238      6237      6239      6238      6237      6240      6239      6237      6240
      6237      6240      6241      6237      6240      6242      6237      6240      6243
      6241      6240      6242      6241      6240      6243      6242      6240      6243
      6240      6243      6244      6240      6243      6245      6240      6243      6246
      6244      6243      6245      6244      6243      6246      6245      6243      6246
      6243      6246      6247      6243      6246      6248      6243      6246      6249
      6247      6246      6248      6247      6246      6249      6248      6246      6249
      6200      6250      6251      6200      6250      6252      6200      6250      6253
      6251      6250      6252      6251      6250      6253      6252      6250      6253
      6250      6253      6254      6250      6253      6255      6250      6253      6256
      6254      6253      6255      6254      6253      6256      6255      6253      6256
      6253      6256      6257      6253      6256      6258      6253      6256      6259
      6257      6256      6258      6257      6256      6259      6258      6256      6259
      6256      6259      6260      6256      6259      6261      6256      6259      6262
      6260      6259      6261      6260      6259      6262      6261      6259      6262
      6259      6262      6263      6259      6262      6264      6259      6262      6265
      6263      6262      6264      6263      6262      6265      6264      6262      6265
      6262      6265      6266      6262      6265      6267      6262      6265      6268
      6266      6265      6267      6266      6265      6268      6267      6265      6268
      6265      6268      6269      6265      6268      6270      6269      6268      6270
      6268      6270      6271      6268      6270      6272      6271      6270      6272
      6270      6272      6273      6270      6272      6274      6270      6272      6275
      6273      6272      6274      6273      6272      6275      6274      6272      6275
      6272      6275      6276      6272      6275      6277      6272      6275      6278
      6276      6275      6277      6276      6275      6278      6277      6275      6278
      6275      6278      6279      6275      6278      6280      6275      6278      6281
      6279      6278      6280      6279      6278      6281      6280      6278      6281
      6278      6281      6282      6278      6281      6283      6278      6281      6284
      6282      6281      6283      6282      6281      6284      6283      6281      6284
      6281      6284      6285      6281      6284      6286      6281      6284      6287
      6285      6284      6286      6285      6284      6287      6286      6284      6287
      6284      6287      6288      6284      6287      6289      6284      6287      6290
      6288      6287      6289      6288      6287      6290      6289      6287      6290
      6287      6290      6291      6287      6290      6292      6287      6290      6293
      6291      6290      6292      6291      6290      6293      6292      6290      6293
      6290      6293      6294      6290      6293      6295      6290      6293      6296
      6294      6293      6295      6294      6293      6296      6295      6293      6296
      6298      6297      6301      6298      6297      6305      6298      6297      6309
      6301      6297      6305      6301      6297      6309      6305      6297      6309
      6297      6298      6299      6297      6298      6300      6297      6298      6313
      6299      6298      6300      6299      6298      6313      6300      6298      6313
      6297      6301      6302      6297      6301      6303      6297      6301      6304
      6302      6301      6303      6302      6301      6304      6303      6301      6304
      6297      6305      6306      6297      6305      6307      6297      6305      6308
      6306      6305      6307      6306      6305      6308      6307      6305      6308
      6297      6309      6310      6297      6309      6311      6297      6309      6312
      6310      6309      6311      6310      6309      6312      6311      6309      6312
      6298      6313      6314      6298      6313      6315      6298      6313      6319
      6314      6313      6315      6314      6313      6319      6315      6313      6319
      6317      6316      6318      6317      6316      6319      6317      6316      6320
      6318      6316      6319      6318      6316      6320      6319      6316      6320
      6313      6319      6316      6316      6320      6321      6320      6321      6322
      6320      6321      6323      6320      6321      6324      6322      6321      6323
      6322      6321      6324      6323      6321      6324      6321      6324      6325
      6321      6324      6326      6321      6324      6332      6325      6324      6326
      6325      6324      6332      6326      6324      6332      6324      6326      6327
      6326      6327      6328      6326      6327      6329      6328      6327      6329
      6327      6329      6330      6327      6329      6331      6327      6329      6341
      6330      6329      6331      6330      6329      6341      6331      6329      6341
      6324      6332      6333      6324      6332      6334      6324      6332      6335
      6333      6332      6334      6333      6332      6335      6334      6332      6335
      6332      6335      6336      6335      6336      6337      6335      6336      6338
      6337      6336      6338      6336      6338      6339      6336      6338      6340
      6336      6338      6388      6339      6338      6340      6339      6338      6388
      6340      6338      6388      6329      6341      6342      6329      6341      6343
      6329      6341      6344      6342      6341      6343      6342      6341      6344
      6343      6341      6344      6341      6344      6345      6341      6344      6346
      6341      6344      6347      6345      6344      6346      6345      6344      6347
      6346      6344      6347      6344      6347      6348      6344      6347      6349
      6344      6347      6350      6348      6347      6349      6348      6347      6350
      6349      6347      6350      6347      6350      6351      6347      6350      6352
      6347      6350      6353      6351      6350      6352      6351      6350      6353
      6352      6350      6353      6350      6353      6354      6350      6353      6355
      6350      6353      6356      6354      6353      6355      6354      6353      6356
      6355      6353      6356      6353      6356      6357      6353      6356      6358
      6353      6356      6359      6357      6356      6358      6357      6356      6359
      6358      6356      6359      6356      6359      6360      6356      6359      6361
      6360      6359      6361      6359      6361      6362      6359      6361      6363
      6362      6361      6363      6361      6363      6364      6361      6363      6365
      6361      6363      6366      6364      6363      6365      6364      6363      6366
      6365      6363      6366      6363      6366      6367      6363      6366      6368
      6363      6366      6369      6367      6366      6368      6367      6366      6369
      6368      6366      6369      6366      6369      6370      6366      6369      6371
      6366      6369      6372      6370      6369      6371      6370      6369      6372
      6371      6369      6372      6369      6372      6373      6369      6372      6374
      6369      6372      6375      6373      6372      6374      6373      6372      6375
      6374      6372      6375      6372      6375      6376      6372      6375      6377
      6372      6375      6378      6376      6375      6377      6376      6375      6378
      6377      6375      6378      6375      6378      6379      6375      6378      6380
      6375      6378      6381      6379      6378      6380      6379      6378      6381
      6380      6378      6381      6378      6381      6382      6378      6381      6383
      6378      6381      6384      6382      6381      6383      6382      6381      6384
      6383      6381      6384      6381      6384      6385      6381      6384      6386
      6381      6384      6387      6385      6384      6386      6385      6384      6387
      6386      6384      6387      6338      6388      6389      6338      6388      6390
      6338      6388      6391      6389      6388      6390      6389      6388      6391
      6390      6388      6391      6388      6391      6392      6388      6391      6393
      6388      6391      6394      6392      6391      6393      6392      6391      6394
      6393      6391      6394      6391      6394      6395      6391      6394      6396
      6391      6394      6397      6395      6394      6396      6395      6394      6397
      6396      6394      6397      6394      6397      6398      6394      6397      6399
      6394      6397      6400      6398      6397      6399      6398      6397      6400
      6399      6397      6400      6397      6400      6401      6397      6400      6402
      6397      6400      6403      6401      6400      6402      6401      6400      6403
      6402      6400      6403      6400      6403      6404      6400      6403      6405
      6400      6403      6406      6404      6403      6405      6404      6403      6406
      6405      6403      6406      6403      6406      6407      6403      6406      6408
      6407      6406      6408      6406      6408      6409      6406      6408      6410
      6409      6408      6410      6408      6410      6411      6408      6410      6412
      6408      6410      6413      6411      6410      6412      6411      6410      6413
      6412      6410      6413      6410      6413      6414      6410      6413      6415
      6410      6413      6416      6414      6413      6415      6414      6413      6416
      6415      6413      6416      6413      6416      6417      6413      6416      6418
      6413      6416      6419      6417      6416      6418      6417      6416      6419
      6418      6416      6419      6416      6419      6420      6416      6419      6421
      6416      6419      6422      6420      6419      6421      6420      6419      6422
      6421      6419      6422      6419      6422      6423      6419      6422      6424
      6419      6422      6425      6423      6422      6424      6423      6422      6425
      6424      6422      6425      6422      6425      6426      6422      6425      6427
      6422      6425      6428      6426      6425      6427      6426      6425      6428
      6427      6425      6428      6425      6428      6429      6425      6428      6430
      6425      6428      6431      6429      6428      6430      6429      6428      6431
      6430      6428      6431      6428      6431      6432      6428      6431      6433
      6428      6431      6434      6432      6431      6433      6432      6431      6434
      6433      6431      6434      6436      6435      6439      6436      6435      6443
      6436      6435      6447      6439      6435      6443      6439      6435      6447
      6443      6435      6447      6435      6436      6437      6435      6436      6438
      6435      6436      6451      6437      6436      6438      6437      6436      6451
      6438      6436      6451      6435      6439      6440      6435      6439      6441
      6435      6439      6442      6440      6439      6441      6440      6439      6442
      6441      6439      6442      6435      6443      6444      6435      6443      6445
      6435      6443      6446      6444      6443      6445      6444      6443      6446
      6445      6443      6446      6435      6447      6448      6435      6447      6449
      6435      6447      6450      6448      6447      6449      6448      6447      6450
      6449      6447      6450      6436      6451      6452      6436      6451      6453
      6436      6451      6457      6452      6451      6453      6452      6451      6457
      6453      6451      6457      6455      6454      6456      6455      6454      6457
      6455      6454      6458      6456      6454      6457      6456      6454      6458
      6457      6454      6458      6451      6457      6454      6454      6458      6459
      6458      6459      6460      6458      6459      6461      6458      6459      6462
      6460      6459      6461      6460      6459      6462      6461      6459      6462
      6459      6462      6463      6459      6462      6464      6459      6462      6470
      6463      6462      6464      6463      6462      6470      6464      6462      6470
      6462      6464      6465      6464      6465      6466      6464      6465      6467
      6466      6465      6467      6465      6467      6468      6465      6467      6469
      6465      6467      6479      6468      6467      6469      6468      6467      6479
      6469      6467      6479      6462      6470      6471      6462      6470      6472
      6462      6470      6473      6471      6470      6472      6471      6470      6473
      6472      6470      6473      6470      6473      6474      6473      6474      6475
      6473      6474      6476      6475      6474      6476      6474      6476      6477
      6474      6476      6478      6474      6476      6526      6477      6476      6478
      6477      6476      6526      6478      6476      6526      6467      6479      6480
      6467      6479      6481      6467      6479      6482      6480      6479      6481
      6480      6479      6482      6481      6479      6482      6479      6482      6483
      6479      6482      6484      6479      6482      6485      6483      6482      6484
      6483      6482      6485      6484      6482      6485      6482      6485      6486
      6482      6485      6487      6482      6485      6488      6486      6485      6487
      6486      6485      6488      6487      6485      6488      6485      6488      6489
      6485      6488      6490      6485      6488      6491      6489      6488      6490
      6489      6488      6491      6490      6488      6491      6488      6491      6492
      6488      6491      6493      6488      6491      6494      6492      6491      6493
      6492      6491      6494      6493      6491      6494      6491      6494      6495
      6491      6494      6496      6491      6494      6497      6495      6494      6496
      6495      6494      6497      6496      6494      6497      6494      6497      6498
      6494      6497      6499      6498      6497      6499      6497      6499      6500
      6497      6499      6501      6500      6499      6501      6499      6501      6502
      6499      6501      6503      6499      6501      6504      6502      6501      6503
      6502      6501      6504      6503      6501      6504      6501      6504      6505
      6501      6504      6506      6501      6504      6507      6505      6504      6506
      6505      6504      6507      6506      6504      6507      6504      6507      6508
      6504      6507      6509      6504      6507      6510      6508      6507      6509
      6508      6507      6510      6509      6507      6510      6507      6510      6511
      6507      6510      6512      6507      6510      6513      6511      6510      6512
      6511      6510      6513      6512      6510      6513      6510      6513      6514
      6510      6513      6515      6510      6513      6516      6514      6513      6515
      6514      6513      6516      6515      6513      6516      6513      6516      6517
      6513      6516      6518      6513      6516      6519      6517      6516      6518
      6517      6516      6519      6518      6516      6519      6516      6519      6520
      6516      6519      6521      6516      6519      6522      6520      6519      6521
      6520      6519      6522      6521      6519      6522      6519      6522      6523
      6519      6522      6524      6519      6522      6525      6523      6522      6524
      6523      6522      6525      6524      6522      6525      6476      6526      6527
      6476      6526      6528      6476      6526      6529      6527      6526      6528
      6527      6526      6529      6528      6526      6529      6526      6529      6530
      6526      6529      6531      6526      6529      6532      6530      6529      6531
      6530      6529      6532      6531      6529      6532      6529      6532      6533
      6529      6532      6534      6529      6532      6535      6533      6532      6534
      6533      6532      6535      6534      6532      6535      6532      6535      6536
      6532      6535      6537      6532      6535      6538      6536      6535      6537
      6536      6535      6538      6537      6535      6538      6535      6538      6539
      6535      6538      6540      6535      6538      6541      6539      6538      6540
      6539      6538      6541      6540      6538      6541      6538      6541      6542
      6538      6541      6543      6538      6541      6544      6542      6541      6543
      6542      6541      6544      6543      6541      6544      6541      6544      6545
      6541      6544      6546      6545      6544      6546      6544      6546      6547
      6544      6546      6548      6547      6546      6548      6546      6548      6549
      6546      6548      6550      6546      6548      6551      6549      6548      6550
      6549      6548      6551      6550      6548      6551      6548      6551      6552
      6548      6551      6553      6548      6551      6554      6552      6551      6553
      6552      6551      6554      6553      6551      6554      6551      6554      6555
      6551      6554      6556      6551      6554      6557      6555      6554      6556
      6555      6554      6557      6556      6554      6557      6554      6557      6558
      6554      6557      6559      6554      6557      6560      6558      6557      6559
      6558      6557      6560      6559      6557      6560      6557      6560      6561
      6557      6560      6562      6557      6560      6563      6561      6560      6562
      6561      6560      6563      6562      6560      6563      6560      6563      6564
      6560      6563      6565      6560      6563      6566      6564      6563      6565
      6564      6563      6566      6565      6563      6566      6563      6566      6567
      6563      6566      6568      6563      6566      6569      6567      6566      6568
      6567      6566      6569      6568      6566      6569      6566      6569      6570
      6566      6569      6571      6566      6569      6572      6570      6569      6571
      6570      6569      6572      6571      6569      6572      6574      6573      6577
      6574      6573      6581      6574      6573      6585      6577      6573      6581
      6577      6573      6585      6581      6573      6585      6573      6574      6575
      6573      6574      6576      6573      6574      6589      6575      6574      6576
      6575      6574      6589      6576      6574      6589      6573      6577      6578
      6573      6577      6579      6573      6577      6580      6578      6577      6579
      6578      6577      6580      6579      6577      6580      6573      6581      6582
      6573      6581      6583      6573      6581      6584      6582      6581      6583
      6582      6581      6584      6583      6581      6584      6573      6585      6586
      6573      6585      6587      6573      6585      6588      6586      6585      6587
      6586      6585      6588      6587      6585      6588      6574      6589      6590
      6574      6589      6591      6574      6589      6595      6590      6589      6591
      6590      6589      6595      6591      6589      6595      6593      6592      6594
      6593      6592      6595      6593      6592      6596      6594      6592      6595
      6594      6592      6596      6595      6592      6596      6589      6595      6592
      6592      6596      6597      6596      6597      6598      6596      6597      6599
      6596      6597      6600      6598      6597      6599      6598      6597      6600
      6599      6597      6600      6597      6600      6601      6597      6600      6602
      6597      6600      6608      6601      6600      6602      6601      6600      6608
      6602      6600      6608      6600      6602      6603      6602      6603      6604
      6602      6603      6605      6604      6603      6605      6603      6605      6606
      6603      6605      6607      6603      6605      6617      6606      6605      6607
      6606      6605      6617      6607      6605      6617      6600      6608      6609
      6600      6608      6610      6600      6608      6611      6609      6608      6610
      6609      6608      6611      6610      6608      6611      6608      6611      6612
      6611      6612      6613      6611      6612      6614      6613      6612      6614
      6612      6614      6615      6612      6614      6616      6612      6614      6664
      6615      6614      6616      6615      6614      6664      6616      6614      6664
      6605      6617      6618      6605      6617      6619      6605      6617      6620
      6618      6617      6619      6618      6617      6620      6619      6617      6620
      6617      6620      6621      6617      6620      6622      6617      6620      6623
      6621      6620      6622      6621      6620      6623      6622      6620      6623
      6620      6623      6624      6620      6623      6625      6620      6623      6626
      6624      6623      6625      6624      6623      6626      6625      6623      6626
      6623      6626      6627      6623      6626      6628      6623      6626      6629
      6627      6626      6628      6627      6626      6629      6628      6626      6629
      6626      6629      6630      6626      6629      6631      6626      6629      6632
      6630      6629      6631      6630      6629      6632      6631      6629      6632
      6629      6632      6633      6629      6632      6634      6629      6632      6635
      6633      6632      6634      6633      6632      6635      6634      6632      6635
      6632      6635      6636      6632      6635      6637      6636      6635      6637
      6635      6637      6638      6635      6637      6639      6638      6637      6639
      6637      6639      6640      6637      6639      6641      6637      6639      6642
      6640      6639      6641      6640      6639      6642      6641      6639      6642
      6639      6642      6643      6639      6642      6644      6639      6642      6645
      6643      6642      6644      6643      6642      6645      6644      6642      6645
      6642      6645      6646      6642      6645      6647      6642      6645      6648
      6646      6645      6647      6646      6645      6648      6647      6645      6648
      6645      6648      6649      6645      6648      6650      6645      6648      6651
      6649      6648      6650      6649      6648      6651      6650      6648      6651
      6648      6651      6652      6648      6651      6653      6648      6651      6654
      6652      6651      6653      6652      6651      6654      6653      6651      6654
      6651      6654      6655      6651      6654      6656      6651      6654      6657
      6655      6654      6656      6655      6654      6657      6656      6654      6657
      6654      6657      6658      6654      6657      6659      6654      6657      6660
      6658      6657      6659      6658      6657      6660      6659      6657      6660
      6657      6660      6661      6657      6660      6662      6657      6660      6663
      6661      6660      6662      6661      6660      6663      6662      6660      6663
      6614      6664      6665      6614      6664      6666      6614      6664      6667
      6665      6664      6666      6665      6664      6667      6666      6664      6667
      6664      6667      6668      6664      6667      6669      6664      6667      6670
      6668      6667      6669      6668      6667      6670      6669      6667      6670
      6667      6670      6671      6667      6670      6672      6667      6670      6673
      6671      6670      6672      6671      6670      6673      6672      6670      6673
      6670      6673      6674      6670      6673      6675      6670      6673      6676
      6674      6673      6675      6674      6673      6676      6675      6673      6676
      6673      6676      6677      6673      6676      6678      6673      6676      6679
      6677      6676      6678      6677      6676      6679      6678      6676      6679
      6676      6679      6680      6676      6679      6681      6676      6679      6682
      6680      6679      6681      6680      6679      6682      6681      6679      6682
      6679      6682      6683      6679      6682      6684      6683      6682      6684
      6682      6684      6685      6682      6684      6686      6685      6684      6686
      6684      6686      6687      6684      6686      6688      6684      6686      6689
      6687      6686      6688      6687      6686      6689      6688      6686      6689
      6686      6689      6690      6686      6689      6691      6686      6689      6692
      6690      6689      6691      6690      6689      6692      6691      6689      6692
      6689      6692      6693      6689      6692      6694      6689      6692      6695
      6693      6692      6694      6693      6692      6695      6694      6692      6695
      6692      6695      6696      6692      6695      6697      6692      6695      6698
      6696      6695      6697      6696      6695      6698      6697      6695      6698
      6695      6698      6699      6695      6698      6700      6695      6698      6701
      6699      6698      6700      6699      6698      6701      6700      6698      6701
      6698      6701      6702      6698      6701      6703      6698      6701      6704
      6702      6701      6703      6702      6701      6704      6703      6701      6704
      6701      6704      6705      6701      6704      6706      6701      6704      6707
      6705      6704      6706      6705      6704      6707      6706      6704      6707
      6704      6707      6708      6704      6707      6709      6704      6707      6710
      6708      6707      6709      6708      6707      6710      6709      6707      6710
      6712      6711      6715      6712      6711      6719      6712      6711      6723
      6715      6711      6719      6715      6711      6723      6719      6711      6723
      6711      6712      6713      6711      6712      6714      6711      6712      6727
      6713      6712      6714      6713      6712      6727      6714      6712      6727
      6711      6715      6716      6711      6715      6717      6711      6715      6718
      6716      6715      6717      6716      6715      6718      6717      6715      6718
      6711      6719      6720      6711      6719      6721      6711      6719      6722
      6720      6719      6721      6720      6719      6722      6721      6719      6722
      6711      6723      6724      6711      6723      6725      6711      6723      6726
      6724      6723      6725      6724      6723      6726      6725      6723      6726
      6712      6727      6728      6712      6727      6729      6712      6727      6733
      6728      6727      6729      6728      6727      6733      6729      6727      6733
      6731      6730      6732      6731      6730      6733      6731      6730      6734
      6732      6730      6733      6732      6730      6734      6733      6730      6734
      6727      6733      6730      6730      6734      6735      6734      6735      6736
      6734      6735      6737      6734      6735      6738      6736      6735      6737
      6736      6735      6738      6737      6735      6738      6735      6738      6739
      6735      6738      6740      6735      6738      6746      6739      6738      6740
      6739      6738      6746      6740      6738      6746      6738      6740      6741
      6740      6741      6742      6740      6741      6743      6742      6741      6743
      6741      6743      6744      6741      6743      6745      6741      6743      6755
      6744      6743      6745      6744      6743      6755      6745      6743      6755
      6738      6746      6747      6738      6746      6748      6738      6746      6749
      6747      6746      6748      6747      6746      6749      6748      6746      6749
      6746      6749      6750      6749      6750      6751      6749      6750      6752
      6751      6750      6752      6750      6752      6753      6750      6752      6754
      6750      6752      6802      6753      6752      6754      6753      6752      6802
      6754      6752      6802      6743      6755      6756      6743      6755      6757
      6743      6755      6758      6756      6755      6757      6756      6755      6758
      6757      6755      6758      6755      6758      6759      6755      6758      6760
      6755      6758      6761      6759      6758      6760      6759      6758      6761
      6760      6758      6761      6758      6761      6762      6758      6761      6763
      6758      6761      6764      6762      6761      6763      6762      6761      6764
      6763      6761      6764      6761      6764      6765      6761      6764      6766
      6761      6764      6767      6765      6764      6766      6765      6764      6767
      6766      6764      6767      6764      6767      6768      6764      6767      6769
      6764      6767      6770      6768      6767      6769      6768      6767      6770
      6769      6767      6770      6767      6770      6771      6767      6770      6772
      6767      6770      6773      6771      6770      6772      6771      6770      6773
      6772      6770      6773      6770      6773      6774      6770      6773      6775
      6774      6773      6775      6773      6775      6776      6773      6775      6777
      6776      6775      6777      6775      6777      6778      6775      6777      6779
      6775      6777      6780      6778      6777      6779      6778      6777      6780
      6779      6777      6780      6777      6780      6781      6777      6780      6782
      6777      6780      6783      6781      6780      6782      6781      6780      6783
      6782      6780      6783      6780      6783      6784      6780      6783      6785
      6780      6783      6786      6784      6783      6785      6784      6783      6786
      6785      6783      6786      6783      6786      6787      6783      6786      6788
      6783      6786      6789      6787      6786      6788      6787      6786      6789
      6788      6786      6789      6786      6789      6790      6786      6789      6791
      6786      6789      6792      6790      6789      6791      6790      6789      6792
      6791      6789      6792      6789      6792      6793      6789      6792      6794
      6789      6792      6795      6793      6792      6794      6793      6792      6795
      6794      6792      6795      6792      6795      6796      6792      6795      6797
      6792      6795      6798      6796      6795      6797      6796      6795      6798
      6797      6795      6798      6795      6798      6799      6795      6798      6800
      6795      6798      6801      6799      6798      6800      6799      6798      6801
      6800      6798      6801      6752      6802      6803      6752      6802      6804
      6752      6802      6805      6803      6802      6804      6803      6802      6805
      6804      6802      6805      6802      6805      6806      6802      6805      6807
      6802      6805      6808      6806      6805      6807      6806      6805      6808
      6807      6805      6808      6805      6808      6809      6805      6808      6810
      6805      6808      6811      6809      6808      6810      6809      6808      6811
      6810      6808      6811      6808      6811      6812      6808      6811      6813
      6808      6811      6814      6812      6811      6813      6812      6811      6814
      6813      6811      6814      6811      6814      6815      6811      6814      6816
      6811      6814      6817      6815      6814      6816      6815      6814      6817
      6816      6814      6817      6814      6817      6818      6814      6817      6819
      6814      6817      6820      6818      6817      6819      6818      6817      6820
      6819      6817      6820      6817      6820      6821      6817      6820      6822
      6821      6820      6822      6820      6822      6823      6820      6822      6824
      6823      6822      6824      6822      6824      6825      6822      6824      6826
      6822      6824      6827      6825      6824      6826      6825      6824      6827
      6826      6824      6827      6824      6827      6828      6824      6827      6829
      6824      6827      6830      6828      6827      6829      6828      6827      6830
      6829      6827      6830      6827      6830      6831      6827      6830      6832
      6827      6830      6833      6831      6830      6832      6831      6830      6833
      6832      6830      6833      6830      6833      6834      6830      6833      6835
      6830      6833      6836      6834      6833      6835      6834      6833      6836
      6835      6833      6836      6833      6836      6837      6833      6836      6838
      6833      6836      6839      6837      6836      6838      6837      6836      6839
      6838      6836      6839      6836      6839      6840      6836      6839      6841
      6836      6839      6842      6840      6839      6841      6840      6839      6842
      6841      6839      6842      6839      6842      6843      6839      6842      6844
      6839      6842      6845      6843      6842      6844      6843      6842      6845
      6844      6842      6845      6842      6845      6846      6842      6845      6847
      6842      6845      6848      6846      6845      6847      6846      6845      6848
      6847      6845      6848      6850      6849      6853      6850      6849      6857
      6850      6849      6861      6853      6849      6857      6853      6849      6861
      6857      6849      6861      6849      6850      6851      6849      6850      6852
      6849      6850      6865      6851      6850      6852      6851      6850      6865
      6852      6850      6865      6849      6853      6854      6849      6853      6855
      6849      6853      6856      6854      6853      6855      6854      6853      6856
      6855      6853      6856      6849      6857      6858      6849      6857      6859
      6849      6857      6860      6858      6857      6859      6858      6857      6860
      6859      6857      6860      6849      6861      6862      6849      6861      6863
      6849      6861      6864      6862      6861      6863      6862      6861      6864
      6863      6861      6864      6850      6865      6866      6850      6865      6867
      6850      6865      6871      6866      6865      6867      6866      6865      6871
      6867      6865      6871      6869      6868      6870      6869      6868      6871
      6869      6868      6872      6870      6868      6871      6870      6868      6872
      6871      6868      6872      6865      6871      6868      6868      6872      6873
      6872      6873      6874      6872      6873      6875      6872      6873      6876
      6874      6873      6875      6874      6873      6876      6875      6873      6876
      6873      6876      6877      6873      6876      6878      6873      6876      6884
      6877      6876      6878      6877      6876      6884      6878      6876      6884
      6876      6878      6879      6878      6879      6880      6878      6879      6881
      6880      6879      6881      6879      6881      6882      6879      6881      6883
      6879      6881      6893      6882      6881      6883      6882      6881      6893
      6883      6881      6893      6876      6884      6885      6876      6884      6886
      6876      6884      6887      6885      6884      6886      6885      6884      6887
      6886      6884      6887      6884      6887      6888      6887      6888      6889
      6887      6888      6890      6889      6888      6890      6888      6890      6891
      6888      6890      6892      6888      6890      6940      6891      6890      6892
      6891      6890      6940      6892      6890      6940      6881      6893      6894
      6881      6893      6895      6881      6893      6896      6894      6893      6895
      6894      6893      6896      6895      6893      6896      6893      6896      6897
      6893      6896      6898      6893      6896      6899      6897      6896      6898
      6897      6896      6899      6898      6896      6899      6896      6899      6900
      6896      6899      6901      6896      6899      6902      6900      6899      6901
      6900      6899      6902      6901      6899      6902      6899      6902      6903
      6899      6902      6904      6899      6902      6905      6903      6902      6904
      6903      6902      6905      6904      6902      6905      6902      6905      6906
      6902      6905      6907      6902      6905      6908      6906      6905      6907
      6906      6905      6908      6907      6905      6908      6905      6908      6909
      6905      6908      6910      6905      6908      6911      6909      6908      6910
      6909      6908      6911      6910      6908      6911      6908      6911      6912
      6908      6911      6913      6912      6911      6913      6911      6913      6914
      6911      6913      6915      6914      6913      6915      6913      6915      6916
      6913      6915      6917      6913      6915      6918      6916      6915      6917
      6916      6915      6918      6917      6915      6918      6915      6918      6919
      6915      6918      6920      6915      6918      6921      6919      6918      6920
      6919      6918      6921      6920      6918      6921      6918      6921      6922
      6918      6921      6923      6918      6921      6924      6922      6921      6923
      6922      6921      6924      6923      6921      6924      6921      6924      6925
      6921      6924      6926      6921      6924      6927      6925      6924      6926
      6925      6924      6927      6926      6924      6927      6924      6927      6928
      6924      6927      6929      6924      6927      6930      6928      6927      6929
      6928      6927      6930      6929      6927      6930      6927      6930      6931
      6927      6930      6932      6927      6930      6933      6931      6930      6932
      6931      6930      6933      6932      6930      6933      6930      6933      6934
      6930      6933      6935      6930      6933      6936      6934      6933      6935
      6934      6933      6936      6935      6933      6936      6933      6936      6937
      6933      6936      6938      6933      6936      6939      6937      6936      6938
      6937      6936      6939      6938      6936      6939      6890      6940      6941
      6890      6940      6942      6890      6940      6943      6941      6940      6942
      6941      6940      6943      6942      6940      6943      6940      6943      6944
      6940      6943      6945      6940      6943      6946      6944      6943      6945
      6944      6943      6946      6945      6943      6946      6943      6946      6947
      6943      6946      6948      6943      6946      6949      6947      6946      6948
      6947      6946      6949      6948      6946      6949      6946      6949      6950
      6946      6949      6951      6946      6949      6952      6950      6949      6951
      6950      6949      6952      6951      6949      6952      6949      6952      6953
      6949      6952      6954      6949      6952      6955      6953      6952      6954
      6953      6952      6955      6954      6952      6955      6952      6955      6956
      6952      6955      6957      6952      6955      6958      6956      6955      6957
      6956      6955      6958      6957      6955      6958      6955      6958      6959
      6955      6958      6960      6959      6958      6960      6958      6960      6961
      6958      6960      6962      6961      6960      6962      6960      6962      6963
      6960      6962      6964      6960      6962      6965      6963      6962      6964
      6963      6962      6965      6964      6962      6965      6962      6965      6966
      6962      6965      6967      6962      6965      6968      6966      6965      6967
      6966      6965      6968      6967      6965      6968      6965      6968      6969
      6965      6968      6970      6965      6968      6971      6969      6968      6970
      6969      6968      6971      6970      6968      6971      6968      6971      6972
      6968      6971      6973      6968      6971      6974      6972      6971      6973
      6972      6971      6974      6973      6971      6974      6971      6974      6975
      6971      6974      6976      6971      6974      6977      6975      6974      6976
      6975      6974      6977      6976      6974      6977      6974      6977      6978
      6974      6977      6979      6974      6977      6980      6978      6977      6979
      6978      6977      6980      6979      6977      6980      6977      6980      6981
      6977      6980      6982      6977      6980      6983      6981      6980      6982
      6981      6980      6983      6982      6980      6983      6980      6983      6984
      6980      6983      6985      6980      6983      6986      6984      6983      6985
      6984      6983      6986      6985      6983      6986      6988      6987      6991
      6988      6987      6995      6988      6987      6999      6991      6987      6995
      6991      6987      6999      6995      6987      6999      6987      6988      6989
      6987      6988      6990      6987      6988      7003      6989      6988      6990
      6989      6988      7003      6990      6988      7003      6987      6991      6992
      6987      6991      6993      6987      6991      6994      6992      6991      6993
      6992      6991      6994      6993      6991      6994      6987      6995      6996
      6987      6995      6997      6987      6995      6998      6996      6995      6997
      6996      6995      6998      6997      6995      6998      6987      6999      7000
      6987      6999      7001      6987      6999      7002      7000      6999      7001
      7000      6999      7002      7001      6999      7002      6988      7003      7004
      6988      7003      7005      6988      7003      7009      7004      7003      7005
      7004      7003      7009      7005      7003      7009      7007      7006      7008
      7007      7006      7009      7007      7006      7010      7008      7006      7009
      7008      7006      7010      7009      7006      7010      7003      7009      7006
      7006      7010      7011      7010      7011      7012      7010      7011      7013
      7010      7011      7014      7012      7011      7013      7012      7011      7014
      7013      7011      7014      7011      7014      7015      7011      7014      7016
      7011      7014      7022      7015      7014      7016      7015      7014      7022
      7016      7014      7022      7014      7016      7017      7016      7017      7018
      7016      7017      7019      7018      7017      7019      7017      7019      7020
      7017      7019      7021      7017      7019      7031      7020      7019      7021
      7020      7019      7031      7021      7019      7031      7014      7022      7023
      7014      7022      7024      7014      7022      7025      7023      7022      7024
      7023      7022      7025      7024      7022      7025      7022      7025      7026
      7025      7026      7027      7025      7026      7028      7027      7026      7028
      7026      7028      7029      7026      7028      7030      7026      7028      7078
      7029      7028      7030      7029      7028      7078      7030      7028      7078
      7019      7031      7032      7019      7031      7033      7019      7031      7034
      7032      7031      7033      7032      7031      7034      7033      7031      7034
      7031      7034      7035      7031      7034      7036      7031      7034      7037
      7035      7034      7036      7035      7034      7037      7036      7034      7037
      7034      7037      7038      7034      7037      7039      7034      7037      7040
      7038      7037      7039      7038      7037      7040      7039      7037      7040
      7037      7040      7041      7037      7040      7042      7037      7040      7043
      7041      7040      7042      7041      7040      7043      7042      7040      7043
      7040      7043      7044      7040      7043      7045      7040      7043      7046
      7044      7043      7045      7044      7043      7046      7045      7043      7046
      7043      7046      7047      7043      7046      7048      7043      7046      7049
      7047      7046      7048      7047      7046      7049      7048      7046      7049
      7046      7049      7050      7046      7049      7051      7050      7049      7051
      7049      7051      7052      7049      7051      7053      7052      7051      7053
      7051      7053      7054      7051      7053      7055      7051      7053      7056
      7054      7053      7055      7054      7053      7056      7055      7053      7056
      7053      7056      7057      7053      7056      7058      7053      7056      7059
      7057      7056      7058      7057      7056      7059      7058      7056      7059
      7056      7059      7060      7056      7059      7061      7056      7059      7062
      7060      7059      7061      7060      7059      7062      7061      7059      7062
      7059      7062      7063      7059      7062      7064      7059      7062      7065
      7063      7062      7064      7063      7062      7065      7064      7062      7065
      7062      7065      7066      7062      7065      7067      7062      7065      7068
      7066      7065      7067      7066      7065      7068      7067      7065      7068
      7065      7068      7069      7065      7068      7070      7065      7068      7071
      7069      7068      7070      7069      7068      7071      7070      7068      7071
      7068      7071      7072      7068      7071      7073      7068      7071      7074
      7072      7071      7073      7072      7071      7074      7073      7071      7074
      7071      7074      7075      7071      7074      7076      7071      7074      7077
      7075      7074      7076      7075      7074      7077      7076      7074      7077
      7028      7078      7079      7028      7078      7080      7028      7078      7081
      7079      7078      7080      7079      7078      7081      7080      7078      7081
      7078      7081      7082      7078      7081      7083      7078      7081      7084
      7082      7081      7083      7082      7081      7084      7083      7081      7084
      7081      7084      7085      7081      7084      7086      7081      7084      7087
      7085      7084      7086      7085      7084      7087      7086      7084      7087
      7084      7087      7088      7084      7087      7089      7084      7087      7090
      7088      7087      7089      7088      7087      7090      7089      7087      7090
      7087      7090      7091      7087      7090      7092      7087      7090      7093
      7091      7090      7092      7091      7090      7093      7092      7090      7093
      7090      7093      7094      7090      7093      7095      7090      7093      7096
      7094      7093      7095      7094      7093      7096      7095      7093      7096
      7093      7096      7097      7093      7096      7098      7097      7096      7098
      7096      7098      7099      7096      7098      7100      7099      7098      7100
      7098      7100      7101      7098      7100      7102      7098      7100      7103
      7101      7100      7102      7101      7100      7103      7102      7100      7103
      7100      7103      7104      7100      7103      7105      7100      7103      7106
      7104      7103      7105      7104      7103      7106      7105      7103      7106
      7103      7106      7107      7103      7106      7108      7103      7106      7109
      7107      7106      7108      7107      7106      7109      7108      7106      7109
      7106      7109      7110      7106      7109      7111      7106      7109      7112
      7110      7109      7111      7110      7109      7112      7111      7109      7112
      7109      7112      7113      7109      7112      7114      7109      7112      7115
      7113      7112      7114      7113      7112      7115      7114      7112      7115
      7112      7115      7116      7112      7115      7117      7112      7115      7118
      7116      7115      7117      7116      7115      7118      7117      7115      7118
      7115      7118      7119      7115      7118      7120      7115      7118      7121
      7119      7118      7120      7119      7118      7121      7120      7118      7121
      7118      7121      7122      7118      7121      7123      7118      7121      7124
      7122      7121      7123      7122      7121      7124      7123      7121      7124
      7126      7125      7129      7126      7125      7133      7126      7125      7137
      7129      7125      7133      7129      7125      7137      7133      7125      7137
      7125      7126      7127      7125      7126      7128      7125      7126      7141
      7127      7126      7128      7127      7126      7141      7128      7126      7141
      7125      7129      7130      7125      7129      7131      7125      7129      7132
      7130      7129      7131      7130      7129      7132      7131      7129      7132
      7125      7133      7134      7125      7133      7135      7125      7133      7136
      7134      7133      7135      7134      7133      7136      7135      7133      7136
      7125      7137      7138      7125      7137      7139      7125      7137      7140
      7138      7137      7139      7138      7137      7140      7139      7137      7140
      7126      7141      7142      7126      7141      7143      7126      7141      7147
      7142      7141      7143      7142      7141      7147      7143      7141      7147
      7145      7144      7146      7145      7144      7147      7145      7144      7148
      7146      7144      7147      7146      7144      7148      7147      7144      7148
      7141      7147      7144      7144      7148      7149      7148      7149      7150
      7148      7149      7151      7148      7149      7152      7150      7149      7151
      7150      7149      7152      7151      7149      7152      7149      7152      7153
      7149      7152      7154      7149      7152      7160      7153      7152      7154
      7153      7152      7160      7154      7152      7160      7152      7154      7155
      7154      7155      7156      7154      7155      7157      7156      7155      7157
      7155      7157      7158      7155      7157      7159      7155      7157      7169
      7158      7157      7159      7158      7157      7169      7159      7157      7169
      7152      7160      7161      7152      7160      7162      7152      7160      7163
      7161      7160      7162      7161      7160      7163      7162      7160      7163
      7160      7163      7164      7163      7164      7165      7163      7164      7166
      7165      7164      7166      7164      7166      7167      7164      7166      7168
      7164      7166      7216      7167      7166      7168      7167      7166      7216
      7168      7166      7216      7157      7169      7170      7157      7169      7171
      7157      7169      7172      7170      7169      7171      7170      7169      7172
      7171      7169      7172      7169      7172      7173      7169      7172      7174
      7169      7172      7175      7173      7172      7174      7173      7172      7175
      7174      7172      7175      7172      7175      7176      7172      7175      7177
      7172      7175      7178      7176      7175      7177      7176      7175      7178
      7177      7175      7178      7175      7178      7179      7175      7178      7180
      7175      7178      7181      7179      7178      7180      7179      7178      7181
      7180      7178      7181      7178      7181      7182      7178      7181      7183
      7178      7181      7184      7182      7181      7183      7182      7181      7184
      7183      7181      7184      7181      7184      7185      7181      7184      7186
      7181      7184      7187      7185      7184      7186      7185      7184      7187
      7186      7184      7187      7184      7187      7188      7184      7187      7189
      7188      7187      7189      7187      7189      7190      7187      7189      7191
      7190      7189      7191      7189      7191      7192      7189      7191      7193
      7189      7191      7194      7192      7191      7193      7192      7191      7194
      7193      7191      7194      7191      7194      7195      7191      7194      7196
      7191      7194      7197      7195      7194      7196      7195      7194      7197
      7196      7194      7197      7194      7197      7198      7194      7197      7199
      7194      7197      7200      7198      7197      7199      7198      7197      7200
      7199      7197      7200      7197      7200      7201      7197      7200      7202
      7197      7200      7203      7201      7200      7202      7201      7200      7203
      7202      7200      7203      7200      7203      7204      7200      7203      7205
      7200      7203      7206      7204      7203      7205      7204      7203      7206
      7205      7203      7206      7203      7206      7207      7203      7206      7208
      7203      7206      7209      7207      7206      7208      7207      7206      7209
      7208      7206      7209      7206      7209      7210      7206      7209      7211
      7206      7209      7212      7210      7209      7211      7210      7209      7212
      7211      7209      7212      7209      7212      7213      7209      7212      7214
      7209      7212      7215      7213      7212      7214      7213      7212      7215
      7214      7212      7215      7166      7216      7217      7166      7216      7218
      7166      7216      7219      7217      7216      7218      7217      7216      7219
      7218      7216      7219      7216      7219      7220      7216      7219      7221
      7216      7219      7222      7220      7219      7221      7220      7219      7222
      7221      7219      7222      7219      7222      7223      7219      7222      7224
      7219      7222      7225      7223      7222      7224      7223      7222      7225
      7224      7222      7225      7222      7225      7226      7222      7225      7227
      7222      7225      7228      7226      7225      7227      7226      7225      7228
      7227      7225      7228      7225      7228      7229      7225      7228      7230
      7225      7228      7231      7229      7228      7230      7229      7228      7231
      7230      7228      7231      7228      7231      7232      7228      7231      7233
      7228      7231      7234      7232      7231      7233      7232      7231      7234
      7233      7231      7234      7231      7234      7235      7231      7234      7236
      7235      7234      7236      7234      7236      7237      7234      7236      7238
      7237      7236      7238      7236      7238      7239      7236      7238      7240
      7236      7238      7241      7239      7238      7240      7239      7238      7241
      7240      7238      7241      7238      7241      7242      7238      7241      7243
      7238      7241      7244      7242      7241      7243      7242      7241      7244
      7243      7241      7244      7241      7244      7245      7241      7244      7246
      7241      7244      7247      7245      7244      7246      7245      7244      7247
      7246      7244      7247      7244      7247      7248      7244      7247      7249
      7244      7247      7250      7248      7247      7249      7248      7247      7250
      7249      7247      7250      7247      7250      7251      7247      7250      7252
      7247      7250      7253      7251      7250      7252      7251      7250      7253
      7252      7250      7253      7250      7253      7254      7250      7253      7255
      7250      7253      7256      7254      7253      7255      7254      7253      7256
      7255      7253      7256      7253      7256      7257      7253      7256      7258
      7253      7256      7259      7257      7256      7258      7257      7256      7259
      7258      7256      7259      7256      7259      7260      7256      7259      7261
      7256      7259      7262      7260      7259      7261      7260      7259      7262
      7261      7259      7262      7264      7263      7267      7264      7263      7271
      7264      7263      7275      7267      7263      7271      7267      7263      7275
      7271      7263      7275      7263      7264      7265      7263      7264      7266
      7263      7264      7279      7265      7264      7266      7265      7264      7279
      7266      7264      7279      7263      7267      7268      7263      7267      7269
      7263      7267      7270      7268      7267      7269      7268      7267      7270
      7269      7267      7270      7263      7271      7272      7263      7271      7273
      7263      7271      7274      7272      7271      7273      7272      7271      7274
      7273      7271      7274      7263      7275      7276      7263      7275      7277
      7263      7275      7278      7276      7275      7277      7276      7275      7278
      7277      7275      7278      7264      7279      7280      7264      7279      7281
      7264      7279      7285      7280      7279      7281      7280      7279      7285
      7281      7279      7285      7283      7282      7284      7283      7282      7285
      7283      7282      7286      7284      7282      7285      7284      7282      7286
      7285      7282      7286      7279      7285      7282      7282      7286      7287
      7286      7287      7288      7286      7287      7289      7286      7287      7290
      7288      7287      7289      7288      7287      7290      7289      7287      7290
      7287      7290      7291      7287      7290      7292      7287      7290      7298
      7291      7290      7292      7291      7290      7298      7292      7290      7298
      7290      7292      7293      7292      7293      7294      7292      7293      7295
      7294      7293      7295      7293      7295      7296      7293      7295      7297
      7293      7295      7307      7296      7295      7297      7296      7295      7307
      7297      7295      7307      7290      7298      7299      7290      7298      7300
      7290      7298      7301      7299      7298      7300      7299      7298      7301
      7300      7298      7301      7298      7301      7302      7301      7302      7303
      7301      7302      7304      7303      7302      7304      7302      7304      7305
      7302      7304      7306      7302      7304      7354      7305      7304      7306
      7305      7304      7354      7306      7304      7354      7295      7307      7308
      7295      7307      7309      7295      7307      7310      7308      7307      7309
      7308      7307      7310      7309      7307      7310      7307      7310      7311
      7307      7310      7312      7307      7310      7313      7311      7310      7312
      7311      7310      7313      7312      7310      7313      7310      7313      7314
      7310      7313      7315      7310      7313      7316      7314      7313      7315
      7314      7313      7316      7315      7313      7316      7313      7316      7317
      7313      7316      7318      7313      7316      7319      7317      7316      7318
      7317      7316      7319      7318      7316      7319      7316      7319      7320
      7316      7319      7321      7316      7319      7322      7320      7319      7321
      7320      7319      7322      7321      7319      7322      7319      7322      7323
      7319      7322      7324      7319      7322      7325      7323      7322      7324
      7323      7322      7325      7324      7322      7325      7322      7325      7326
      7322      7325      7327      7326      7325      7327      7325      7327      7328
      7325      7327      7329      7328      7327      7329      7327      7329      7330
      7327      7329      7331      7327      7329      7332      7330      7329      7331
      7330      7329      7332      7331      7329      7332      7329      7332      7333
      7329      7332      7334      7329      7332      7335      7333      7332      7334
      7333      7332      7335      7334      7332      7335      7332      7335      7336
      7332      7335      7337      7332      7335      7338      7336      7335      7337
      7336      7335      7338      7337      7335      7338      7335      7338      7339
      7335      7338      7340      7335      7338      7341      7339      7338      7340
      7339      7338      7341      7340      7338      7341      7338      7341      7342
      7338      7341      7343      7338      7341      7344      7342      7341      7343
      7342      7341      7344      7343      7341      7344      7341      7344      7345
      7341      7344      7346      7341      7344      7347      7345      7344      7346
      7345      7344      7347      7346      7344      7347      7344      7347      7348
      7344      7347      7349      7344      7347      7350      7348      7347      7349
      7348      7347      7350      7349      7347      7350      7347      7350      7351
      7347      7350      7352      7347      7350      7353      7351      7350      7352
      7351      7350      7353      7352      7350      7353      7304      7354      7355
      7304      7354      7356      7304      7354      7357      7355      7354      7356
      7355      7354      7357      7356      7354      7357      7354      7357      7358
      7354      7357      7359      7354      7357      7360      7358      7357      7359
      7358      7357      7360      7359      7357      7360      7357      7360      7361
      7357      7360      7362      7357      7360      7363      7361      7360      7362
      7361      7360      7363      7362      7360      7363      7360      7363      7364
      7360      7363      7365      7360      7363      7366      7364      7363      7365
      7364      7363      7366      7365      7363      7366      7363      7366      7367
      7363      7366      7368      7363      7366      7369      7367      7366      7368
      7367      7366      7369      7368      7366      7369      7366      7369      7370
      7366      7369      7371      7366      7369      7372      7370      7369      7371
      7370      7369      7372      7371      7369      7372      7369      7372      7373
      7369      7372      7374      7373      7372      7374      7372      7374      7375
      7372      7374      7376      7375      7374      7376      7374      7376      7377
      7374      7376      7378      7374      7376      7379      7377      7376      7378
      7377      7376      7379      7378      7376      7379      7376      7379      7380
      7376      7379      7381      7376      7379      7382      7380      7379      7381
      7380      7379      7382      7381      7379      7382      7379      7382      7383
      7379      7382      7384      7379      7382      7385      7383      7382      7384
      7383      7382      7385      7384      7382      7385      7382      7385      7386
      7382      7385      7387      7382      7385      7388      7386      7385      7387
      7386      7385      7388      7387      7385      7388      7385      7388      7389
      7385      7388      7390      7385      7388      7391      7389      7388      7390
      7389      7388      7391      7390      7388      7391      7388      7391      7392
      7388      7391      7393      7388      7391      7394      7392      7391      7393
      7392      7391      7394      7393      7391      7394      7391      7394      7395
      7391      7394      7396      7391      7394      7397      7395      7394      7396
      7395      7394      7397      7396      7394      7397      7394      7397      7398
      7394      7397      7399      7394      7397      7400      7398      7397      7399
      7398      7397      7400      7399      7397      7400      7402      7401      7405
      7402      7401      7409      7402      7401      7413      7405      7401      7409
      7405      7401      7413      7409      7401      7413      7401      7402      7403
      7401      7402      7404      7401      7402      7417      7403      7402      7404
      7403      7402      7417      7404      7402      7417      7401      7405      7406
      7401      7405      7407      7401      7405      7408      7406      7405      7407
      7406      7405      7408      7407      7405      7408      7401      7409      7410
      7401      7409      7411      7401      7409      7412      7410      7409      7411
      7410      7409      7412      7411      7409      7412      7401      7413      7414
      7401      7413      7415      7401      7413      7416      7414      7413      7415
      7414      7413      7416      7415      7413      7416      7402      7417      7418
      7402      7417      7419      7402      7417      7423      7418      7417      7419
      7418      7417      7423      7419      7417      7423      7421      7420      7422
      7421      7420      7423      7421      7420      7424      7422      7420      7423
      7422      7420      7424      7423      7420      7424      7417      7423      7420
      7420      7424      7425      7424      7425      7426      7424      7425      7427
      7424      7425      7428      7426      7425      7427      7426      7425      7428
      7427      7425      7428      7425      7428      7429      7425      7428      7430
      7425      7428      7436      7429      7428      7430      7429      7428      7436
      7430      7428      7436      7428      7430      7431      7430      7431      7432
      7430      7431      7433      7432      7431      7433      7431      7433      7434
      7431      7433      7435      7431      7433      7445      7434      7433      7435
      7434      7433      7445      7435      7433      7445      7428      7436      7437
      7428      7436      7438      7428      7436      7439      7437      7436      7438
      7437      7436      7439      7438      7436      7439      7436      7439      7440
      7439      7440      7441      7439      7440      7442      7441      7440      7442
      7440      7442      7443      7440      7442      7444      7440      7442      7492
      7443      7442      7444      7443      7442      7492      7444      7442      7492
      7433      7445      7446      7433      7445      7447      7433      7445      7448
      7446      7445      7447      7446      7445      7448      7447      7445      7448
      7445      7448      7449      7445      7448      7450      7445      7448      7451
      7449      7448      7450      7449      7448      7451      7450      7448      7451
      7448      7451      7452      7448      7451      7453      7448      7451      7454
      7452      7451      7453      7452      7451      7454      7453      7451      7454
      7451      7454      7455      7451      7454      7456      7451      7454      7457
      7455      7454      7456      7455      7454      7457      7456      7454      7457
      7454      7457      7458      7454      7457      7459      7454      7457      7460
      7458      7457      7459      7458      7457      7460      7459      7457      7460
      7457      7460      7461      7457      7460      7462      7457      7460      7463
      7461      7460      7462      7461      7460      7463      7462      7460      7463
      7460      7463      7464      7460      7463      7465      7464      7463      7465
      7463      7465      7466      7463      7465      7467      7466      7465      7467
      7465      7467      7468      7465      7467      7469      7465      7467      7470
      7468      7467      7469      7468      7467      7470      7469      7467      7470
      7467      7470      7471      7467      7470      7472      7467      7470      7473
      7471      7470      7472      7471      7470      7473      7472      7470      7473
      7470      7473      7474      7470      7473      7475      7470      7473      7476
      7474      7473      7475      7474      7473      7476      7475      7473      7476
      7473      7476      7477      7473      7476      7478      7473      7476      7479
      7477      7476      7478      7477      7476      7479      7478      7476      7479
      7476      7479      7480      7476      7479      7481      7476      7479      7482
      7480      7479      7481      7480      7479      7482      7481      7479      7482
      7479      7482      7483      7479      7482      7484      7479      7482      7485
      7483      7482      7484      7483      7482      7485      7484      7482      7485
      7482      7485      7486      7482      7485      7487      7482      7485      7488
      7486      7485      7487      7486      7485      7488      7487      7485      7488
      7485      7488      7489      7485      7488      7490      7485      7488      7491
      7489      7488      7490      7489      7488      7491      7490      7488      7491
      7442      7492      7493      7442      7492      7494      7442      7492      7495
      7493      7492      7494      7493      7492      7495      7494      7492      7495
      7492      7495      7496      7492      7495      7497      7492      7495      7498
      7496      7495      7497      7496      7495      7498      7497      7495      7498
      7495      7498      7499      7495      7498      7500      7495      7498      7501
      7499      7498      7500      7499      7498      7501      7500      7498      7501
      7498      7501      7502      7498      7501      7503      7498      7501      7504
      7502      7501      7503      7502      7501      7504      7503      7501      7504
      7501      7504      7505      7501      7504      7506      7501      7504      7507
      7505      7504      7506      7505      7504      7507      7506      7504      7507
      7504      7507      7508      7504      7507      7509      7504      7507      7510
      7508      7507      7509      7508      7507      7510      7509      7507      7510
      7507      7510      7511      7507      7510      7512      7511      7510      7512
      7510      7512      7513      7510      7512      7514      7513      7512      7514
      7512      7514      7515      7512      7514      7516      7512      7514      7517
      7515      7514      7516      7515      7514      7517      7516      7514      7517
      7514      7517      7518      7514      7517      7519      7514      7517      7520
      7518      7517      7519      7518      7517      7520      7519      7517      7520
      7517      7520      7521      7517      7520      7522      7517      7520      7523
      7521      7520      7522      7521      7520      7523      7522      7520      7523
      7520      7523      7524      7520      7523      7525      7520      7523      7526
      7524      7523      7525      7524      7523      7526      7525      7523      7526
      7523      7526      7527      7523      7526      7528      7523      7526      7529
      7527      7526      7528      7527      7526      7529      7528      7526      7529
      7526      7529      7530      7526      7529      7531      7526      7529      7532
      7530      7529      7531      7530      7529      7532      7531      7529      7532
      7529      7532      7533      7529      7532      7534      7529      7532      7535
      7533      7532      7534      7533      7532      7535      7534      7532      7535
      7532      7535      7536      7532      7535      7537      7532      7535      7538
      7536      7535      7537      7536      7535      7538      7537      7535      7538
      7540      7539      7543      7540      7539      7547      7540      7539      7551
      7543      7539      7547      7543      7539      7551      7547      7539      7551
      7539      7540      7541      7539      7540      7542      7539      7540      7555
      7541      7540      7542      7541      7540      7555      7542      7540      7555
      7539      7543      7544      7539      7543      7545      7539      7543      7546
      7544      7543      7545      7544      7543      7546      7545      7543      7546
      7539      7547      7548      7539      7547      7549      7539      7547      7550
      7548      7547      7549      7548      7547      7550      7549      7547      7550
      7539      7551      7552      7539      7551      7553      7539      7551      7554
      7552      7551      7553      7552      7551      7554      7553      7551      7554
      7540      7555      7556      7540      7555      7557      7540      7555      7561
      7556      7555      7557      7556      7555      7561      7557      7555      7561
      7559      7558      7560      7559      7558      7561      7559      7558      7562
      7560      7558      7561      7560      7558      7562      7561      7558      7562
      7555      7561      7558      7558      7562      7563      7562      7563      7564
      7562      7563      7565      7562      7563      7566      7564      7563      7565
      7564      7563      7566      7565      7563      7566      7563      7566      7567
      7563      7566      7568      7563      7566      7574      7567      7566      7568
      7567      7566      7574      7568      7566      7574      7566      7568      7569
      7568      7569      7570      7568      7569      7571      7570      7569      7571
      7569      7571      7572      7569      7571      7573      7569      7571      7583
      7572      7571      7573      7572      7571      7583      7573      7571      7583
      7566      7574      7575      7566      7574      7576      7566      7574      7577
      7575      7574      7576      7575      7574      7577      7576      7574      7577
      7574      7577      7578      7577      7578      7579      7577      7578      7580
      7579      7578      7580      7578      7580      7581      7578      7580      7582
      7578      7580      7630      7581      7580      7582      7581      7580      7630
      7582      7580      7630      7571      7583      7584      7571      7583      7585
      7571      7583      7586      7584      7583      7585      7584      7583      7586
      7585      7583      7586      7583      7586      7587      7583      7586      7588
      7583      7586      7589      7587      7586      7588      7587      7586      7589
      7588      7586      7589      7586      7589      7590      7586      7589      7591
      7586      7589      7592      7590      7589      7591      7590      7589      7592
      7591      7589      7592      7589      7592      7593      7589      7592      7594
      7589      7592      7595      7593      7592      7594      7593      7592      7595
      7594      7592      7595      7592      7595      7596      7592      7595      7597
      7592      7595      7598      7596      7595      7597      7596      7595      7598
      7597      7595      7598      7595      7598      7599      7595      7598      7600
      7595      7598      7601      7599      7598      7600      7599      7598      7601
      7600      7598      7601      7598      7601      7602      7598      7601      7603
      7602      7601      7603      7601      7603      7604      7601      7603      7605
      7604      7603      7605      7603      7605      7606      7603      7605      7607
      7603      7605      7608      7606      7605      7607      7606      7605      7608
      7607      7605      7608      7605      7608      7609      7605      7608      7610
      7605      7608      7611      7609      7608      7610      7609      7608      7611
      7610      7608      7611      7608      7611      7612      7608      7611      7613
      7608      7611      7614      7612      7611      7613      7612      7611      7614
      7613      7611      7614      7611      7614      7615      7611      7614      7616
      7611      7614      7617      7615      7614      7616      7615      7614      7617
      7616      7614      7617      7614      7617      7618      7614      7617      7619
      7614      7617      7620      7618      7617      7619      7618      7617      7620
      7619      7617      7620      7617      7620      7621      7617      7620      7622
      7617      7620      7623      7621      7620      7622      7621      7620      7623
      7622      7620      7623      7620      7623      7624      7620      7623      7625
      7620      7623      7626      7624      7623      7625      7624      7623      7626
      7625      7623      7626      7623      7626      7627      7623      7626      7628
      7623      7626      7629      7627      7626      7628      7627      7626      7629
      7628      7626      7629      7580      7630      7631      7580      7630      7632
      7580      7630      7633      7631      7630      7632      7631      7630      7633
      7632      7630      7633      7630      7633      7634      7630      7633      7635
      7630      7633      7636      7634      7633      7635      7634      7633      7636
      7635      7633      7636      7633      7636      7637      7633      7636      7638
      7633      7636      7639      7637      7636      7638      7637      7636      7639
      7638      7636      7639      7636      7639      7640      7636      7639      7641
      7636      7639      7642      7640      7639      7641      7640      7639      7642
      7641      7639      7642      7639      7642      7643      7639      7642      7644
      7639      7642      7645      7643      7642      7644      7643      7642      7645
      7644      7642      7645      7642      7645      7646      7642      7645      7647
      7642      7645      7648      7646      7645      7647      7646      7645      7648
      7647      7645      7648      7645      7648      7649      7645      7648      7650
      7649      7648      7650      7648      7650      7651      7648      7650      7652
      7651      7650      7652      7650      7652      7653      7650      7652      7654
      7650      7652      7655      7653      7652      7654      7653      7652      7655
      7654      7652      7655      7652      7655      7656      7652      7655      7657
      7652      7655      7658      7656      7655      7657      7656      7655      7658
      7657      7655      7658      7655      7658      7659      7655      7658      7660
      7655      7658      7661      7659      7658      7660      7659      7658      7661
      7660      7658      7661      7658      7661      7662      7658      7661      7663
      7658      7661      7664      7662      7661      7663      7662      7661      7664
      7663      7661      7664      7661      7664      7665      7661      7664      7666
      7661      7664      7667      7665      7664      7666      7665      7664      7667
      7666      7664      7667      7664      7667      7668      7664      7667      7669
      7664      7667      7670      7668      7667      7669      7668      7667      7670
      7669      7667      7670      7667      7670      7671      7667      7670      7672
      7667      7670      7673      7671      7670      7672      7671      7670      7673
      7672      7670      7673      7670      7673      7674      7670      7673      7675
      7670      7673      7676      7674      7673      7675      7674      7673      7676
      7675      7673      7676      7678      7677      7681      7678      7677      7685
      7678      7677      7689      7681      7677      7685      7681      7677      7689
      7685      7677      7689      7677      7678      7679      7677      7678      7680
      7677      7678      7693      7679      7678      7680      7679      7678      7693
      7680      7678      7693      7677      7681      7682      7677      7681      7683
      7677      7681      7684      7682      7681      7683      7682      7681      7684
      7683      7681      7684      7677      7685      7686      7677      7685      7687
      7677      7685      7688      7686      7685      7687      7686      7685      7688
      7687      7685      7688      7677      7689      7690      7677      7689      7691
      7677      7689      7692      7690      7689      7691      7690      7689      7692
      7691      7689      7692      7678      7693      7694      7678      7693      7695
      7678      7693      7699      7694      7693      7695      7694      7693      7699
      7695      7693      7699      7697      7696      7698      7697      7696      7699
      7697      7696      7700      7698      7696      7699      7698      7696      7700
      7699      7696      7700      7693      7699      7696      7696      7700      7701
      7700      7701      7702      7700      7701      7703      7700      7701      7704
      7702      7701      7703      7702      7701      7704      7703      7701      7704
      7701      7704      7705      7701      7704      7706      7701      7704      7712
      7705      7704      7706      7705      7704      7712      7706      7704      7712
      7704      7706      7707      7706      7707      7708      7706      7707      7709
      7708      7707      7709      7707      7709      7710      7707      7709      7711
      7707      7709      7721      7710      7709      7711      7710      7709      7721
      7711      7709      7721      7704      7712      7713      7704      7712      7714
      7704      7712      7715      7713      7712      7714      7713      7712      7715
      7714      7712      7715      7712      7715      7716      7715      7716      7717
      7715      7716      7718      7717      7716      7718      7716      7718      7719
      7716      7718      7720      7716      7718      7768      7719      7718      7720
      7719      7718      7768      7720      7718      7768      7709      7721      7722
      7709      7721      7723      7709      7721      7724      7722      7721      7723
      7722      7721      7724      7723      7721      7724      7721      7724      7725
      7721      7724      7726      7721      7724      7727      7725      7724      7726
      7725      7724      7727      7726      7724      7727      7724      7727      7728
      7724      7727      7729      7724      7727      7730      7728      7727      7729
      7728      7727      7730      7729      7727      7730      7727      7730      7731
      7727      7730      7732      7727      7730      7733      7731      7730      7732
      7731      7730      7733      7732      7730      7733      7730      7733      7734
      7730      7733      7735      7730      7733      7736      7734      7733      7735
      7734      7733      7736      7735      7733      7736      7733      7736      7737
      7733      7736      7738      7733      7736      7739      7737      7736      7738
      7737      7736      7739      7738      7736      7739      7736      7739      7740
      7736      7739      7741      7740      7739      7741      7739      7741      7742
      7739      7741      7743      7742      7741      7743      7741      7743      7744
      7741      7743      7745      7741      7743      7746      7744      7743      7745
      7744      7743      7746      7745      7743      7746      7743      7746      7747
      7743      7746      7748      7743      7746      7749      7747      7746      7748
      7747      7746      7749      7748      7746      7749      7746      7749      7750
      7746      7749      7751      7746      7749      7752      7750      7749      7751
      7750      7749      7752      7751      7749      7752      7749      7752      7753
      7749      7752      7754      7749      7752      7755      7753      7752      7754
      7753      7752      7755      7754      7752      7755      7752      7755      7756
      7752      7755      7757      7752      7755      7758      7756      7755      7757
      7756      7755      7758      7757      7755      7758      7755      7758      7759
      7755      7758      7760      7755      7758      7761      7759      7758      7760
      7759      7758      7761      7760      7758      7761      7758      7761      7762
      7758      7761      7763      7758      7761      7764      7762      7761      7763
      7762      7761      7764      7763      7761      7764      7761      7764      7765
      7761      7764      7766      7761      7764      7767      7765      7764      7766
      7765      7764      7767      7766      7764      7767      7718      7768      7769
      7718      7768      7770      7718      7768      7771      7769      7768      7770
      7769      7768      7771      7770      7768      7771      7768      7771      7772
      7768      7771      7773      7768      7771      7774      7772      7771      7773
      7772      7771      7774      7773      7771      7774      7771      7774      7775
      7771      7774      7776      7771      7774      7777      7775      7774      7776
      7775      7774      7777      7776      7774      7777      7774      7777      7778
      7774      7777      7779      7774      7777      7780      7778      7777      7779
      7778      7777      7780      7779      7777      7780      7777      7780      7781
      7777      7780      7782      7777      7780      7783      7781      7780      7782
      7781      7780      7783      7782      7780      7783      7780      7783      7784
      7780      7783      7785      7780      7783      7786      7784      7783      7785
      7784      7783      7786      7785      7783      7786      7783      7786      7787
      7783      7786      7788      7787      7786      7788      7786      7788      7789
      7786      7788      7790      7789      7788      7790      7788      7790      7791
      7788      7790      7792      7788      7790      7793      7791      7790      7792
      7791      7790      7793      7792      7790      7793      7790      7793      7794
      7790      7793      7795      7790      7793      7796      7794      7793      7795
      7794      7793      7796      7795      7793      7796      7793      7796      7797
      7793      7796      7798      7793      7796      7799      7797      7796      7798
      7797      7796      7799      7798      7796      7799      7796      7799      7800
      7796      7799      7801      7796      7799      7802      7800      7799      7801
      7800      7799      7802      7801      7799      7802      7799      7802      7803
      7799      7802      7804      7799      7802      7805      7803      7802      7804
      7803      7802      7805      7804      7802      7805      7802      7805      7806
      7802      7805      7807      7802      7805      7808      7806      7805      7807
      7806      7805      7808      7807      7805      7808      7805      7808      7809
      7805      7808      7810      7805      7808      7811      7809      7808      7810
      7809      7808      7811      7810      7808      7811      7808      7811      7812
      7808      7811      7813      7808      7811      7814      7812      7811      7813
      7812      7811      7814      7813      7811      7814      7816      7815      7819
      7816      7815      7823      7816      7815      7827      7819      7815      7823
      7819      7815      7827      7823      7815      7827      7815      7816      7817
      7815      7816      7818      7815      7816      7831      7817      7816      7818
      7817      7816      7831      7818      7816      7831      7815      7819      7820
      7815      7819      7821      7815      7819      7822      7820      7819      7821
      7820      7819      7822      7821      7819      7822      7815      7823      7824
      7815      7823      7825      7815      7823      7826      7824      7823      7825
      7824      7823      7826      7825      7823      7826      7815      7827      7828
      7815      7827      7829      7815      7827      7830      7828      7827      7829
      7828      7827      7830      7829      7827      7830      7816      7831      7832
      7816      7831      7833      7816      7831      7837      7832      7831      7833
      7832      7831      7837      7833      7831      7837      7835      7834      7836
      7835      7834      7837      7835      7834      7838      7836      7834      7837
      7836      7834      7838      7837      7834      7838      7831      7837      7834
      7834      7838      7839      7838      7839      7840      7838      7839      7841
      7838      7839      7842      7840      7839      7841      7840      7839      7842
      7841      7839      7842      7839      7842      7843      7839      7842      7844
      7839      7842      7850      7843      7842      7844      7843      7842      7850
      7844      7842      7850      7842      7844      7845      7844      7845      7846
      7844      7845      7847      7846      7845      7847      7845      7847      7848
      7845      7847      7849      7845      7847      7859      7848      7847      7849
      7848      7847      7859      7849      7847      7859      7842      7850      7851
      7842      7850      7852      7842      7850      7853      7851      7850      7852
      7851      7850      7853      7852      7850      7853      7850      7853      7854
      7853      7854      7855      7853      7854      7856      7855      7854      7856
      7854      7856      7857      7854      7856      7858      7854      7856      7906
      7857      7856      7858      7857      7856      7906      7858      7856      7906
      7847      7859      7860      7847      7859      7861      7847      7859      7862
      7860      7859      7861      7860      7859      7862      7861      7859      7862
      7859      7862      7863      7859      7862      7864      7859      7862      7865
      7863      7862      7864      7863      7862      7865      7864      7862      7865
      7862      7865      7866      7862      7865      7867      7862      7865      7868
      7866      7865      7867      7866      7865      7868      7867      7865      7868
      7865      7868      7869      7865      7868      7870      7865      7868      7871
      7869      7868      7870      7869      7868      7871      7870      7868      7871
      7868      7871      7872      7868      7871      7873      7868      7871      7874
      7872      7871      7873      7872      7871      7874      7873      7871      7874
      7871      7874      7875      7871      7874      7876      7871      7874      7877
      7875      7874      7876      7875      7874      7877      7876      7874      7877
      7874      7877      7878      7874      7877      7879      7878      7877      7879
      7877      7879      7880      7877      7879      7881      7880      7879      7881
      7879      7881      7882      7879      7881      7883      7879      7881      7884
      7882      7881      7883      7882      7881      7884      7883      7881      7884
      7881      7884      7885      7881      7884      7886      7881      7884      7887
      7885      7884      7886      7885      7884      7887      7886      7884      7887
      7884      7887      7888      7884      7887      7889      7884      7887      7890
      7888      7887      7889      7888      7887      7890      7889      7887      7890
      7887      7890      7891      7887      7890      7892      7887      7890      7893
      7891      7890      7892      7891      7890      7893      7892      7890      7893
      7890      7893      7894      7890      7893      7895      7890      7893      7896
      7894      7893      7895      7894      7893      7896      7895      7893      7896
      7893      7896      7897      7893      7896      7898      7893      7896      7899
      7897      7896      7898      7897      7896      7899      7898      7896      7899
      7896      7899      7900      7896      7899      7901      7896      7899      7902
      7900      7899      7901      7900      7899      7902      7901      7899      7902
      7899      7902      7903      7899      7902      7904      7899      7902      7905
      7903      7902      7904      7903      7902      7905      7904      7902      7905
      7856      7906      7907      7856      7906      7908      7856      7906      7909
      7907      7906      7908      7907      7906      7909      7908      7906      7909
      7906      7909      7910      7906      7909      7911      7906      7909      7912
      7910      7909      7911      7910      7909      7912      7911      7909      7912
      7909      7912      7913      7909      7912      7914      7909      7912      7915
      7913      7912      7914      7913      7912      7915      7914      7912      7915
      7912      7915      7916      7912      7915      7917      7912      7915      7918
      7916      7915      7917      7916      7915      7918      7917      7915      7918
      7915      7918      7919      7915      7918      7920      7915      7918      7921
      7919      7918      7920      7919      7918      7921      7920      7918      7921
      7918      7921      7922      7918      7921      7923      7918      7921      7924
      7922      7921      7923      7922      7921      7924      7923      7921      7924
      7921      7924      7925      7921      7924      7926      7925      7924      7926
      7924      7926      7927      7924      7926      7928      7927      7926      7928
      7926      7928      7929      7926      7928      7930      7926      7928      7931
      7929      7928      7930      7929      7928      7931      7930      7928      7931
      7928      7931      7932      7928      7931      7933      7928      7931      7934
      7932      7931      7933      7932      7931      7934      7933      7931      7934
      7931      7934      7935      7931      7934      7936      7931      7934      7937
      7935      7934      7936      7935      7934      7937      7936      7934      7937
      7934      7937      7938      7934      7937      7939      7934      7937      7940
      7938      7937      7939      7938      7937      7940      7939      7937      7940
      7937      7940      7941      7937      7940      7942      7937      7940      7943
      7941      7940      7942      7941      7940      7943      7942      7940      7943
      7940      7943      7944      7940      7943      7945      7940      7943      7946
      7944      7943      7945      7944      7943      7946      7945      7943      7946
      7943      7946      7947      7943      7946      7948      7943      7946      7949
      7947      7946      7948      7947      7946      7949      7948      7946      7949
      7946      7949      7950      7946      7949      7951      7946      7949      7952
      7950      7949      7951      7950      7949      7952      7951      7949      7952
      7954      7953      7957      7954      7953      7961      7954      7953      7965
      7957      7953      7961      7957      7953      7965      7961      7953      7965
      7953      7954      7955      7953      7954      7956      7953      7954      7969
      7955      7954      7956      7955      7954      7969      7956      7954      7969
      7953      7957      7958      7953      7957      7959      7953      7957      7960
      7958      7957      7959      7958      7957      7960      7959      7957      7960
      7953      7961      7962      7953      7961      7963      7953      7961      7964
      7962      7961      7963      7962      7961      7964      7963      7961      7964
      7953      7965      7966      7953      7965      7967      7953      7965      7968
      7966      7965      7967      7966      7965      7968      7967      7965      7968
      7954      7969      7970      7954      7969      7971      7954      7969      7975
      7970      7969      7971      7970      7969      7975      7971      7969      7975
      7973      7972      7974      7973      7972      7975      7973      7972      7976
      7974      7972      7975      7974      7972      7976      7975      7972      7976
      7969      7975      7972      7972      7976      7977      7976      7977      7978
      7976      7977      7979      7976      7977      7980      7978      7977      7979
      7978      7977      7980      7979      7977      7980      7977      7980      7981
      7977      7980      7982      7977      7980      7988      7981      7980      7982
      7981      7980      7988      7982      7980      7988      7980      7982      7983
      7982      7983      7984      7982      7983      7985      7984      7983      7985
      7983      7985      7986      7983      7985      7987      7983      7985      7997
      7986      7985      7987      7986      7985      7997      7987      7985      7997
      7980      7988      7989      7980      7988      7990      7980      7988      7991
      7989      7988      7990      7989      7988      7991      7990      7988      7991
      7988      7991      7992      7991      7992      7993      7991      7992      7994
      7993      7992      7994      7992      7994      7995      7992      7994      7996
      7992      7994      8044      7995      7994      7996      7995      7994      8044
      7996      7994      8044      7985      7997      7998      7985      7997      7999
      7985      7997      8000      7998      7997      7999      7998      7997      8000
      7999      7997      8000      7997      8000      8001      7997      8000      8002
      7997      8000      8003      8001      8000      8002      8001      8000      8003
      8002      8000      8003      8000      8003      8004      8000      8003      8005
      8000      8003      8006      8004      8003      8005      8004      8003      8006
      8005      8003      8006      8003      8006      8007      8003      8006      8008
      8003      8006      8009      8007      8006      8008      8007      8006      8009
      8008      8006      8009      8006      8009      8010      8006      8009      8011
      8006      8009      8012      8010      8009      8011      8010      8009      8012
      8011      8009      8012      8009      8012      8013      8009      8012      8014
      8009      8012      8015      8013      8012      8014      8013      8012      8015
      8014      8012      8015      8012      8015      8016      8012      8015      8017
      8016      8015      8017      8015      8017      8018      8015      8017      8019
      8018      8017      8019      8017      8019      8020      8017      8019      8021
      8017      8019      8022      8020      8019      8021      8020      8019      8022
      8021      8019      8022      8019      8022      8023      8019      8022      8024
      8019      8022      8025      8023      8022      8024      8023      8022      8025
      8024      8022      8025      8022      8025      8026      8022      8025      8027
      8022      8025      8028      8026      8025      8027      8026      8025      8028
      8027      8025      8028      8025      8028      8029      8025      8028      8030
      8025      8028      8031      8029      8028      8030      8029      8028      8031
      8030      8028      8031      8028      8031      8032      8028      8031      8033
      8028      8031      8034      8032      8031      8033      8032      8031      8034
      8033      8031      8034      8031      8034      8035      8031      8034      8036
      8031      8034      8037      8035      8034      8036      8035      8034      8037
      8036      8034      8037      8034      8037      8038      8034      8037      8039
      8034      8037      8040      8038      8037      8039      8038      8037      8040
      8039      8037      8040      8037      8040      8041      8037      8040      8042
      8037      8040      8043      8041      8040      8042      8041      8040      8043
      8042      8040      8043      7994      8044      8045      7994      8044      8046
      7994      8044      8047      8045      8044      8046      8045      8044      8047
      8046      8044      8047      8044      8047      8048      8044      8047      8049
      8044      8047      8050      8048      8047      8049      8048      8047      8050
      8049      8047      8050      8047      8050      8051      8047      8050      8052
      8047      8050      8053      8051      8050      8052      8051      8050      8053
      8052      8050      8053      8050      8053      8054      8050      8053      8055
      8050      8053      8056      8054      8053      8055      8054      8053      8056
      8055      8053      8056      8053      8056      8057      8053      8056      8058
      8053      8056      8059      8057      8056      8058      8057      8056      8059
      8058      8056      8059      8056      8059      8060      8056      8059      8061
      8056      8059      8062      8060      8059      8061      8060      8059      8062
      8061      8059      8062      8059      8062      8063      8059      8062      8064
      8063      8062      8064      8062      8064      8065      8062      8064      8066
      8065      8064      8066      8064      8066      8067      8064      8066      8068
      8064      8066      8069      8067      8066      8068      8067      8066      8069
      8068      8066      8069      8066      8069      8070      8066      8069      8071
      8066      8069      8072      8070      8069      8071      8070      8069      8072
      8071      8069      8072      8069      8072      8073      8069      8072      8074
      8069      8072      8075      8073      8072      8074      8073      8072      8075
      8074      8072      8075      8072      8075      8076      8072      8075      8077
      8072      8075      8078      8076      8075      8077      8076      8075      8078
      8077      8075      8078      8075      8078      8079      8075      8078      8080
      8075      8078      8081      8079      8078      8080      8079      8078      8081
      8080      8078      8081      8078      8081      8082      8078      8081      8083
      8078      8081      8084      8082      8081      8083      8082      8081      8084
      8083      8081      8084      8081      8084      8085      8081      8084      8086
      8081      8084      8087      8085      8084      8086      8085      8084      8087
      8086      8084      8087      8084      8087      8088      8084      8087      8089
      8084      8087      8090      8088      8087      8089      8088      8087      8090
      8089      8087      8090      8092      8091      8095      8092      8091      8099
      8092      8091      8103      8095      8091      8099      8095      8091      8103
      8099      8091      8103      8091      8092      8093      8091      8092      8094
      8091      8092      8107      8093      8092      8094      8093      8092      8107
      8094      8092      8107      8091      8095      8096      8091      8095      8097
      8091      8095      8098      8096      8095      8097      8096      8095      8098
      8097      8095      8098      8091      8099      8100      8091      8099      8101
      8091      8099      8102      8100      8099      8101      8100      8099      8102
      8101      8099      8102      8091      8103      8104      8091      8103      8105
      8091      8103      8106      8104      8103      8105      8104      8103      8106
      8105      8103      8106      8092      8107      8108      8092      8107      8109
      8092      8107      8113      8108      8107      8109      8108      8107      8113
      8109      8107      8113      8111      8110      8112      8111      8110      8113
      8111      8110      8114      8112      8110      8113      8112      8110      8114
      8113      8110      8114      8107      8113      8110      8110      8114      8115
      8114      8115      8116      8114      8115      8117      8114      8115      8118
      8116      8115      8117      8116      8115      8118      8117      8115      8118
      8115      8118      8119      8115      8118      8120      8115      8118      8126
      8119      8118      8120      8119      8118      8126      8120      8118      8126
      8118      8120      8121      8120      8121      8122      8120      8121      8123
      8122      8121      8123      8121      8123      8124      8121      8123      8125
      8121      8123      8135      8124      8123      8125      8124      8123      8135
      8125      8123      8135      8118      8126      8127      8118      8126      8128
      8118      8126      8129      8127      8126      8128      8127      8126      8129
      8128      8126      8129      8126      8129      8130      8129      8130      8131
      8129      8130      8132      8131      8130      8132      8130      8132      8133
      8130      8132      8134      8130      8132      8182      8133      8132      8134
      8133      8132      8182      8134      8132      8182      8123      8135      8136
      8123      8135      8137      8123      8135      8138      8136      8135      8137
      8136      8135      8138      8137      8135      8138      8135      8138      8139
      8135      8138      8140      8135      8138      8141      8139      8138      8140
      8139      8138      8141      8140      8138      8141      8138      8141      8142
      8138      8141      8143      8138      8141      8144      8142      8141      8143
      8142      8141      8144      8143      8141      8144      8141      8144      8145
      8141      8144      8146      8141      8144      8147      8145      8144      8146
      8145      8144      8147      8146      8144      8147      8144      8147      8148
      8144      8147      8149      8144      8147      8150      8148      8147      8149
      8148      8147      8150      8149      8147      8150      8147      8150      8151
      8147      8150      8152      8147      8150      8153      8151      8150      8152
      8151      8150      8153      8152      8150      8153      8150      8153      8154
      8150      8153      8155      8154      8153      8155      8153      8155      8156
      8153      8155      8157      8156      8155      8157      8155      8157      8158
      8155      8157      8159      8155      8157      8160      8158      8157      8159
      8158      8157      8160      8159      8157      8160      8157      8160      8161
      8157      8160      8162      8157      8160      8163      8161      8160      8162
      8161      8160      8163      8162      8160      8163      8160      8163      8164
      8160      8163      8165      8160      8163      8166      8164      8163      8165
      8164      8163      8166      8165      8163      8166      8163      8166      8167
      8163      8166      8168      8163      8166      8169      8167      8166      8168
      8167      8166      8169      8168      8166      8169      8166      8169      8170
      8166      8169      8171      8166      8169      8172      8170      8169      8171
      8170      8169      8172      8171      8169      8172      8169      8172      8173
      8169      8172      8174      8169      8172      8175      8173      8172      8174
      8173      8172      8175      8174      8172      8175      8172      8175      8176
      8172      8175      8177      8172      8175      8178      8176      8175      8177
      8176      8175      8178      8177      8175      8178      8175      8178      8179
      8175      8178      8180      8175      8178      8181      8179      8178      8180
      8179      8178      8181      8180      8178      8181      8132      8182      8183
      8132      8182      8184      8132      8182      8185      8183      8182      8184
      8183      8182      8185      8184      8182      8185      8182      8185      8186
      8182      8185      8187      8182      8185      8188      8186      8185      8187
      8186      8185      8188      8187      8185      8188      8185      8188      8189
      8185      8188      8190      8185      8188      8191      8189      8188      8190
      8189      8188      8191      8190      8188      8191      8188      8191      8192
      8188      8191      8193      8188      8191      8194      8192      8191      8193
      8192      8191      8194      8193      8191      8194      8191      8194      8195
      8191      8194      8196      8191      8194      8197      8195      8194      8196
      8195      8194      8197      8196      8194      8197      8194      8197      8198
      8194      8197      8199      8194      8197      8200      8198      8197      8199
      8198      8197      8200      8199      8197      8200      8197      8200      8201
      8197      8200      8202      8201      8200      8202      8200      8202      8203
      8200      8202      8204      8203      8202      8204      8202      8204      8205
      8202      8204      8206      8202      8204      8207      8205      8204      8206
      8205      8204      8207      8206      8204      8207      8204      8207      8208
      8204      8207      8209      8204      8207      8210      8208      8207      8209
      8208      8207      8210      8209      8207      8210      8207      8210      8211
      8207      8210      8212      8207      8210      8213      8211      8210      8212
      8211      8210      8213      8212      8210      8213      8210      8213      8214
      8210      8213      8215      8210      8213      8216      8214      8213      8215
      8214      8213      8216      8215      8213      8216      8213      8216      8217
      8213      8216      8218      8213      8216      8219      8217      8216      8218
      8217      8216      8219      8218      8216      8219      8216      8219      8220
      8216      8219      8221      8216      8219      8222      8220      8219      8221
      8220      8219      8222      8221      8219      8222      8219      8222      8223
      8219      8222      8224      8219      8222      8225      8223      8222      8224
      8223      8222      8225      8224      8222      8225      8222      8225      8226
      8222      8225      8227      8222      8225      8228      8226      8225      8227
      8226      8225      8228      8227      8225      8228      8230      8229      8233
      8230      8229      8237      8230      8229      8241      8233      8229      8237
      8233      8229      8241      8237      8229      8241      8229      8230      8231
      8229      8230      8232      8229      8230      8245      8231      8230      8232
      8231      8230      8245      8232      8230      8245      8229      8233      8234
      8229      8233      8235      8229      8233      8236      8234      8233      8235
      8234      8233      8236      8235      8233      8236      8229      8237      8238
      8229      8237      8239      8229      8237      8240      8238      8237      8239
      8238      8237      8240      8239      8237      8240      8229      8241      8242
      8229      8241      8243      8229      8241      8244      8242      8241      8243
      8242      8241      8244      8243      8241      8244      8230      8245      8246
      8230      8245      8247      8230      8245      8251      8246      8245      8247
      8246      8245      8251      8247      8245      8251      8249      8248      8250
      8249      8248      8251      8249      8248      8252      8250      8248      8251
      8250      8248      8252      8251      8248      8252      8245      8251      8248
      8248      8252      8253      8252      8253      8254      8252      8253      8255
      8252      8253      8256      8254      8253      8255      8254      8253      8256
      8255      8253      8256      8253      8256      8257      8253      8256      8258
      8253      8256      8264      8257      8256      8258      8257      8256      8264
      8258      8256      8264      8256      8258      8259      8258      8259      8260
      8258      8259      8261      8260      8259      8261      8259      8261      8262
      8259      8261      8263      8259      8261      8273      8262      8261      8263
      8262      8261      8273      8263      8261      8273      8256      8264      8265
      8256      8264      8266      8256      8264      8267      8265      8264      8266
      8265      8264      8267      8266      8264      8267      8264      8267      8268
      8267      8268      8269      8267      8268      8270      8269      8268      8270
      8268      8270      8271      8268      8270      8272      8268      8270      8320
      8271      8270      8272      8271      8270      8320      8272      8270      8320
      8261      8273      8274      8261      8273      8275      8261      8273      8276
      8274      8273      8275      8274      8273      8276      8275      8273      8276
      8273      8276      8277      8273      8276      8278      8273      8276      8279
      8277      8276      8278      8277      8276      8279      8278      8276      8279
      8276      8279      8280      8276      8279      8281      8276      8279      8282
      8280      8279      8281      8280      8279      8282      8281      8279      8282
      8279      8282      8283      8279      8282      8284      8279      8282      8285
      8283      8282      8284      8283      8282      8285      8284      8282      8285
      8282      8285      8286      8282      8285      8287      8282      8285      8288
      8286      8285      8287      8286      8285      8288      8287      8285      8288
      8285      8288      8289      8285      8288      8290      8285      8288      8291
      8289      8288      8290      8289      8288      8291      8290      8288      8291
      8288      8291      8292      8288      8291      8293      8292      8291      8293
      8291      8293      8294      8291      8293      8295      8294      8293      8295
      8293      8295      8296      8293      8295      8297      8293      8295      8298
      8296      8295      8297      8296      8295      8298      8297      8295      8298
      8295      8298      8299      8295      8298      8300      8295      8298      8301
      8299      8298      8300      8299      8298      8301      8300      8298      8301
      8298      8301      8302      8298      8301      8303      8298      8301      8304
      8302      8301      8303      8302      8301      8304      8303      8301      8304
      8301      8304      8305      8301      8304      8306      8301      8304      8307
      8305      8304      8306      8305      8304      8307      8306      8304      8307
      8304      8307      8308      8304      8307      8309      8304      8307      8310
      8308      8307      8309      8308      8307      8310      8309      8307      8310
      8307      8310      8311      8307      8310      8312      8307      8310      8313
      8311      8310      8312      8311      8310      8313      8312      8310      8313
      8310      8313      8314      8310      8313      8315      8310      8313      8316
      8314      8313      8315      8314      8313      8316      8315      8313      8316
      8313      8316      8317      8313      8316      8318      8313      8316      8319
      8317      8316      8318      8317      8316      8319      8318      8316      8319
      8270      8320      8321      8270      8320      8322      8270      8320      8323
      8321      8320      8322      8321      8320      8323      8322      8320      8323
      8320      8323      8324      8320      8323      8325      8320      8323      8326
      8324      8323      8325      8324      8323      8326      8325      8323      8326
      8323      8326      8327      8323      8326      8328      8323      8326      8329
      8327      8326      8328      8327      8326      8329      8328      8326      8329
      8326      8329      8330      8326      8329      8331      8326      8329      8332
      8330      8329      8331      8330      8329      8332      8331      8329      8332
      8329      8332      8333      8329      8332      8334      8329      8332      8335
      8333      8332      8334      8333      8332      8335      8334      8332      8335
      8332      8335      8336      8332      8335      8337      8332      8335      8338
      8336      8335      8337      8336      8335      8338      8337      8335      8338
      8335      8338      8339      8335      8338      8340      8339      8338      8340
      8338      8340      8341      8338      8340      8342      8341      8340      8342
      8340      8342      8343      8340      8342      8344      8340      8342      8345
      8343      8342      8344      8343      8342      8345      8344      8342      8345
      8342      8345      8346      8342      8345      8347      8342      8345      8348
      8346      8345      8347      8346      8345      8348      8347      8345      8348
      8345      8348      8349      8345      8348      8350      8345      8348      8351
      8349      8348      8350      8349      8348      8351      8350      8348      8351
      8348      8351      8352      8348      8351      8353      8348      8351      8354
      8352      8351      8353      8352      8351      8354      8353      8351      8354
      8351      8354      8355      8351      8354      8356      8351      8354      8357
      8355      8354      8356      8355      8354      8357      8356      8354      8357
      8354      8357      8358      8354      8357      8359      8354      8357      8360
      8358      8357      8359      8358      8357      8360      8359      8357      8360
      8357      8360      8361      8357      8360      8362      8357      8360      8363
      8361      8360      8362      8361      8360      8363      8362      8360      8363
      8360      8363      8364      8360      8363      8365      8360      8363      8366
      8364      8363      8365      8364      8363      8366      8365      8363      8366
      8368      8367      8371      8368      8367      8375      8368      8367      8379
      8371      8367      8375      8371      8367      8379      8375      8367      8379
      8367      8368      8369      8367      8368      8370      8367      8368      8383
      8369      8368      8370      8369      8368      8383      8370      8368      8383
      8367      8371      8372      8367      8371      8373      8367      8371      8374
      8372      8371      8373      8372      8371      8374      8373      8371      8374
      8367      8375      8376      8367      8375      8377      8367      8375      8378
      8376      8375      8377      8376      8375      8378      8377      8375      8378
      8367      8379      8380      8367      8379      8381      8367      8379      8382
      8380      8379      8381      8380      8379      8382      8381      8379      8382
      8368      8383      8384      8368      8383      8385      8368      8383      8389
      8384      8383      8385      8384      8383      8389      8385      8383      8389
      8387      8386      8388      8387      8386      8389      8387      8386      8390
      8388      8386      8389      8388      8386      8390      8389      8386      8390
      8383      8389      8386      8386      8390      8391      8390      8391      8392
      8390      8391      8393      8390      8391      8394      8392      8391      8393
      8392      8391      8394      8393      8391      8394      8391      8394      8395
      8391      8394      8396      8391      8394      8402      8395      8394      8396
      8395      8394      8402      8396      8394      8402      8394      8396      8397
      8396      8397      8398      8396      8397      8399      8398      8397      8399
      8397      8399      8400      8397      8399      8401      8397      8399      8411
      8400      8399      8401      8400      8399      8411      8401      8399      8411
      8394      8402      8403      8394      8402      8404      8394      8402      8405
      8403      8402      8404      8403      8402      8405      8404      8402      8405
      8402      8405      8406      8405      8406      8407      8405      8406      8408
      8407      8406      8408      8406      8408      8409      8406      8408      8410
      8406      8408      8458      8409      8408      8410      8409      8408      8458
      8410      8408      8458      8399      8411      8412      8399      8411      8413
      8399      8411      8414      8412      8411      8413      8412      8411      8414
      8413      8411      8414      8411      8414      8415      8411      8414      8416
      8411      8414      8417      8415      8414      8416      8415      8414      8417
      8416      8414      8417      8414      8417      8418      8414      8417      8419
      8414      8417      8420      8418      8417      8419      8418      8417      8420
      8419      8417      8420      8417      8420      8421      8417      8420      8422
      8417      8420      8423      8421      8420      8422      8421      8420      8423
      8422      8420      8423      8420      8423      8424      8420      8423      8425
      8420      8423      8426      8424      8423      8425      8424      8423      8426
      8425      8423      8426      8423      8426      8427      8423      8426      8428
      8423      8426      8429      8427      8426      8428      8427      8426      8429
      8428      8426      8429      8426      8429      8430      8426      8429      8431
      8430      8429      8431      8429      8431      8432      8429      8431      8433
      8432      8431      8433      8431      8433      8434      8431      8433      8435
      8431      8433      8436      8434      8433      8435      8434      8433      8436
      8435      8433      8436      8433      8436      8437      8433      8436      8438
      8433      8436      8439      8437      8436      8438      8437      8436      8439
      8438      8436      8439      8436      8439      8440      8436      8439      8441
      8436      8439      8442      8440      8439      8441      8440      8439      8442
      8441      8439      8442      8439      8442      8443      8439      8442      8444
      8439      8442      8445      8443      8442      8444      8443      8442      8445
      8444      8442      8445      8442      8445      8446      8442      8445      8447
      8442      8445      8448      8446      8445      8447      8446      8445      8448
      8447      8445      8448      8445      8448      8449      8445      8448      8450
      8445      8448      8451      8449      8448      8450      8449      8448      8451
      8450      8448      8451      8448      8451      8452      8448      8451      8453
      8448      8451      8454      8452      8451      8453      8452      8451      8454
      8453      8451      8454      8451      8454      8455      8451      8454      8456
      8451      8454      8457      8455      8454      8456      8455      8454      8457
      8456      8454      8457      8408      8458      8459      8408      8458      8460
      8408      8458      8461      8459      8458      8460      8459      8458      8461
      8460      8458      8461      8458      8461      8462      8458      8461      8463
      8458      8461      8464      8462      8461      8463      8462      8461      8464
      8463      8461      8464      8461      8464      8465      8461      8464      8466
      8461      8464      8467      8465      8464      8466      8465      8464      8467
      8466      8464      8467      8464      8467      8468      8464      8467      8469
      8464      8467      8470      8468      8467      8469      8468      8467      8470
      8469      8467      8470      8467      8470      8471      8467      8470      8472
      8467      8470      8473      8471      8470      8472      8471      8470      8473
      8472      8470      8473      8470      8473      8474      8470      8473      8475
      8470      8473      8476      8474      8473      8475      8474      8473      8476
      8475      8473      8476      8473      8476      8477      8473      8476      8478
      8477      8476      8478      8476      8478      8479      8476      8478      8480
      8479      8478      8480      8478      8480      8481      8478      8480      8482
      8478      8480      8483      8481      8480      8482      8481      8480      8483
      8482      8480      8483      8480      8483      8484      8480      8483      8485
      8480      8483      8486      8484      8483      8485      8484      8483      8486
      8485      8483      8486      8483      8486      8487      8483      8486      8488
      8483      8486      8489      8487      8486      8488      8487      8486      8489
      8488      8486      8489      8486      8489      8490      8486      8489      8491
      8486      8489      8492      8490      8489      8491      8490      8489      8492
      8491      8489      8492      8489      8492      8493      8489      8492      8494
      8489      8492      8495      8493      8492      8494      8493      8492      8495
      8494      8492      8495      8492      8495      8496      8492      8495      8497
      8492      8495      8498      8496      8495      8497      8496      8495      8498
      8497      8495      8498      8495      8498      8499      8495      8498      8500
      8495      8498      8501      8499      8498      8500      8499      8498      8501
      8500      8498      8501      8498      8501      8502      8498      8501      8503
      8498      8501      8504      8502      8501      8503      8502      8501      8504
      8503      8501      8504      8506      8505      8509      8506      8505      8513
      8506      8505      8517      8509      8505      8513      8509      8505      8517
      8513      8505      8517      8505      8506      8507      8505      8506      8508
      8505      8506      8521      8507      8506      8508      8507      8506      8521
      8508      8506      8521      8505      8509      8510      8505      8509      8511
      8505      8509      8512      8510      8509      8511      8510      8509      8512
      8511      8509      8512      8505      8513      8514      8505      8513      8515
      8505      8513      8516      8514      8513      8515      8514      8513      8516
      8515      8513      8516      8505      8517      8518      8505      8517      8519
      8505      8517      8520      8518      8517      8519      8518      8517      8520
      8519      8517      8520      8506      8521      8522      8506      8521      8523
      8506      8521      8527      8522      8521      8523      8522      8521      8527
      8523      8521      8527      8525      8524      8526      8525      8524      8527
      8525      8524      8528      8526      8524      8527      8526      8524      8528
      8527      8524      8528      8521      8527      8524      8524      8528      8529
      8528      8529      8530      8528      8529      8531      8528      8529      8532
      8530      8529      8531      8530      8529      8532      8531      8529      8532
      8529      8532      8533      8529      8532      8534      8529      8532      8540
      8533      8532      8534      8533      8532      8540      8534      8532      8540
      8532      8534      8535      8534      8535      8536      8534      8535      8537
      8536      8535      8537      8535      8537      8538      8535      8537      8539
      8535      8537      8549      8538      8537      8539      8538      8537      8549
      8539      8537      8549      8532      8540      8541      8532      8540      8542
      8532      8540      8543      8541      8540      8542      8541      8540      8543
      8542      8540      8543      8540      8543      8544      8543      8544      8545
      8543      8544      8546      8545      8544      8546      8544      8546      8547
      8544      8546      8548      8544      8546      8596      8547      8546      8548
      8547      8546      8596      8548      8546      8596      8537      8549      8550
      8537      8549      8551      8537      8549      8552      8550      8549      8551
      8550      8549      8552      8551      8549      8552      8549      8552      8553
      8549      8552      8554      8549      8552      8555      8553      8552      8554
      8553      8552      8555      8554      8552      8555      8552      8555      8556
      8552      8555      8557      8552      8555      8558      8556      8555      8557
      8556      8555      8558      8557      8555      8558      8555      8558      8559
      8555      8558      8560      8555      8558      8561      8559      8558      8560
      8559      8558      8561      8560      8558      8561      8558      8561      8562
      8558      8561      8563      8558      8561      8564      8562      8561      8563
      8562      8561      8564      8563      8561      8564      8561      8564      8565
      8561      8564      8566      8561      8564      8567      8565      8564      8566
      8565      8564      8567      8566      8564      8567      8564      8567      8568
      8564      8567      8569      8568      8567      8569      8567      8569      8570
      8567      8569      8571      8570      8569      8571      8569      8571      8572
      8569      8571      8573      8569      8571      8574      8572      8571      8573
      8572      8571      8574      8573      8571      8574      8571      8574      8575
      8571      8574      8576      8571      8574      8577      8575      8574      8576
      8575      8574      8577      8576      8574      8577      8574      8577      8578
      8574      8577      8579      8574      8577      8580      8578      8577      8579
      8578      8577      8580      8579      8577      8580      8577      8580      8581
      8577      8580      8582      8577      8580      8583      8581      8580      8582
      8581      8580      8583      8582      8580      8583      8580      8583      8584
      8580      8583      8585      8580      8583      8586      8584      8583      8585
      8584      8583      8586      8585      8583      8586      8583      8586      8587
      8583      8586      8588      8583      8586      8589      8587      8586      8588
      8587      8586      8589      8588      8586      8589      8586      8589      8590
      8586      8589      8591      8586      8589      8592      8590      8589      8591
      8590      8589      8592      8591      8589      8592      8589      8592      8593
      8589      8592      8594      8589      8592      8595      8593      8592      8594
      8593      8592      8595      8594      8592      8595      8546      8596      8597
      8546      8596      8598      8546      8596      8599      8597      8596      8598
      8597      8596      8599      8598      8596      8599      8596      8599      8600
      8596      8599      8601      8596      8599      8602      8600      8599      8601
      8600      8599      8602      8601      8599      8602      8599      8602      8603
      8599      8602      8604      8599      8602      8605      8603      8602      8604
      8603      8602      8605      8604      8602      8605      8602      8605      8606
      8602      8605      8607      8602      8605      8608      8606      8605      8607
      8606      8605      8608      8607      8605      8608      8605      8608      8609
      8605      8608      8610      8605      8608      8611      8609      8608      8610
      8609      8608      8611      8610      8608      8611      8608      8611      8612
      8608      8611      8613      8608      8611      8614      8612      8611      8613
      8612      8611      8614      8613      8611      8614      8611      8614      8615
      8611      8614      8616      8615      8614      8616      8614      8616      8617
      8614      8616      8618      8617      8616      8618      8616      8618      8619
      8616      8618      8620      8616      8618      8621      8619      8618      8620
      8619      8618      8621      8620      8618      8621      8618      8621      8622
      8618      8621      8623      8618      8621      8624      8622      8621      8623
      8622      8621      8624      8623      8621      8624      8621      8624      8625
      8621      8624      8626      8621      8624      8627      8625      8624      8626
      8625      8624      8627      8626      8624      8627      8624      8627      8628
      8624      8627      8629      8624      8627      8630      8628      8627      8629
      8628      8627      8630      8629      8627      8630      8627      8630      8631
      8627      8630      8632      8627      8630      8633      8631      8630      8632
      8631      8630      8633      8632      8630      8633      8630      8633      8634
      8630      8633      8635      8630      8633      8636      8634      8633      8635
      8634      8633      8636      8635      8633      8636      8633      8636      8637
      8633      8636      8638      8633      8636      8639      8637      8636      8638
      8637      8636      8639      8638      8636      8639      8636      8639      8640
      8636      8639      8641      8636      8639      8642      8640      8639      8641
      8640      8639      8642      8641      8639      8642      8644      8643      8647
      8644      8643      8651      8644      8643      8655      8647      8643      8651
      8647      8643      8655      8651      8643      8655      8643      8644      8645
      8643      8644      8646      8643      8644      8659      8645      8644      8646
      8645      8644      8659      8646      8644      8659      8643      8647      8648
      8643      8647      8649      8643      8647      8650      8648      8647      8649
      8648      8647      8650      8649      8647      8650      8643      8651      8652
      8643      8651      8653      8643      8651      8654      8652      8651      8653
      8652      8651      8654      8653      8651      8654      8643      8655      8656
      8643      8655      8657      8643      8655      8658      8656      8655      8657
      8656      8655      8658      8657      8655      8658      8644      8659      8660
      8644      8659      8661      8644      8659      8665      8660      8659      8661
      8660      8659      8665      8661      8659      8665      8663      8662      8664
      8663      8662      8665      8663      8662      8666      8664      8662      8665
      8664      8662      8666      8665      8662      8666      8659      8665      8662
      8662      8666      8667      8666      8667      8668      8666      8667      8669
      8666      8667      8670      8668      8667      8669      8668      8667      8670
      8669      8667      8670      8667      8670      8671      8667      8670      8672
      8667      8670      8678      8671      8670      8672      8671      8670      8678
      8672      8670      8678      8670      8672      8673      8672      8673      8674
      8672      8673      8675      8674      8673      8675      8673      8675      8676
      8673      8675      8677      8673      8675      8687      8676      8675      8677
      8676      8675      8687      8677      8675      8687      8670      8678      8679
      8670      8678      8680      8670      8678      8681      8679      8678      8680
      8679      8678      8681      8680      8678      8681      8678      8681      8682
      8681      8682      8683      8681      8682      8684      8683      8682      8684
      8682      8684      8685      8682      8684      8686      8682      8684      8734
      8685      8684      8686      8685      8684      8734      8686      8684      8734
      8675      8687      8688      8675      8687      8689      8675      8687      8690
      8688      8687      8689      8688      8687      8690      8689      8687      8690
      8687      8690      8691      8687      8690      8692      8687      8690      8693
      8691      8690      8692      8691      8690      8693      8692      8690      8693
      8690      8693      8694      8690      8693      8695      8690      8693      8696
      8694      8693      8695      8694      8693      8696      8695      8693      8696
      8693      8696      8697      8693      8696      8698      8693      8696      8699
      8697      8696      8698      8697      8696      8699      8698      8696      8699
      8696      8699      8700      8696      8699      8701      8696      8699      8702
      8700      8699      8701      8700      8699      8702      8701      8699      8702
      8699      8702      8703      8699      8702      8704      8699      8702      8705
      8703      8702      8704      8703      8702      8705      8704      8702      8705
      8702      8705      8706      8702      8705      8707      8706      8705      8707
      8705      8707      8708      8705      8707      8709      8708      8707      8709
      8707      8709      8710      8707      8709      8711      8707      8709      8712
      8710      8709      8711      8710      8709      8712      8711      8709      8712
      8709      8712      8713      8709      8712      8714      8709      8712      8715
      8713      8712      8714      8713      8712      8715      8714      8712      8715
      8712      8715      8716      8712      8715      8717      8712      8715      8718
      8716      8715      8717      8716      8715      8718      8717      8715      8718
      8715      8718      8719      8715      8718      8720      8715      8718      8721
      8719      8718      8720      8719      8718      8721      8720      8718      8721
      8718      8721      8722      8718      8721      8723      8718      8721      8724
      8722      8721      8723      8722      8721      8724      8723      8721      8724
      8721      8724      8725      8721      8724      8726      8721      8724      8727
      8725      8724      8726      8725      8724      8727      8726      8724      8727
      8724      8727      8728      8724      8727      8729      8724      8727      8730
      8728      8727      8729      8728      8727      8730      8729      8727      8730
      8727      8730      8731      8727      8730      8732      8727      8730      8733
      8731      8730      8732      8731      8730      8733      8732      8730      8733
      8684      8734      8735      8684      8734      8736      8684      8734      8737
      8735      8734      8736      8735      8734      8737      8736      8734      8737
      8734      8737      8738      8734      8737      8739      8734      8737      8740
      8738      8737      8739      8738      8737      8740      8739      8737      8740
      8737      8740      8741      8737      8740      8742      8737      8740      8743
      8741      8740      8742      8741      8740      8743      8742      8740      8743
      8740      8743      8744      8740      8743      8745      8740      8743      8746
      8744      8743      8745      8744      8743      8746      8745      8743      8746
      8743      8746      8747      8743      8746      8748      8743      8746      8749
      8747      8746      8748      8747      8746      8749      8748      8746      8749
      8746      8749      8750      8746      8749      8751      8746      8749      8752
      8750      8749      8751      8750      8749      8752      8751      8749      8752
      8749      8752      8753      8749      8752      8754      8753      8752      8754
      8752      8754      8755      8752      8754      8756      8755      8754      8756
      8754      8756      8757      8754      8756      8758      8754      8756      8759
      8757      8756      8758      8757      8756      8759      8758      8756      8759
      8756      8759      8760      8756      8759      8761      8756      8759      8762
      8760      8759      8761      8760      8759      8762      8761      8759      8762
      8759      8762      8763      8759      8762      8764      8759      8762      8765
      8763      8762      8764      8763      8762      8765      8764      8762      8765
      8762      8765      8766      8762      8765      8767      8762      8765      8768
      8766      8765      8767      8766      8765      8768      8767      8765      8768
      8765      8768      8769      8765      8768      8770      8765      8768      8771
      8769      8768      8770      8769      8768      8771      8770      8768      8771
      8768      8771      8772      8768      8771      8773      8768      8771      8774
      8772      8771      8773      8772      8771      8774      8773      8771      8774
      8771      8774      8775      8771      8774      8776      8771      8774      8777
      8775      8774      8776      8775      8774      8777      8776      8774      8777
      8774      8777      8778      8774      8777      8779      8774      8777      8780
      8778      8777      8779      8778      8777      8780      8779      8777      8780
      8782      8781      8785      8782      8781      8789      8782      8781      8793
      8785      8781      8789      8785      8781      8793      8789      8781      8793
      8781      8782      8783      8781      8782      8784      8781      8782      8797
      8783      8782      8784      8783      8782      8797      8784      8782      8797
      8781      8785      8786      8781      8785      8787      8781      8785      8788
      8786      8785      8787      8786      8785      8788      8787      8785      8788
      8781      8789      8790      8781      8789      8791      8781      8789      8792
      8790      8789      8791      8790      8789      8792      8791      8789      8792
      8781      8793      8794      8781      8793      8795      8781      8793      8796
      8794      8793      8795      8794      8793      8796      8795      8793      8796
      8782      8797      8798      8782      8797      8799      8782      8797      8803
      8798      8797      8799      8798      8797      8803      8799      8797      8803
      8801      8800      8802      8801      8800      8803      8801      8800      8804
      8802      8800      8803      8802      8800      8804      8803      8800      8804
      8797      8803      8800      8800      8804      8805      8804      8805      8806
      8804      8805      8807      8804      8805      8808      8806      8805      8807
      8806      8805      8808      8807      8805      8808      8805      8808      8809
      8805      8808      8810      8805      8808      8816      8809      8808      8810
      8809      8808      8816      8810      8808      8816      8808      8810      8811
      8810      8811      8812      8810      8811      8813      8812      8811      8813
      8811      8813      8814      8811      8813      8815      8811      8813      8825
      8814      8813      8815      8814      8813      8825      8815      8813      8825
      8808      8816      8817      8808      8816      8818      8808      8816      8819
      8817      8816      8818      8817      8816      8819      8818      8816      8819
      8816      8819      8820      8819      8820      8821      8819      8820      8822
      8821      8820      8822      8820      8822      8823      8820      8822      8824
      8820      8822      8872      8823      8822      8824      8823      8822      8872
      8824      8822      8872      8813      8825      8826      8813      8825      8827
      8813      8825      8828      8826      8825      8827      8826      8825      8828
      8827      8825      8828      8825      8828      8829      8825      8828      8830
      8825      8828      8831      8829      8828      8830      8829      8828      8831
      8830      8828      8831      8828      8831      8832      8828      8831      8833
      8828      8831      8834      8832      8831      8833      8832      8831      8834
      8833      8831      8834      8831      8834      8835      8831      8834      8836
      8831      8834      8837      8835      8834      8836      8835      8834      8837
      8836      8834      8837      8834      8837      8838      8834      8837      8839
      8834      8837      8840      8838      8837      8839      8838      8837      8840
      8839      8837      8840      8837      8840      8841      8837      8840      8842
      8837      8840      8843      8841      8840      8842      8841      8840      8843
      8842      8840      8843      8840      8843      8844      8840      8843      8845
      8844      8843      8845      8843      8845      8846      8843      8845      8847
      8846      8845      8847      8845      8847      8848      8845      8847      8849
      8845      8847      8850      8848      8847      8849      8848      8847      8850
      8849      8847      8850      8847      8850      8851      8847      8850      8852
      8847      8850      8853      8851      8850      8852      8851      8850      8853
      8852      8850      8853      8850      8853      8854      8850      8853      8855
      8850      8853      8856      8854      8853      8855      8854      8853      8856
      8855      8853      8856      8853      8856      8857      8853      8856      8858
      8853      8856      8859      8857      8856      8858      8857      8856      8859
      8858      8856      8859      8856      8859      8860      8856      8859      8861
      8856      8859      8862      8860      8859      8861      8860      8859      8862
      8861      8859      8862      8859      8862      8863      8859      8862      8864
      8859      8862      8865      8863      8862      8864      8863      8862      8865
      8864      8862      8865      8862      8865      8866      8862      8865      8867
      8862      8865      8868      8866      8865      8867      8866      8865      8868
      8867      8865      8868      8865      8868      8869      8865      8868      8870
      8865      8868      8871      8869      8868      8870      8869      8868      8871
      8870      8868      8871      8822      8872      8873      8822      8872      8874
      8822      8872      8875      8873      8872      8874      8873      8872      8875
      8874      8872      8875      8872      8875      8876      8872      8875      8877
      8872      8875      8878      8876      8875      8877      8876      8875      8878
      8877      8875      8878      8875      8878      8879      8875      8878      8880
      8875      8878      8881      8879      8878      8880      8879      8878      8881
      8880      8878      8881      8878      8881      8882      8878      8881      8883
      8878      8881      8884      8882      8881      8883      8882      8881      8884
      8883      8881      8884      8881      8884      8885      8881      8884      8886
      8881      8884      8887      8885      8884      8886      8885      8884      8887
      8886      8884      8887      8884      8887      8888      8884      8887      8889
      8884      8887      8890      8888      8887      8889      8888      8887      8890
      8889      8887      8890      8887      8890      8891      8887      8890      8892
      8891      8890      8892      8890      8892      8893      8890      8892      8894
      8893      8892      8894      8892      8894      8895      8892      8894      8896
      8892      8894      8897      8895      8894      8896      8895      8894      8897
      8896      8894      8897      8894      8897      8898      8894      8897      8899
      8894      8897      8900      8898      8897      8899      8898      8897      8900
      8899      8897      8900      8897      8900      8901      8897      8900      8902
      8897      8900      8903      8901      8900      8902      8901      8900      8903
      8902      8900      8903      8900      8903      8904      8900      8903      8905
      8900      8903      8906      8904      8903      8905      8904      8903      8906
      8905      8903      8906      8903      8906      8907      8903      8906      8908
      8903      8906      8909      8907      8906      8908      8907      8906      8909
      8908      8906      8909      8906      8909      8910      8906      8909      8911
      8906      8909      8912      8910      8909      8911      8910      8909      8912
      8911      8909      8912      8909      8912      8913      8909      8912      8914
      8909      8912      8915      8913      8912      8914      8913      8912      8915
      8914      8912      8915      8912      8915      8916      8912      8915      8917
      8912      8915      8918      8916      8915      8917      8916      8915      8918
      8917      8915      8918      8920      8919      8923      8920      8919      8927
      8920      8919      8931      8923      8919      8927      8923      8919      8931
      8927      8919      8931      8919      8920      8921      8919      8920      8922
      8919      8920      8935      8921      8920      8922      8921      8920      8935
      8922      8920      8935      8919      8923      8924      8919      8923      8925
      8919      8923      8926      8924      8923      8925      8924      8923      8926
      8925      8923      8926      8919      8927      8928      8919      8927      8929
      8919      8927      8930      8928      8927      8929      8928      8927      8930
      8929      8927      8930      8919      8931      8932      8919      8931      8933
      8919      8931      8934      8932      8931      8933      8932      8931      8934
      8933      8931      8934      8920      8935      8936      8920      8935      8937
      8920      8935      8941      8936      8935      8937      8936      8935      8941
      8937      8935      8941      8939      8938      8940      8939      8938      8941
      8939      8938      8942      8940      8938      8941      8940      8938      8942
      8941      8938      8942      8935      8941      8938      8938      8942      8943
      8942      8943      8944      8942      8943      8945      8942      8943      8946
      8944      8943      8945      8944      8943      8946      8945      8943      8946
      8943      8946      8947      8943      8946      8948      8943      8946      8954
      8947      8946      8948      8947      8946      8954      8948      8946      8954
      8946      8948      8949      8948      8949      8950      8948      8949      8951
      8950      8949      8951      8949      8951      8952      8949      8951      8953
      8949      8951      8963      8952      8951      8953      8952      8951      8963
      8953      8951      8963      8946      8954      8955      8946      8954      8956
      8946      8954      8957      8955      8954      8956      8955      8954      8957
      8956      8954      8957      8954      8957      8958      8957      8958      8959
      8957      8958      8960      8959      8958      8960      8958      8960      8961
      8958      8960      8962      8958      8960      9010      8961      8960      8962
      8961      8960      9010      8962      8960      9010      8951      8963      8964
      8951      8963      8965      8951      8963      8966      8964      8963      8965
      8964      8963      8966      8965      8963      8966      8963      8966      8967
      8963      8966      8968      8963      8966      8969      8967      8966      8968
      8967      8966      8969      8968      8966      8969      8966      8969      8970
      8966      8969      8971      8966      8969      8972      8970      8969      8971
      8970      8969      8972      8971      8969      8972      8969      8972      8973
      8969      8972      8974      8969      8972      8975      8973      8972      8974
      8973      8972      8975      8974      8972      8975      8972      8975      8976
      8972      8975      8977      8972      8975      8978      8976      8975      8977
      8976      8975      8978      8977      8975      8978      8975      8978      8979
      8975      8978      8980      8975      8978      8981      8979      8978      8980
      8979      8978      8981      8980      8978      8981      8978      8981      8982
      8978      8981      8983      8982      8981      8983      8981      8983      8984
      8981      8983      8985      8984      8983      8985      8983      8985      8986
      8983      8985      8987      8983      8985      8988      8986      8985      8987
      8986      8985      8988      8987      8985      8988      8985      8988      8989
      8985      8988      8990      8985      8988      8991      8989      8988      8990
      8989      8988      8991      8990      8988      8991      8988      8991      8992
      8988      8991      8993      8988      8991      8994      8992      8991      8993
      8992      8991      8994      8993      8991      8994      8991      8994      8995
      8991      8994      8996      8991      8994      8997      8995      8994      8996
      8995      8994      8997      8996      8994      8997      8994      8997      8998
      8994      8997      8999      8994      8997      9000      8998      8997      8999
      8998      8997      9000      8999      8997      9000      8997      9000      9001
      8997      9000      9002      8997      9000      9003      9001      9000      9002
      9001      9000      9003      9002      9000      9003      9000      9003      9004
      9000      9003      9005      9000      9003      9006      9004      9003      9005
      9004      9003      9006      9005      9003      9006      9003      9006      9007
      9003      9006      9008      9003      9006      9009      9007      9006      9008
      9007      9006      9009      9008      9006      9009      8960      9010      9011
      8960      9010      9012      8960      9010      9013      9011      9010      9012
      9011      9010      9013      9012      9010      9013      9010      9013      9014
      9010      9013      9015      9010      9013      9016      9014      9013      9015
      9014      9013      9016      9015      9013      9016      9013      9016      9017
      9013      9016      9018      9013      9016      9019      9017      9016      9018
      9017      9016      9019      9018      9016      9019      9016      9019      9020
      9016      9019      9021      9016      9019      9022      9020      9019      9021
      9020      9019      9022      9021      9019      9022      9019      9022      9023
      9019      9022      9024      9019      9022      9025      9023      9022      9024
      9023      9022      9025      9024      9022      9025      9022      9025      9026
      9022      9025      9027      9022      9025      9028      9026      9025      9027
      9026      9025      9028      9027      9025      9028      9025      9028      9029
      9025      9028      9030      9029      9028      9030      9028      9030      9031
      9028      9030      9032      9031      9030      9032      9030      9032      9033
      9030      9032      9034      9030      9032      9035      9033      9032      9034
      9033      9032      9035      9034      9032      9035      9032      9035      9036
      9032      9035      9037      9032      9035      9038      9036      9035      9037
      9036      9035      9038      9037      9035      9038      9035      9038      9039
      9035      9038      9040      9035      9038      9041      9039      9038      9040
      9039      9038      9041      9040      9038      9041      9038      9041      9042
      9038      9041      9043      9038      9041      9044      9042      9041      9043
      9042      9041      9044      9043      9041      9044      9041      9044      9045
      9041      9044      9046      9041      9044      9047      9045      9044      9046
      9045      9044      9047      9046      9044      9047      9044      9047      9048
      9044      9047      9049      9044      9047      9050      9048      9047      9049
      9048      9047      9050      9049      9047      9050      9047      9050      9051
      9047      9050      9052      9047      9050      9053      9051      9050      9052
      9051      9050      9053      9052      9050      9053      9050      9053      9054
      9050      9053      9055      9050      9053      9056      9054      9053      9055
      9054      9053      9056      9055      9053      9056      9058      9057      9061
      9058      9057      9065      9058      9057      9069      9061      9057      9065
      9061      9057      9069      9065      9057      9069      9057      9058      9059
      9057      9058      9060      9057      9058      9073      9059      9058      9060
      9059      9058      9073      9060      9058      9073      9057      9061      9062
      9057      9061      9063      9057      9061      9064      9062      9061      9063
      9062      9061      9064      9063      9061      9064      9057      9065      9066
      9057      9065      9067      9057      9065      9068      9066      9065      9067
      9066      9065      9068      9067      9065      9068      9057      9069      9070
      9057      9069      9071      9057      9069      9072      9070      9069      9071
      9070      9069      9072      9071      9069      9072      9058      9073      9074
      9058      9073      9075      9058      9073      9079      9074      9073      9075
      9074      9073      9079      9075      9073      9079      9077      9076      9078
      9077      9076      9079      9077      9076      9080      9078      9076      9079
      9078      9076      9080      9079      9076      9080      9073      9079      9076
      9076      9080      9081      9080      9081      9082      9080      9081      9083
      9080      9081      9084      9082      9081      9083      9082      9081      9084
      9083      9081      9084      9081      9084      9085      9081      9084      9086
      9081      9084      9092      9085      9084      9086      9085      9084      9092
      9086      9084      9092      9084      9086      9087      9086      9087      9088
      9086      9087      9089      9088      9087      9089      9087      9089      9090
      9087      9089      9091      9087      9089      9101      9090      9089      9091
      9090      9089      9101      9091      9089      9101      9084      9092      9093
      9084      9092      9094      9084      9092      9095      9093      9092      9094
      9093      9092      9095      9094      9092      9095      9092      9095      9096
      9095      9096      9097      9095      9096      9098      9097      9096      9098
      9096      9098      9099      9096      9098      9100      9096      9098      9148
      9099      9098      9100      9099      9098      9148      9100      9098      9148
      9089      9101      9102      9089      9101      9103      9089      9101      9104
      9102      9101      9103      9102      9101      9104      9103      9101      9104
      9101      9104      9105      9101      9104      9106      9101      9104      9107
      9105      9104      9106      9105      9104      9107      9106      9104      9107
      9104      9107      9108      9104      9107      9109      9104      9107      9110
      9108      9107      9109      9108      9107      9110      9109      9107      9110
      9107      9110      9111      9107      9110      9112      9107      9110      9113
      9111      9110      9112      9111      9110      9113      9112      9110      9113
      9110      9113      9114      9110      9113      9115      9110      9113      9116
      9114      9113      9115      9114      9113      9116      9115      9113      9116
      9113      9116      9117      9113      9116      9118      9113      9116      9119
      9117      9116      9118      9117      9116      9119      9118      9116      9119
      9116      9119      9120      9116      9119      9121      9120      9119      9121
      9119      9121      9122      9119      9121      9123      9122      9121      9123
      9121      9123      9124      9121      9123      9125      9121      9123      9126
      9124      9123      9125      9124      9123      9126      9125      9123      9126
      9123      9126      9127      9123      9126      9128      9123      9126      9129
      9127      9126      9128      9127      9126      9129      9128      9126      9129
      9126      9129      9130      9126      9129      9131      9126      9129      9132
      9130      9129      9131      9130      9129      9132      9131      9129      9132
      9129      9132      9133      9129      9132      9134      9129      9132      9135
      9133      9132      9134      9133      9132      9135      9134      9132      9135
      9132      9135      9136      9132      9135      9137      9132      9135      9138
      9136      9135      9137      9136      9135      9138      9137      9135      9138
      9135      9138      9139      9135      9138      9140      9135      9138      9141
      9139      9138      9140      9139      9138      9141      9140      9138      9141
      9138      9141      9142      9138      9141      9143      9138      9141      9144
      9142      9141      9143      9142      9141      9144      9143      9141      9144
      9141      9144      9145      9141      9144      9146      9141      9144      9147
      9145      9144      9146      9145      9144      9147      9146      9144      9147
      9098      9148      9149      9098      9148      9150      9098      9148      9151
      9149      9148      9150      9149      9148      9151      9150      9148      9151
      9148      9151      9152      9148      9151      9153      9148      9151      9154
      9152      9151      9153      9152      9151      9154      9153      9151      9154
      9151      9154      9155      9151      9154      9156      9151      9154      9157
      9155      9154      9156      9155      9154      9157      9156      9154      9157
      9154      9157      9158      9154      9157      9159      9154      9157      9160
      9158      9157      9159      9158      9157      9160      9159      9157      9160
      9157      9160      9161      9157      9160      9162      9157      9160      9163
      9161      9160      9162      9161      9160      9163      9162      9160      9163
      9160      9163      9164      9160      9163      9165      9160      9163      9166
      9164      9163      9165      9164      9163      9166      9165      9163      9166
      9163      9166      9167      9163      9166      9168      9167      9166      9168
      9166      9168      9169      9166      9168      9170      9169      9168      9170
      9168      9170      9171      9168      9170      9172      9168      9170      9173
      9171      9170      9172      9171      9170      9173      9172      9170      9173
      9170      9173      9174      9170      9173      9175      9170      9173      9176
      9174      9173      9175      9174      9173      9176      9175      9173      9176
      9173      9176      9177      9173      9176      9178      9173      9176      9179
      9177      9176      9178      9177      9176      9179      9178      9176      9179
      9176      9179      9180      9176      9179      9181      9176      9179      9182
      9180      9179      9181      9180      9179      9182      9181      9179      9182
      9179      9182      9183      9179      9182      9184      9179      9182      9185
      9183      9182      9184      9183      9182      9185      9184      9182      9185
      9182      9185      9186      9182      9185      9187      9182      9185      9188
      9186      9185      9187      9186      9185      9188      9187      9185      9188
      9185      9188      9189      9185      9188      9190      9185      9188      9191
      9189      9188      9190      9189      9188      9191      9190      9188      9191
      9188      9191      9192      9188      9191      9193      9188      9191      9194
      9192      9191      9193      9192      9191      9194      9193      9191      9194
      9196      9195      9199      9196      9195      9203      9196      9195      9207
      9199      9195      9203      9199      9195      9207      9203      9195      9207
      9195      9196      9197      9195      9196      9198      9195      9196      9211
      9197      9196      9198      9197      9196      9211      9198      9196      9211
      9195      9199      9200      9195      9199      9201      9195      9199      9202
      9200      9199      9201      9200      9199      9202      9201      9199      9202
      9195      9203      9204      9195      9203      9205      9195      9203      9206
      9204      9203      9205      9204      9203      9206      9205      9203      9206
      9195      9207      9208      9195      9207      9209      9195      9207      9210
      9208      9207      9209      9208      9207      9210      9209      9207      9210
      9196      9211      9212      9196      9211      9213      9196      9211      9217
      9212      9211      9213      9212      9211      9217      9213      9211      9217
      9215      9214      9216      9215      9214      9217      9215      9214      9218
      9216      9214      9217      9216      9214      9218      9217      9214      9218
      9211      9217      9214      9214      9218      9219      9218      9219      9220
      9218      9219      9221      9218      9219      9222      9220      9219      9221
      9220      9219      9222      9221      9219      9222      9219      9222      9223
      9219      9222      9224      9219      9222      9230      9223      9222      9224
      9223      9222      9230      9224      9222      9230      9222      9224      9225
      9224      9225      9226      9224      9225      9227      9226      9225      9227
      9225      9227      9228      9225      9227      9229      9225      9227      9239
      9228      9227      9229      9228      9227      9239      9229      9227      9239
      9222      9230      9231      9222      9230      9232      9222      9230      9233
      9231      9230      9232      9231      9230      9233      9232      9230      9233
      9230      9233      9234      9233      9234      9235      9233      9234      9236
      9235      9234      9236      9234      9236      9237      9234      9236      9238
      9234      9236      9286      9237      9236      9238      9237      9236      9286
      9238      9236      9286      9227      9239      9240      9227      9239      9241
      9227      9239      9242      9240      9239      9241      9240      9239      9242
      9241      9239      9242      9239      9242      9243      9239      9242      9244
      9239      9242      9245      9243      9242      9244      9243      9242      9245
      9244      9242      9245      9242      9245      9246      9242      9245      9247
      9242      9245      9248      9246      9245      9247      9246      9245      9248
      9247      9245      9248      9245      9248      9249      9245      9248      9250
      9245      9248      9251      9249      9248      9250      9249      9248      9251
      9250      9248      9251      9248      9251      9252      9248      9251      9253
      9248      9251      9254      9252      9251      9253      9252      9251      9254
      9253      9251      9254      9251      9254      9255      9251      9254      9256
      9251      9254      9257      9255      9254      9256      9255      9254      9257
      9256      9254      9257      9254      9257      9258      9254      9257      9259
      9258      9257      9259      9257      9259      9260      9257      9259      9261
      9260      9259      9261      9259      9261      9262      9259      9261      9263
      9259      9261      9264      9262      9261      9263      9262      9261      9264
      9263      9261      9264      9261      9264      9265      9261      9264      9266
      9261      9264      9267      9265      9264      9266      9265      9264      9267
      9266      9264      9267      9264      9267      9268      9264      9267      9269
      9264      9267      9270      9268      9267      9269      9268      9267      9270
      9269      9267      9270      9267      9270      9271      9267      9270      9272
      9267      9270      9273      9271      9270      9272      9271      9270      9273
      9272      9270      9273      9270      9273      9274      9270      9273      9275
      9270      9273      9276      9274      9273      9275      9274      9273      9276
      9275      9273      9276      9273      9276      9277      9273      9276      9278
      9273      9276      9279      9277      9276      9278      9277      9276      9279
      9278      9276      9279      9276      9279      9280      9276      9279      9281
      9276      9279      9282      9280      9279      9281      9280      9279      9282
      9281      9279      9282      9279      9282      9283      9279      9282      9284
      9279      9282      9285      9283      9282      9284      9283      9282      9285
      9284      9282      9285      9236      9286      9287      9236      9286      9288
      9236      9286      9289      9287      9286      9288      9287      9286      9289
      9288      9286      9289      9286      9289      9290      9286      9289      9291
      9286      9289      9292      9290      9289      9291      9290      9289      9292
      9291      9289      9292      9289      9292      9293      9289      9292      9294
      9289      9292      9295      9293      9292      9294      9293      9292      9295
      9294      9292      9295      9292      9295      9296      9292      9295      9297
      9292      9295      9298      9296      9295      9297      9296      9295      9298
      9297      9295      9298      9295      9298      9299      9295      9298      9300
      9295      9298      9301      9299      9298      9300      9299      9298      9301
      9300      9298      9301      9298      9301      9302      9298      9301      9303
      9298      9301      9304      9302      9301      9303      9302      9301      9304
      9303      9301      9304      9301      9304      9305      9301      9304      9306
      9305      9304      9306      9304      9306      9307      9304      9306      9308
      9307      9306      9308      9306      9308      9309      9306      9308      9310
      9306      9308      9311      9309      9308      9310      9309      9308      9311
      9310      9308      9311      9308      9311      9312      9308      9311      9313
      9308      9311      9314      9312      9311      9313      9312      9311      9314
      9313      9311      9314      9311      9314      9315      9311      9314      9316
      9311      9314      9317      9315      9314      9316      9315      9314      9317
      9316      9314      9317      9314      9317      9318      9314      9317      9319
      9314      9317      9320      9318      9317      9319      9318      9317      9320
      9319      9317      9320      9317      9320      9321      9317      9320      9322
      9317      9320      9323      9321      9320      9322      9321      9320      9323
      9322      9320      9323      9320      9323      9324      9320      9323      9325
      9320      9323      9326      9324      9323      9325      9324      9323      9326
      9325      9323      9326      9323      9326      9327      9323      9326      9328
      9323      9326      9329      9327      9326      9328      9327      9326      9329
      9328      9326      9329      9326      9329      9330      9326      9329      9331
      9326      9329      9332      9330      9329      9331      9330      9329      9332
      9331      9329      9332      9334      9333      9337      9334      9333      9341
      9334      9333      9345      9337      9333      9341      9337      9333      9345
      9341      9333      9345      9333      9334      9335      9333      9334      9336
      9333      9334      9349      9335      9334      9336      9335      9334      9349
      9336      9334      9349      9333      9337      9338      9333      9337      9339
      9333      9337      9340      9338      9337      9339      9338      9337      9340
      9339      9337      9340      9333      9341      9342      9333      9341      9343
      9333      9341      9344      9342      9341      9343      9342      9341      9344
      9343      9341      9344      9333      9345      9346      9333      9345      9347
      9333      9345      9348      9346      9345      9347      9346      9345      9348
      9347      9345      9348      9334      9349      9350      9334      9349      9351
      9334      9349      9355      9350      9349      9351      9350      9349      9355
      9351      9349      9355      9353      9352      9354      9353      9352      9355
      9353      9352      9356      9354      9352      9355      9354      9352      9356
      9355      9352      9356      9349      9355      9352      9352      9356      9357
      9356      9357      9358      9356      9357      9359      9356      9357      9360
      9358      9357      9359      9358      9357      9360      9359      9357      9360
      9357      9360      9361      9357      9360      9362      9357      9360      9368
      9361      9360      9362      9361      9360      9368      9362      9360      9368
      9360      9362      9363      9362      9363      9364      9362      9363      9365
      9364      9363      9365      9363      9365      9366      9363      9365      9367
      9363      9365      9377      9366      9365      9367      9366      9365      9377
      9367      9365      9377      9360      9368      9369      9360      9368      9370
      9360      9368      9371      9369      9368      9370      9369      9368      9371
      9370      9368      9371      9368      9371      9372      9371      9372      9373
      9371      9372      9374      9373      9372      9374      9372      9374      9375
      9372      9374      9376      9372      9374      9424      9375      9374      9376
      9375      9374      9424      9376      9374      9424      9365      9377      9378
      9365      9377      9379      9365      9377      9380      9378      9377      9379
      9378      9377      9380      9379      9377      9380      9377      9380      9381
      9377      9380      9382      9377      9380      9383      9381      9380      9382
      9381      9380      9383      9382      9380      9383      9380      9383      9384
      9380      9383      9385      9380      9383      9386      9384      9383      9385
      9384      9383      9386      9385      9383      9386      9383      9386      9387
      9383      9386      9388      9383      9386      9389      9387      9386      9388
      9387      9386      9389      9388      9386      9389      9386      9389      9390
      9386      9389      9391      9386      9389      9392      9390      9389      9391
      9390      9389      9392      9391      9389      9392      9389      9392      9393
      9389      9392      9394      9389      9392      9395      9393      9392      9394
      9393      9392      9395      9394      9392      9395      9392      9395      9396
      9392      9395      9397      9396      9395      9397      9395      9397      9398
      9395      9397      9399      9398      9397      9399      9397      9399      9400
      9397      9399      9401      9397      9399      9402      9400      9399      9401
      9400      9399      9402      9401      9399      9402      9399      9402      9403
      9399      9402      9404      9399      9402      9405      9403      9402      9404
      9403      9402      9405      9404      9402      9405      9402      9405      9406
      9402      9405      9407      9402      9405      9408      9406      9405      9407
      9406      9405      9408      9407      9405      9408      9405      9408      9409
      9405      9408      9410      9405      9408      9411      9409      9408      9410
      9409      9408      9411      9410      9408      9411      9408      9411      9412
      9408      9411      9413      9408      9411      9414      9412      9411      9413
      9412      9411      9414      9413      9411      9414      9411      9414      9415
      9411      9414      9416      9411      9414      9417      9415      9414      9416
      9415      9414      9417      9416      9414      9417      9414      9417      9418
      9414      9417      9419      9414      9417      9420      9418      9417      9419
      9418      9417      9420      9419      9417      9420      9417      9420      9421
      9417      9420      9422      9417      9420      9423      9421      9420      9422
      9421      9420      9423      9422      9420      9423      9374      9424      9425
      9374      9424      9426      9374      9424      9427      9425      9424      9426
      9425      9424      9427      9426      9424      9427      9424      9427      9428
      9424      9427      9429      9424      9427      9430      9428      9427      9429
      9428      9427      9430      9429      9427      9430      9427      9430      9431
      9427      9430      9432      9427      9430      9433      9431      9430      9432
      9431      9430      9433      9432      9430      9433      9430      9433      9434
      9430      9433      9435      9430      9433      9436      9434      9433      9435
      9434      9433      9436      9435      9433      9436      9433      9436      9437
      9433      9436      9438      9433      9436      9439      9437      9436      9438
      9437      9436      9439      9438      9436      9439      9436      9439      9440
      9436      9439      9441      9436      9439      9442      9440      9439      9441
      9440      9439      9442      9441      9439      9442      9439      9442      9443
      9439      9442      9444      9443      9442      9444      9442      9444      9445
      9442      9444      9446      9445      9444      9446      9444      9446      9447
      9444      9446      9448      9444      9446      9449      9447      9446      9448
      9447      9446      9449      9448      9446      9449      9446      9449      9450
      9446      9449      9451      9446      9449      9452      9450      9449      9451
      9450      9449      9452      9451      9449      9452      9449      9452      9453
      9449      9452      9454      9449      9452      9455      9453      9452      9454
      9453      9452      9455      9454      9452      9455      9452      9455      9456
      9452      9455      9457      9452      9455      9458      9456      9455      9457
      9456      9455      9458      9457      9455      9458      9455      9458      9459
      9455      9458      9460      9455      9458      9461      9459      9458      9460
      9459      9458      9461      9460      9458      9461      9458      9461      9462
      9458      9461      9463      9458      9461      9464      9462      9461      9463
      9462      9461      9464      9463      9461      9464      9461      9464      9465
      9461      9464      9466      9461      9464      9467      9465      9464      9466
      9465      9464      9467      9466      9464      9467      9464      9467      9468
      9464      9467      9469      9464      9467      9470      9468      9467      9469
      9468      9467      9470      9469      9467      9470      9472      9471      9475
      9472      9471      9479      9472      9471      9483      9475      9471      9479
      9475      9471      9483      9479      9471      9483      9471      9472      9473
      9471      9472      9474      9471      9472      9487      9473      9472      9474
      9473      9472      9487      9474      9472      9487      9471      9475      9476
      9471      9475      9477      9471      9475      9478      9476      9475      9477
      9476      9475      9478      9477      9475      9478      9471      9479      9480
      9471      9479      9481      9471      9479      9482      9480      9479      9481
      9480      9479      9482      9481      9479      9482      9471      9483      9484
      9471      9483      9485      9471      9483      9486      9484      9483      9485
      9484      9483      9486      9485      9483      9486      9472      9487      9488
      9472      9487      9489      9472      9487      9493      9488      9487      9489
      9488      9487      9493      9489      9487      9493      9491      9490      9492
      9491      9490      9493      9491      9490      9494      9492      9490      9493
      9492      9490      9494      9493      9490      9494      9487      9493      9490
      9490      9494      9495      9494      9495      9496      9494      9495      9497
      9494      9495      9498      9496      9495      9497      9496      9495      9498
      9497      9495      9498      9495      9498      9499      9495      9498      9500
      9495      9498      9506      9499      9498      9500      9499      9498      9506
      9500      9498      9506      9498      9500      9501      9500      9501      9502
      9500      9501      9503      9502      9501      9503      9501      9503      9504
      9501      9503      9505      9501      9503      9515      9504      9503      9505
      9504      9503      9515      9505      9503      9515      9498      9506      9507
      9498      9506      9508      9498      9506      9509      9507      9506      9508
      9507      9506      9509      9508      9506      9509      9506      9509      9510
      9509      9510      9511      9509      9510      9512      9511      9510      9512
      9510      9512      9513      9510      9512      9514      9510      9512      9562
      9513      9512      9514      9513      9512      9562      9514      9512      9562
      9503      9515      9516      9503      9515      9517      9503      9515      9518
      9516      9515      9517      9516      9515      9518      9517      9515      9518
      9515      9518      9519      9515      9518      9520      9515      9518      9521
      9519      9518      9520      9519      9518      9521      9520      9518      9521
      9518      9521      9522      9518      9521      9523      9518      9521      9524
      9522      9521      9523      9522      9521      9524      9523      9521      9524
      9521      9524      9525      9521      9524      9526      9521      9524      9527
      9525      9524      9526      9525      9524      9527      9526      9524      9527
      9524      9527      9528      9524      9527      9529      9524      9527      9530
      9528      9527      9529      9528      9527      9530      9529      9527      9530
      9527      9530      9531      9527      9530      9532      9527      9530      9533
      9531      9530      9532      9531      9530      9533      9532      9530      9533
      9530      9533      9534      9530      9533      9535      9534      9533      9535
      9533      9535      9536      9533      9535      9537      9536      9535      9537
      9535      9537      9538      9535      9537      9539      9535      9537      9540
      9538      9537      9539      9538      9537      9540      9539      9537      9540
      9537      9540      9541      9537      9540      9542      9537      9540      9543
      9541      9540      9542      9541      9540      9543      9542      9540      9543
      9540      9543      9544      9540      9543      9545      9540      9543      9546
      9544      9543      9545      9544      9543      9546      9545      9543      9546
      9543      9546      9547      9543      9546      9548      9543      9546      9549
      9547      9546      9548      9547      9546      9549      9548      9546      9549
      9546      9549      9550      9546      9549      9551      9546      9549      9552
      9550      9549      9551      9550      9549      9552      9551      9549      9552
      9549      9552      9553      9549      9552      9554      9549      9552      9555
      9553      9552      9554      9553      9552      9555      9554      9552      9555
      9552      9555      9556      9552      9555      9557      9552      9555      9558
      9556      9555      9557      9556      9555      9558      9557      9555      9558
      9555      9558      9559      9555      9558      9560      9555      9558      9561
      9559      9558      9560      9559      9558      9561      9560      9558      9561
      9512      9562      9563      9512      9562      9564      9512      9562      9565
      9563      9562      9564      9563      9562      9565      9564      9562      9565
      9562      9565      9566      9562      9565      9567      9562      9565      9568
      9566      9565      9567      9566      9565      9568      9567      9565      9568
      9565      9568      9569      9565      9568      9570      9565      9568      9571
      9569      9568      9570      9569      9568      9571      9570      9568      9571
      9568      9571      9572      9568      9571      9573      9568      9571      9574
      9572      9571      9573      9572      9571      9574      9573      9571      9574
      9571      9574      9575      9571      9574      9576      9571      9574      9577
      9575      9574      9576      9575      9574      9577      9576      9574      9577
      9574      9577      9578      9574      9577      9579      9574      9577      9580
      9578      9577      9579      9578      9577      9580      9579      9577      9580
      9577      9580      9581      9577      9580      9582      9581      9580      9582
      9580      9582      9583      9580      9582      9584      9583      9582      9584
      9582      9584      9585      9582      9584      9586      9582      9584      9587
      9585      9584      9586      9585      9584      9587      9586      9584      9587
      9584      9587      9588      9584      9587      9589      9584      9587      9590
      9588      9587      9589      9588      9587      9590      9589      9587      9590
      9587      9590      9591      9587      9590      9592      9587      9590      9593
      9591      9590      9592      9591      9590      9593      9592      9590      9593
      9590      9593      9594      9590      9593      9595      9590      9593      9596
      9594      9593      9595      9594      9593      9596      9595      9593      9596
      9593      9596      9597      9593      9596      9598      9593      9596      9599
      9597      9596      9598      9597      9596      9599      9598      9596      9599
      9596      9599      9600      9596      9599      9601      9596      9599      9602
      9600      9599      9601      9600      9599      9602      9601      9599      9602
      9599      9602      9603      9599      9602      9604      9599      9602      9605
      9603      9602      9604      9603      9602      9605      9604      9602      9605
      9602      9605      9606      9602      9605      9607      9602      9605      9608
      9606      9605      9607      9606      9605      9608      9607      9605      9608
      9610      9609      9613      9610      9609      9617      9610      9609      9621
      9613      9609      9617      9613      9609      9621      9617      9609      9621
      9609      9610      9611      9609      9610      9612      9609      9610      9625
      9611      9610      9612      9611      9610      9625      9612      9610      9625
      9609      9613      9614      9609      9613      9615      9609      9613      9616
      9614      9613      9615      9614      9613      9616      9615      9613      9616
      9609      9617      9618      9609      9617      9619      9609      9617      9620
      9618      9617      9619      9618      9617      9620      9619      9617      9620
      9609      9621      9622      9609      9621      9623      9609      9621      9624
      9622      9621      9623      9622      9621      9624      9623      9621      9624
      9610      9625      9626      9610      9625      9627      9610      9625      9631
      9626      9625      9627      9626      9625      9631      9627      9625      9631
      9629      9628      9630      9629      9628      9631      9629      9628      9632
      9630      9628      9631      9630      9628      9632      9631      9628      9632
      9625      9631      9628      9628      9632      9633      9632      9633      9634
      9632      9633      9635      9632      9633      9636      9634      9633      9635
      9634      9633      9636      9635      9633      9636      9633      9636      9637
      9633      9636      9638      9633      9636      9644      9637      9636      9638
      9637      9636      9644      9638      9636      9644      9636      9638      9639
      9638      9639      9640      9638      9639      9641      9640      9639      9641
      9639      9641      9642      9639      9641      9643      9639      9641      9653
      9642      9641      9643      9642      9641      9653      9643      9641      9653
      9636      9644      9645      9636      9644      9646      9636      9644      9647
      9645      9644      9646      9645      9644      9647      9646      9644      9647
      9644      9647      9648      9647      9648      9649      9647      9648      9650
      9649      9648      9650      9648      9650      9651      9648      9650      9652
      9648      9650      9700      9651      9650      9652      9651      9650      9700
      9652      9650      9700      9641      9653      9654      9641      9653      9655
      9641      9653      9656      9654      9653      9655      9654      9653      9656
      9655      9653      9656      9653      9656      9657      9653      9656      9658
      9653      9656      9659      9657      9656      9658      9657      9656      9659
      9658      9656      9659      9656      9659      9660      9656      9659      9661
      9656      9659      9662      9660      9659      9661      9660      9659      9662
      9661      9659      9662      9659      9662      9663      9659      9662      9664
      9659      9662      9665      9663      9662      9664      9663      9662      9665
      9664      9662      9665      9662      9665      9666      9662      9665      9667
      9662      9665      9668      9666      9665      9667      9666      9665      9668
      9667      9665      9668      9665      9668      9669      9665      9668      9670
      9665      9668      9671      9669      9668      9670      9669      9668      9671
      9670      9668      9671      9668      9671      9672      9668      9671      9673
      9672      9671      9673      9671      9673      9674      9671      9673      9675
      9674      9673      9675      9673      9675      9676      9673      9675      9677
      9673      9675      9678      9676      9675      9677      9676      9675      9678
      9677      9675      9678      9675      9678      9679      9675      9678      9680
      9675      9678      9681      9679      9678      9680      9679      9678      9681
      9680      9678      9681      9678      9681      9682      9678      9681      9683
      9678      9681      9684      9682      9681      9683      9682      9681      9684
      9683      9681      9684      9681      9684      9685      9681      9684      9686
      9681      9684      9687      9685      9684      9686      9685      9684      9687
      9686      9684      9687      9684      9687      9688      9684      9687      9689
      9684      9687      9690      9688      9687      9689      9688      9687      9690
      9689      9687      9690      9687      9690      9691      9687      9690      9692
      9687      9690      9693      9691      9690      9692      9691      9690      9693
      9692      9690      9693      9690      9693      9694      9690      9693      9695
      9690      9693      9696      9694      9693      9695      9694      9693      9696
      9695      9693      9696      9693      9696      9697      9693      9696      9698
      9693      9696      9699      9697      9696      9698      9697      9696      9699
      9698      9696      9699      9650      9700      9701      9650      9700      9702
      9650      9700      9703      9701      9700      9702      9701      9700      9703
      9702      9700      9703      9700      9703      9704      9700      9703      9705
      9700      9703      9706      9704      9703      9705      9704      9703      9706
      9705      9703      9706      9703      9706      9707      9703      9706      9708
      9703      9706      9709      9707      9706      9708      9707      9706      9709
      9708      9706      9709      9706      9709      9710      9706      9709      9711
      9706      9709      9712      9710      9709      9711      9710      9709      9712
      9711      9709      9712      9709      9712      9713      9709      9712      9714
      9709      9712      9715      9713      9712      9714      9713      9712      9715
      9714      9712      9715      9712      9715      9716      9712      9715      9717
      9712      9715      9718      9716      9715      9717      9716      9715      9718
      9717      9715      9718      9715      9718      9719      9715      9718      9720
      9719      9718      9720      9718      9720      9721      9718      9720      9722
      9721      9720      9722      9720      9722      9723      9720      9722      9724
      9720      9722      9725      9723      9722      9724      9723      9722      9725
      9724      9722      9725      9722      9725      9726      9722      9725      9727
      9722      9725      9728      9726      9725      9727      9726      9725      9728
      9727      9725      9728      9725      9728      9729      9725      9728      9730
      9725      9728      9731      9729      9728      9730      9729      9728      9731
      9730      9728      9731      9728      9731      9732      9728      9731      9733
      9728      9731      9734      9732      9731      9733      9732      9731      9734
      9733      9731      9734      9731      9734      9735      9731      9734      9736
      9731      9734      9737      9735      9734      9736      9735      9734      9737
      9736      9734      9737      9734      9737      9738      9734      9737      9739
      9734      9737      9740      9738      9737      9739      9738      9737      9740
      9739      9737      9740      9737      9740      9741      9737      9740      9742
      9737      9740      9743      9741      9740      9742      9741      9740      9743
      9742      9740      9743      9740      9743      9744      9740      9743      9745
      9740      9743      9746      9744      9743      9745      9744      9743      9746
      9745      9743      9746      9748      9747      9751      9748      9747      9755
      9748      9747      9759      9751      9747      9755      9751      9747      9759
      9755      9747      9759      9747      9748      9749      9747      9748      9750
      9747      9748      9763      9749      9748      9750      9749      9748      9763
      9750      9748      9763      9747      9751      9752      9747      9751      9753
      9747      9751      9754      9752      9751      9753      9752      9751      9754
      9753      9751      9754      9747      9755      9756      9747      9755      9757
      9747      9755      9758      9756      9755      9757      9756      9755      9758
      9757      9755      9758      9747      9759      9760      9747      9759      9761
      9747      9759      9762      9760      9759      9761      9760      9759      9762
      9761      9759      9762      9748      9763      9764      9748      9763      9765
      9748      9763      9769      9764      9763      9765      9764      9763      9769
      9765      9763      9769      9767      9766      9768      9767      9766      9769
      9767      9766      9770      9768      9766      9769      9768      9766      9770
      9769      9766      9770      9763      9769      9766      9766      9770      9771
      9770      9771      9772      9770      9771      9773      9770      9771      9774
      9772      9771      9773      9772      9771      9774      9773      9771      9774
      9771      9774      9775      9771      9774      9776      9771      9774      9782
      9775      9774      9776      9775      9774      9782      9776      9774      9782
      9774      9776      9777      9776      9777      9778      9776      9777      9779
      9778      9777      9779      9777      9779      9780      9777      9779      9781
      9777      9779      9791      9780      9779      9781      9780      9779      9791
      9781      9779      9791      9774      9782      9783      9774      9782      9784
      9774      9782      9785      9783      9782      9784      9783      9782      9785
      9784      9782      9785      9782      9785      9786      9785      9786      9787
      9785      9786      9788      9787      9786      9788      9786      9788      9789
      9786      9788      9790      9786      9788      9838      9789      9788      9790
      9789      9788      9838      9790      9788      9838      9779      9791      9792
      9779      9791      9793      9779      9791      9794      9792      9791      9793
      9792      9791      9794      9793      9791      9794      9791      9794      9795
      9791      9794      9796      9791      9794      9797      9795      9794      9796
      9795      9794      9797      9796      9794      9797      9794      9797      9798
      9794      9797      9799      9794      9797      9800      9798      9797      9799
      9798      9797      9800      9799      9797      9800      9797      9800      9801
      9797      9800      9802      9797      9800      9803      9801      9800      9802
      9801      9800      9803      9802      9800      9803      9800      9803      9804
      9800      9803      9805      9800      9803      9806      9804      9803      9805
      9804      9803      9806      9805      9803      9806      9803      9806      9807
      9803      9806      9808      9803      9806      9809      9807      9806      9808
      9807      9806      9809      9808      9806      9809      9806      9809      9810
      9806      9809      9811      9810      9809      9811      9809      9811      9812
      9809      9811      9813      9812      9811      9813      9811      9813      9814
      9811      9813      9815      9811      9813      9816      9814      9813      9815
      9814      9813      9816      9815      9813      9816      9813      9816      9817
      9813      9816      9818      9813      9816      9819      9817      9816      9818
      9817      9816      9819      9818      9816      9819      9816      9819      9820
      9816      9819      9821      9816      9819      9822      9820      9819      9821
      9820      9819      9822      9821      9819      9822      9819      9822      9823
      9819      9822      9824      9819      9822      9825      9823      9822      9824
      9823      9822      9825      9824      9822      9825      9822      9825      9826
      9822      9825      9827      9822      9825      9828      9826      9825      9827
      9826      9825      9828      9827      9825      9828      9825      9828      9829
      9825      9828      9830      9825      9828      9831      9829      9828      9830
      9829      9828      9831      9830      9828      9831      9828      9831      9832
      9828      9831      9833      9828      9831      9834      9832      9831      9833
      9832      9831      9834      9833      9831      9834      9831      9834      9835
      9831      9834      9836      9831      9834      9837      9835      9834      9836
      9835      9834      9837      9836      9834      9837      9788      9838      9839
      9788      9838      9840      9788      9838      9841      9839      9838      9840
      9839      9838      9841      9840      9838      9841      9838      9841      9842
      9838      9841      9843      9838      9841      9844      9842      9841      9843
      9842      9841      9844      9843      9841      9844      9841      9844      9845
      9841      9844      9846      9841      9844      9847      9845      9844      9846
      9845      9844      9847      9846      9844      9847      9844      9847      9848
      9844      9847      9849      9844      9847      9850      9848      9847      9849
      9848      9847      9850      9849      9847      9850      9847      9850      9851
      9847      9850      9852      9847      9850      9853      9851      9850      9852
      9851      9850      9853      9852      9850      9853      9850      9853      9854
      9850      9853      9855      9850      9853      9856      9854      9853      9855
      9854      9853      9856      9855      9853      9856      9853      9856      9857
      9853      9856      9858      9857      9856      9858      9856      9858      9859
      9856      9858      9860      9859      9858      9860      9858      9860      9861
      9858      9860      9862      9858      9860      9863      9861      9860      9862
      9861      9860      9863      9862      9860      9863      9860      9863      9864
      9860      9863      9865      9860      9863      9866      9864      9863      9865
      9864      9863      9866      9865      9863      9866      9863      9866      9867
      9863      9866      9868      9863      9866      9869      9867      9866      9868
      9867      9866      9869      9868      9866      9869      9866      9869      9870
      9866      9869      9871      9866      9869      9872      9870      9869      9871
      9870      9869      9872      9871      9869      9872      9869      9872      9873
      9869      9872      9874      9869      9872      9875      9873      9872      9874
      9873      9872      9875      9874      9872      9875      9872      9875      9876
      9872      9875      9877      9872      9875      9878      9876      9875      9877
      9876      9875      9878      9877      9875      9878      9875      9878      9879
      9875      9878      9880      9875      9878      9881      9879      9878      9880
      9879      9878      9881      9880      9878      9881      9878      9881      9882
      9878      9881      9883      9878      9881      9884      9882      9881      9883
      9882      9881      9884      9883      9881      9884      9886      9885      9889
      9886      9885      9893      9886      9885      9897      9889      9885      9893
      9889      9885      9897      9893      9885      9897      9885      9886      9887
      9885      9886      9888      9885      9886      9901      9887      9886      9888
      9887      9886      9901      9888      9886      9901      9885      9889      9890
      9885      9889      9891      9885      9889      9892      9890      9889      9891
      9890      9889      9892      9891      9889      9892      9885      9893      9894
      9885      9893      9895      9885      9893      9896      9894      9893      9895
      9894      9893      9896      9895      9893      9896      9885      9897      9898
      9885      9897      9899      9885      9897      9900      9898      9897      9899
      9898      9897      9900      9899      9897      9900      9886      9901      9902
      9886      9901      9903      9886      9901      9907      9902      9901      9903
      9902      9901      9907      9903      9901      9907      9905      9904      9906
      9905      9904      9907      9905      9904      9908      9906      9904      9907
      9906      9904      9908      9907      9904      9908      9901      9907      9904
      9904      9908      9909      9908      9909      9910      9908      9909      9911
      9908      9909      9912      9910      9909      9911      9910      9909      9912
      9911      9909      9912      9909      9912      9913      9909      9912      9914
      9909      9912      9920      9913      9912      9914      9913      9912      9920
      9914      9912      9920      9912      9914      9915      9914      9915      9916
      9914      9915      9917      9916      9915      9917      9915      9917      9918
      9915      9917      9919      9915      9917      9929      9918      9917      9919
      9918      9917      9929      9919      9917      9929      9912      9920      9921
      9912      9920      9922      9912      9920      9923      9921      9920      9922
      9921      9920      9923      9922      9920      9923      9920      9923      9924
      9923      9924      9925      9923      9924      9926      9925      9924      9926
      9924      9926      9927      9924      9926      9928      9924      9926      9976
      9927      9926      9928      9927      9926      9976      9928      9926      9976
      9917      9929      9930      9917      9929      9931      9917      9929      9932
      9930      9929      9931      9930      9929      9932      9931      9929      9932
      9929      9932      9933      9929      9932      9934      9929      9932      9935
      9933      9932      9934      9933      9932      9935      9934      9932      9935
      9932      9935      9936      9932      9935      9937      9932      9935      9938
      9936      9935      9937      9936      9935      9938      9937      9935      9938
      9935      9938      9939      9935      9938      9940      9935      9938      9941
      9939      9938      9940      9939      9938      9941      9940      9938      9941
      9938      9941      9942      9938      9941      9943      9938      9941      9944
      9942      9941      9943      9942      9941      9944      9943      9941      9944
      9941      9944      9945      9941      9944      9946      9941      9944      9947
      9945      9944      9946      9945      9944      9947      9946      9944      9947
      9944      9947      9948      9944      9947      9949      9948      9947      9949
      9947      9949      9950      9947      9949      9951      9950      9949      9951
      9949      9951      9952      9949      9951      9953      9949      9951      9954
      9952      9951      9953      9952      9951      9954      9953      9951      9954
      9951      9954      9955      9951      9954      9956      9951      9954      9957
      9955      9954      9956      9955      9954      9957      9956      9954      9957
      9954      9957      9958      9954      9957      9959      9954      9957      9960
      9958      9957      9959      9958      9957      9960      9959      9957      9960
      9957      9960      9961      9957      9960      9962      9957      9960      9963
      9961      9960      9962      9961      9960      9963      9962      9960      9963
      9960      9963      9964      9960      9963      9965      9960      9963      9966
      9964      9963      9965      9964      9963      9966      9965      9963      9966
      9963      9966      9967      9963      9966      9968      9963      9966      9969
      9967      9966      9968      9967      9966      9969      9968      9966      9969
      9966      9969      9970      9966      9969      9971      9966      9969      9972
      9970      9969      9971      9970      9969      9972      9971      9969      9972
      9969      9972      9973      9969      9972      9974      9969      9972      9975
      9973      9972      9974      9973      9972      9975      9974      9972      9975
      9926      9976      9977      9926      9976      9978      9926      9976      9979
      9977      9976      9978      9977      9976      9979      9978      9976      9979
      9976      9979      9980      9976      9979      9981      9976      9979      9982
      9980      9979      9981      9980      9979      9982      9981      9979      9982
      9979      9982      9983      9979      9982      9984      9979      9982      9985
      9983      9982      9984      9983      9982      9985      9984      9982      9985
      9982      9985      9986      9982      9985      9987      9982      9985      9988
      9986      9985      9987      9986      9985      9988      9987      9985      9988
      9985      9988      9989      9985      9988      9990      9985      9988      9991
      9989      9988      9990      9989      9988      9991      9990      9988      9991
      9988      9991      9992      9988      9991      9993      9988      9991      9994
      9992      9991      9993      9992      9991      9994      9993      9991      9994
      9991      9994      9995      9991      9994      9996      9995      9994      9996
      9994      9996      9997      9994      9996      9998      9997      9996      9998
      9996      9998      9999      9996      9998     10000      9996      9998     10001
      9999      9998     10000      9999      9998     10001     10000      9998     10001
      9998     10001     10002      9998     10001     10003      9998     10001     10004
     10002     10001     10003     10002     10001     10004     10003     10001     10004
     10001     10004     10005     10001     10004     10006     10001     10004     10007
     10005     10004     10006     10005     10004     10007     10006     10004     10007
     10004     10007     10008     10004     10007     10009     10004     10007     10010
     10008     10007     10009     10008     10007     10010     10009     10007     10010
     10007     10010     10011     10007     10010     10012     10007     10010     10013
     10011     10010     10012     10011     10010     10013     10012     10010     10013
     10010     10013     10014     10010     10013     10015     10010     10013     10016
     10014     10013     10015     10014     10013     10016     10015     10013     10016
     10013     10016     10017     10013     10016     10018     10013     10016     10019
     10017     10016     10018     10017     10016     10019     10018     10016     10019
     10016     10019     10020     10016     10019     10021     10016     10019     10022
     10020     10019     10021     10020     10019     10022     10021     10019     10022
     10024     10023     10027     10024     10023     10031     10024     10023     10035
     10027     10023     10031     10027     10023     10035     10031     10023     10035
     10023     10024     10025     10023     10024     10026     10023     10024     10039
     10025     10024     10026     10025     10024     10039     10026     10024     10039
     10023     10027     10028     10023     10027     10029     10023     10027     10030
     10028     10027     10029     10028     10027     10030     10029     10027     10030
     10023     10031     10032     10023     10031     10033     10023     10031     10034
     10032     10031     10033     10032     10031     10034     10033     10031     10034
     10023     10035     10036     10023     10035     10037     10023     10035     10038
     10036     10035     10037     10036     10035     10038     10037     10035     10038
     10024     10039     10040     10024     10039     10041     10024     10039     10045
     10040     10039     10041     10040     10039     10045     10041     10039     10045
     10043     10042     10044     10043     10042     10045     10043     10042     10046
     10044     10042     10045     10044     10042     10046     10045     10042     10046
     10039     10045     10042     10042     10046     10047     10046     10047     10048
     10046     10047     10049     10046     10047     10050     10048     10047     10049
     10048     10047     10050     10049     10047     10050     10047     10050     10051
     10047     10050     10052     10047     10050     10058     10051     10050     10052
     10051     10050     10058     10052     10050     10058     10050     10052     10053
     10052     10053     10054     10052     10053     10055     10054     10053     10055
     10053     10055     10056     10053     10055     10057     10053     10055     10067
     10056     10055     10057     10056     10055     10067     10057     10055     10067
     10050     10058     10059     10050     10058     10060     10050     10058     10061
     10059     10058     10060     10059     10058     10061     10060     10058     10061
     10058     10061     10062     10061     10062     10063     10061     10062     10064
     10063     10062     10064     10062     10064     10065     10062     10064     10066
     10062     10064     10114     10065     10064     10066     10065     10064     10114
     10066     10064     10114     10055     10067     10068     10055     10067     10069
     10055     10067     10070     10068     10067     10069     10068     10067     10070
     10069     10067     10070     10067     10070     10071     10067     10070     10072
     10067     10070     10073     10071     10070     10072     10071     10070     10073
     10072     10070     10073     10070     10073     10074     10070     10073     10075
     10070     10073     10076     10074     10073     10075     10074     10073     10076
     10075     10073     10076     10073     10076     10077     10073     10076     10078
     10073     10076     10079     10077     10076     10078     10077     10076     10079
     10078     10076     10079     10076     10079     10080     10076     10079     10081
     10076     10079     10082     10080     10079     10081     10080     10079     10082
     10081     10079     10082     10079     10082     10083     10079     10082     10084
     10079     10082     10085     10083     10082     10084     10083     10082     10085
     10084     10082     10085     10082     10085     10086     10082     10085     10087
     10086     10085     10087     10085     10087     10088     10085     10087     10089
     10088     10087     10089     10087     10089     10090     10087     10089     10091
     10087     10089     10092     10090     10089     10091     10090     10089     10092
     10091     10089     10092     10089     10092     10093     10089     10092     10094
     10089     10092     10095     10093     10092     10094     10093     10092     10095
     10094     10092     10095     10092     10095     10096     10092     10095     10097
     10092     10095     10098     10096     10095     10097     10096     10095     10098
     10097     10095     10098     10095     10098     10099     10095     10098     10100
     10095     10098     10101     10099     10098     10100     10099     10098     10101
     10100     10098     10101     10098     10101     10102     10098     10101     10103
     10098     10101     10104     10102     10101     10103     10102     10101     10104
     10103     10101     10104     10101     10104     10105     10101     10104     10106
     10101     10104     10107     10105     10104     10106     10105     10104     10107
     10106     10104     10107     10104     10107     10108     10104     10107     10109
     10104     10107     10110     10108     10107     10109     10108     10107     10110
     10109     10107     10110     10107     10110     10111     10107     10110     10112
     10107     10110     10113     10111     10110     10112     10111     10110     10113
     10112     10110     10113     10064     10114     10115     10064     10114     10116
     10064     10114     10117     10115     10114     10116     10115     10114     10117
     10116     10114     10117     10114     10117     10118     10114     10117     10119
     10114     10117     10120     10118     10117     10119     10118     10117     10120
     10119     10117     10120     10117     10120     10121     10117     10120     10122
     10117     10120     10123     10121     10120     10122     10121     10120     10123
     10122     10120     10123     10120     10123     10124     10120     10123     10125
     10120     10123     10126     10124     10123     10125     10124     10123     10126
     10125     10123     10126     10123     10126     10127     10123     10126     10128
     10123     10126     10129     10127     10126     10128     10127     10126     10129
     10128     10126     10129     10126     10129     10130     10126     10129     10131
     10126     10129     10132     10130     10129     10131     10130     10129     10132
     10131     10129     10132     10129     10132     10133     10129     10132     10134
     10133     10132     10134     10132     10134     10135     10132     10134     10136
     10135     10134     10136     10134     10136     10137     10134     10136     10138
     10134     10136     10139     10137     10136     10138     10137     10136     10139
     10138     10136     10139     10136     10139     10140     10136     10139     10141
     10136     10139     10142     10140     10139     10141     10140     10139     10142
     10141     10139     10142     10139     10142     10143     10139     10142     10144
     10139     10142     10145     10143     10142     10144     10143     10142     10145
     10144     10142     10145     10142     10145     10146     10142     10145     10147
     10142     10145     10148     10146     10145     10147     10146     10145     10148
     10147     10145     10148     10145     10148     10149     10145     10148     10150
     10145     10148     10151     10149     10148     10150     10149     10148     10151
     10150     10148     10151     10148     10151     10152     10148     10151     10153
     10148     10151     10154     10152     10151     10153     10152     10151     10154
     10153     10151     10154     10151     10154     10155     10151     10154     10156
     10151     10154     10157     10155     10154     10156     10155     10154     10157
     10156     10154     10157     10154     10157     10158     10154     10157     10159
     10154     10157     10160     10158     10157     10159     10158     10157     10160
     10159     10157     10160     10162     10161     10165     10162     10161     10169
     10162     10161     10173     10165     10161     10169     10165     10161     10173
     10169     10161     10173     10161     10162     10163     10161     10162     10164
     10161     10162     10177     10163     10162     10164     10163     10162     10177
     10164     10162     10177     10161     10165     10166     10161     10165     10167
     10161     10165     10168     10166     10165     10167     10166     10165     10168
     10167     10165     10168     10161     10169     10170     10161     10169     10171
     10161     10169     10172     10170     10169     10171     10170     10169     10172
     10171     10169     10172     10161     10173     10174     10161     10173     10175
     10161     10173     10176     10174     10173     10175     10174     10173     10176
     10175     10173     10176     10162     10177     10178     10162     10177     10179
     10162     10177     10183     10178     10177     10179     10178     10177     10183
     10179     10177     10183     10181     10180     10182     10181     10180     10183
     10181     10180     10184     10182     10180     10183     10182     10180     10184
     10183     10180     10184     10177     10183     10180     10180     10184     10185
     10184     10185     10186     10184     10185     10187     10184     10185     10188
     10186     10185     10187     10186     10185     10188     10187     10185     10188
     10185     10188     10189     10185     10188     10190     10185     10188     10196
     10189     10188     10190     10189     10188     10196     10190     10188     10196
     10188     10190     10191     10190     10191     10192     10190     10191     10193
     10192     10191     10193     10191     10193     10194     10191     10193     10195
     10191     10193     10205     10194     10193     10195     10194     10193     10205
     10195     10193     10205     10188     10196     10197     10188     10196     10198
     10188     10196     10199     10197     10196     10198     10197     10196     10199
     10198     10196     10199     10196     10199     10200     10199     10200     10201
     10199     10200     10202     10201     10200     10202     10200     10202     10203
     10200     10202     10204     10200     10202     10252     10203     10202     10204
     10203     10202     10252     10204     10202     10252     10193     10205     10206
     10193     10205     10207     10193     10205     10208     10206     10205     10207
     10206     10205     10208     10207     10205     10208     10205     10208     10209
     10205     10208     10210     10205     10208     10211     10209     10208     10210
     10209     10208     10211     10210     10208     10211     10208     10211     10212
     10208     10211     10213     10208     10211     10214     10212     10211     10213
     10212     10211     10214     10213     10211     10214     10211     10214     10215
     10211     10214     10216     10211     10214     10217     10215     10214     10216
     10215     10214     10217     10216     10214     10217     10214     10217     10218
     10214     10217     10219     10214     10217     10220     10218     10217     10219
     10218     10217     10220     10219     10217     10220     10217     10220     10221
     10217     10220     10222     10217     10220     10223     10221     10220     10222
     10221     10220     10223     10222     10220     10223     10220     10223     10224
     10220     10223     10225     10224     10223     10225     10223     10225     10226
     10223     10225     10227     10226     10225     10227     10225     10227     10228
     10225     10227     10229     10225     10227     10230     10228     10227     10229
     10228     10227     10230     10229     10227     10230     10227     10230     10231
     10227     10230     10232     10227     10230     10233     10231     10230     10232
     10231     10230     10233     10232     10230     10233     10230     10233     10234
     10230     10233     10235     10230     10233     10236     10234     10233     10235
     10234     10233     10236     10235     10233     10236     10233     10236     10237
     10233     10236     10238     10233     10236     10239     10237     10236     10238
     10237     10236     10239     10238     10236     10239     10236     10239     10240
     10236     10239     10241     10236     10239     10242     10240     10239     10241
     10240     10239     10242     10241     10239     10242     10239     10242     10243
     10239     10242     10244     10239     10242     10245     10243     10242     10244
     10243     10242     10245     10244     10242     10245     10242     10245     10246
     10242     10245     10247     10242     10245     10248     10246     10245     10247
     10246     10245     10248     10247     10245     10248     10245     10248     10249
     10245     10248     10250     10245     10248     10251     10249     10248     10250
     10249     10248     10251     10250     10248     10251     10202     10252     10253
     10202     10252     10254     10202     10252     10255     10253     10252     10254
     10253     10252     10255     10254     10252     10255     10252     10255     10256
     10252     10255     10257     10252     10255     10258     10256     10255     10257
     10256     10255     10258     10257     10255     10258     10255     10258     10259
     10255     10258     10260     10255     10258     10261     10259     10258     10260
     10259     10258     10261     10260     10258     10261     10258     10261     10262
     10258     10261     10263     10258     10261     10264     10262     10261     10263
     10262     10261     10264     10263     10261     10264     10261     10264     10265
     10261     10264     10266     10261     10264     10267     10265     10264     10266
     10265     10264     10267     10266     10264     10267     10264     10267     10268
     10264     10267     10269     10264     10267     10270     10268     10267     10269
     10268     10267     10270     10269     10267     10270     10267     10270     10271
     10267     10270     10272     10271     10270     10272     10270     10272     10273
     10270     10272     10274     10273     10272     10274     10272     10274     10275
     10272     10274     10276     10272     10274     10277     10275     10274     10276
     10275     10274     10277     10276     10274     10277     10274     10277     10278
     10274     10277     10279     10274     10277     10280     10278     10277     10279
     10278     10277     10280     10279     10277     10280     10277     10280     10281
     10277     10280     10282     10277     10280     10283     10281     10280     10282
     10281     10280     10283     10282     10280     10283     10280     10283     10284
     10280     10283     10285     10280     10283     10286     10284     10283     10285
     10284     10283     10286     10285     10283     10286     10283     10286     10287
     10283     10286     10288     10283     10286     10289     10287     10286     10288
     10287     10286     10289     10288     10286     10289     10286     10289     10290
     10286     10289     10291     10286     10289     10292     10290     10289     10291
     10290     10289     10292     10291     10289     10292     10289     10292     10293
     10289     10292     10294     10289     10292     10295     10293     10292     10294
     10293     10292     10295     10294     10292     10295     10292     10295     10296
     10292     10295     10297     10292     10295     10298     10296     10295     10297
     10296     10295     10298     10297     10295     10298     10300     10299     10303
     10300     10299     10307     10300     10299     10311     10303     10299     10307
     10303     10299     10311     10307     10299     10311     10299     10300     10301
     10299     10300     10302     10299     10300     10315     10301     10300     10302
     10301     10300     10315     10302     10300     10315     10299     10303     10304
     10299     10303     10305     10299     10303     10306     10304     10303     10305
     10304     10303     10306     10305     10303     10306     10299     10307     10308
     10299     10307     10309     10299     10307     10310     10308     10307     10309
     10308     10307     10310     10309     10307     10310     10299     10311     10312
     10299     10311     10313     10299     10311     10314     10312     10311     10313
     10312     10311     10314     10313     10311     10314     10300     10315     10316
     10300     10315     10317     10300     10315     10321     10316     10315     10317
     10316     10315     10321     10317     10315     10321     10319     10318     10320
     10319     10318     10321     10319     10318     10322     10320     10318     10321
     10320     10318     10322     10321     10318     10322     10315     10321     10318
     10318     10322     10323     10322     10323     10324     10322     10323     10325
     10322     10323     10326     10324     10323     10325     10324     10323     10326
     10325     10323     10326     10323     10326     10327     10323     10326     10328
     10323     10326     10334     10327     10326     10328     10327     10326     10334
     10328     10326     10334     10326     10328     10329     10328     10329     10330
     10328     10329     10331     10330     10329     10331     10329     10331     10332
     10329     10331     10333     10329     10331     10343     10332     10331     10333
     10332     10331     10343     10333     10331     10343     10326     10334     10335
     10326     10334     10336     10326     10334     10337     10335     10334     10336
     10335     10334     10337     10336     10334     10337     10334     10337     10338
     10337     10338     10339     10337     10338     10340     10339     10338     10340
     10338     10340     10341     10338     10340     10342     10338     10340     10390
     10341     10340     10342     10341     10340     10390     10342     10340     10390
     10331     10343     10344     10331     10343     10345     10331     10343     10346
     10344     10343     10345     10344     10343     10346     10345     10343     10346
     10343     10346     10347     10343     10346     10348     10343     10346     10349
     10347     10346     10348     10347     10346     10349     10348     10346     10349
     10346     10349     10350     10346     10349     10351     10346     10349     10352
     10350     10349     10351     10350     10349     10352     10351     10349     10352
     10349     10352     10353     10349     10352     10354     10349     10352     10355
     10353     10352     10354     10353     10352     10355     10354     10352     10355
     10352     10355     10356     10352     10355     10357     10352     10355     10358
     10356     10355     10357     10356     10355     10358     10357     10355     10358
     10355     10358     10359     10355     10358     10360     10355     10358     10361
     10359     10358     10360     10359     10358     10361     10360     10358     10361
     10358     10361     10362     10358     10361     10363     10362     10361     10363
     10361     10363     10364     10361     10363     10365     10364     10363     10365
     10363     10365     10366     10363     10365     10367     10363     10365     10368
     10366     10365     10367     10366     10365     10368     10367     10365     10368
     10365     10368     10369     10365     10368     10370     10365     10368     10371
     10369     10368     10370     10369     10368     10371     10370     10368     10371
     10368     10371     10372     10368     10371     10373     10368     10371     10374
     10372     10371     10373     10372     10371     10374     10373     10371     10374
     10371     10374     10375     10371     10374     10376     10371     10374     10377
     10375     10374     10376     10375     10374     10377     10376     10374     10377
     10374     10377     10378     10374     10377     10379     10374     10377     10380
     10378     10377     10379     10378     10377     10380     10379     10377     10380
     10377     10380     10381     10377     10380     10382     10377     10380     10383
     10381     10380     10382     10381     10380     10383     10382     10380     10383
     10380     10383     10384     10380     10383     10385     10380     10383     10386
     10384     10383     10385     10384     10383     10386     10385     10383     10386
     10383     10386     10387     10383     10386     10388     10383     10386     10389
     10387     10386     10388     10387     10386     10389     10388     10386     10389
     10340     10390     10391     10340     10390     10392     10340     10390     10393
     10391     10390     10392     10391     10390     10393     10392     10390     10393
     10390     10393     10394     10390     10393     10395     10390     10393     10396
     10394     10393     10395     10394     10393     10396     10395     10393     10396
     10393     10396     10397     10393     10396     10398     10393     10396     10399
     10397     10396     10398     10397     10396     10399     10398     10396     10399
     10396     10399     10400     10396     10399     10401     10396     10399     10402
     10400     10399     10401     10400     10399     10402     10401     10399     10402
     10399     10402     10403     10399     10402     10404     10399     10402     10405
     10403     10402     10404     10403     10402     10405     10404     10402     10405
     10402     10405     10406     10402     10405     10407     10402     10405     10408
     10406     10405     10407     10406     10405     10408     10407     10405     10408
     10405     10408     10409     10405     10408     10410     10409     10408     10410
     10408     10410     10411     10408     10410     10412     10411     10410     10412
     10410     10412     10413     10410     10412     10414     10410     10412     10415
     10413     10412     10414     10413     10412     10415     10414     10412     10415
     10412     10415     10416     10412     10415     10417     10412     10415     10418
     10416     10415     10417     10416     10415     10418     10417     10415     10418
     10415     10418     10419     10415     10418     10420     10415     10418     10421
     10419     10418     10420     10419     10418     10421     10420     10418     10421
     10418     10421     10422     10418     10421     10423     10418     10421     10424
     10422     10421     10423     10422     10421     10424     10423     10421     10424
     10421     10424     10425     10421     10424     10426     10421     10424     10427
     10425     10424     10426     10425     10424     10427     10426     10424     10427
     10424     10427     10428     10424     10427     10429     10424     10427     10430
     10428     10427     10429     10428     10427     10430     10429     10427     10430
     10427     10430     10431     10427     10430     10432     10427     10430     10433
     10431     10430     10432     10431     10430     10433     10432     10430     10433
     10430     10433     10434     10430     10433     10435     10430     10433     10436
     10434     10433     10435     10434     10433     10436     10435     10433     10436
     10438     10437     10441     10438     10437     10445     10438     10437     10449
     10441     10437     10445     10441     10437     10449     10445     10437     10449
     10437     10438     10439     10437     10438     10440     10437     10438     10453
     10439     10438     10440     10439     10438     10453     10440     10438     10453
     10437     10441     10442     10437     10441     10443     10437     10441     10444
     10442     10441     10443     10442     10441     10444     10443     10441     10444
     10437     10445     10446     10437     10445     10447     10437     10445     10448
     10446     10445     10447     10446     10445     10448     10447     10445     10448
     10437     10449     10450     10437     10449     10451     10437     10449     10452
     10450     10449     10451     10450     10449     10452     10451     10449     10452
     10438     10453     10454     10438     10453     10455     10438     10453     10459
     10454     10453     10455     10454     10453     10459     10455     10453     10459
     10457     10456     10458     10457     10456     10459     10457     10456     10460
     10458     10456     10459     10458     10456     10460     10459     10456     10460
     10453     10459     10456     10456     10460     10461     10460     10461     10462
     10460     10461     10463     10460     10461     10464     10462     10461     10463
     10462     10461     10464     10463     10461     10464     10461     10464     10465
     10461     10464     10466     10461     10464     10472     10465     10464     10466
     10465     10464     10472     10466     10464     10472     10464     10466     10467
     10466     10467     10468     10466     10467     10469     10468     10467     10469
     10467     10469     10470     10467     10469     10471     10467     10469     10481
     10470     10469     10471     10470     10469     10481     10471     10469     10481
     10464     10472     10473     10464     10472     10474     10464     10472     10475
     10473     10472     10474     10473     10472     10475     10474     10472     10475
     10472     10475     10476     10475     10476     10477     10475     10476     10478
     10477     10476     10478     10476     10478     10479     10476     10478     10480
     10476     10478     10528     10479     10478     10480     10479     10478     10528
     10480     10478     10528     10469     10481     10482     10469     10481     10483
     10469     10481     10484     10482     10481     10483     10482     10481     10484
     10483     10481     10484     10481     10484     10485     10481     10484     10486
     10481     10484     10487     10485     10484     10486     10485     10484     10487
     10486     10484     10487     10484     10487     10488     10484     10487     10489
     10484     10487     10490     10488     10487     10489     10488     10487     10490
     10489     10487     10490     10487     10490     10491     10487     10490     10492
     10487     10490     10493     10491     10490     10492     10491     10490     10493
     10492     10490     10493     10490     10493     10494     10490     10493     10495
     10490     10493     10496     10494     10493     10495     10494     10493     10496
     10495     10493     10496     10493     10496     10497     10493     10496     10498
     10493     10496     10499     10497     10496     10498     10497     10496     10499
     10498     10496     10499     10496     10499     10500     10496     10499     10501
     10500     10499     10501     10499     10501     10502     10499     10501     10503
     10502     10501     10503     10501     10503     10504     10501     10503     10505
     10501     10503     10506     10504     10503     10505     10504     10503     10506
     10505     10503     10506     10503     10506     10507     10503     10506     10508
     10503     10506     10509     10507     10506     10508     10507     10506     10509
     10508     10506     10509     10506     10509     10510     10506     10509     10511
     10506     10509     10512     10510     10509     10511     10510     10509     10512
     10511     10509     10512     10509     10512     10513     10509     10512     10514
     10509     10512     10515     10513     10512     10514     10513     10512     10515
     10514     10512     10515     10512     10515     10516     10512     10515     10517
     10512     10515     10518     10516     10515     10517     10516     10515     10518
     10517     10515     10518     10515     10518     10519     10515     10518     10520
     10515     10518     10521     10519     10518     10520     10519     10518     10521
     10520     10518     10521     10518     10521     10522     10518     10521     10523
     10518     10521     10524     10522     10521     10523     10522     10521     10524
     10523     10521     10524     10521     10524     10525     10521     10524     10526
     10521     10524     10527     10525     10524     10526     10525     10524     10527
     10526     10524     10527     10478     10528     10529     10478     10528     10530
     10478     10528     10531     10529     10528     10530     10529     10528     10531
     10530     10528     10531     10528     10531     10532     10528     10531     10533
     10528     10531     10534     10532     10531     10533     10532     10531     10534
     10533     10531     10534     10531     10534     10535     10531     10534     10536
     10531     10534     10537     10535     10534     10536     10535     10534     10537
     10536     10534     10537     10534     10537     10538     10534     10537     10539
     10534     10537     10540     10538     10537     10539     10538     10537     10540
     10539     10537     10540     10537     10540     10541     10537     10540     10542
     10537     10540     10543     10541     10540     10542     10541     10540     10543
     10542     10540     10543     10540     10543     10544     10540     10543     10545
     10540     10543     10546     10544     10543     10545     10544     10543     10546
     10545     10543     10546     10543     10546     10547     10543     10546     10548
     10547     10546     10548     10546     10548     10549     10546     10548     10550
     10549     10548     10550     10548     10550     10551     10548     10550     10552
     10548     10550     10553     10551     10550     10552     10551     10550     10553
     10552     10550     10553     10550     10553     10554     10550     10553     10555
     10550     10553     10556     10554     10553     10555     10554     10553     10556
     10555     10553     10556     10553     10556     10557     10553     10556     10558
     10553     10556     10559     10557     10556     10558     10557     10556     10559
     10558     10556     10559     10556     10559     10560     10556     10559     10561
     10556     10559     10562     10560     10559     10561     10560     10559     10562
     10561     10559     10562     10559     10562     10563     10559     10562     10564
     10559     10562     10565     10563     10562     10564     10563     10562     10565
     10564     10562     10565     10562     10565     10566     10562     10565     10567
     10562     10565     10568     10566     10565     10567     10566     10565     10568
     10567     10565     10568     10565     10568     10569     10565     10568     10570
     10565     10568     10571     10569     10568     10570     10569     10568     10571
     10570     10568     10571     10568     10571     10572     10568     10571     10573
     10568     10571     10574     10572     10571     10573     10572     10571     10574
     10573     10571     10574     10576     10575     10579     10576     10575     10583
     10576     10575     10587     10579     10575     10583     10579     10575     10587
     10583     10575     10587     10575     10576     10577     10575     10576     10578
     10575     10576     10591     10577     10576     10578     10577     10576     10591
     10578     10576     10591     10575     10579     10580     10575     10579     10581
     10575     10579     10582     10580     10579     10581     10580     10579     10582
     10581     10579     10582     10575     10583     10584     10575     10583     10585
     10575     10583     10586     10584     10583     10585     10584     10583     10586
     10585     10583     10586     10575     10587     10588     10575     10587     10589
     10575     10587     10590     10588     10587     10589     10588     10587     10590
     10589     10587     10590     10576     10591     10592     10576     10591     10593
     10576     10591     10597     10592     10591     10593     10592     10591     10597
     10593     10591     10597     10595     10594     10596     10595     10594     10597
     10595     10594     10598     10596     10594     10597     10596     10594     10598
     10597     10594     10598     10591     10597     10594     10594     10598     10599
     10598     10599     10600     10598     10599     10601     10598     10599     10602
     10600     10599     10601     10600     10599     10602     10601     10599     10602
     10599     10602     10603     10599     10602     10604     10599     10602     10610
     10603     10602     10604     10603     10602     10610     10604     10602     10610
     10602     10604     10605     10604     10605     10606     10604     10605     10607
     10606     10605     10607     10605     10607     10608     10605     10607     10609
     10605     10607     10619     10608     10607     10609     10608     10607     10619
     10609     10607     10619     10602     10610     10611     10602     10610     10612
     10602     10610     10613     10611     10610     10612     10611     10610     10613
     10612     10610     10613     10610     10613     10614     10613     10614     10615
     10613     10614     10616     10615     10614     10616     10614     10616     10617
     10614     10616     10618     10614     10616     10666     10617     10616     10618
     10617     10616     10666     10618     10616     10666     10607     10619     10620
     10607     10619     10621     10607     10619     10622     10620     10619     10621
     10620     10619     10622     10621     10619     10622     10619     10622     10623
     10619     10622     10624     10619     10622     10625     10623     10622     10624
     10623     10622     10625     10624     10622     10625     10622     10625     10626
     10622     10625     10627     10622     10625     10628     10626     10625     10627
     10626     10625     10628     10627     10625     10628     10625     10628     10629
     10625     10628     10630     10625     10628     10631     10629     10628     10630
     10629     10628     10631     10630     10628     10631     10628     10631     10632
     10628     10631     10633     10628     10631     10634     10632     10631     10633
     10632     10631     10634     10633     10631     10634     10631     10634     10635
     10631     10634     10636     10631     10634     10637     10635     10634     10636
     10635     10634     10637     10636     10634     10637     10634     10637     10638
     10634     10637     10639     10638     10637     10639     10637     10639     10640
     10637     10639     10641     10640     10639     10641     10639     10641     10642
     10639     10641     10643     10639     10641     10644     10642     10641     10643
     10642     10641     10644     10643     10641     10644     10641     10644     10645
     10641     10644     10646     10641     10644     10647     10645     10644     10646
     10645     10644     10647     10646     10644     10647     10644     10647     10648
     10644     10647     10649     10644     10647     10650     10648     10647     10649
     10648     10647     10650     10649     10647     10650     10647     10650     10651
     10647     10650     10652     10647     10650     10653     10651     10650     10652
     10651     10650     10653     10652     10650     10653     10650     10653     10654
     10650     10653     10655     10650     10653     10656     10654     10653     10655
     10654     10653     10656     10655     10653     10656     10653     10656     10657
     10653     10656     10658     10653     10656     10659     10657     10656     10658
     10657     10656     10659     10658     10656     10659     10656     10659     10660
     10656     10659     10661     10656     10659     10662     10660     10659     10661
     10660     10659     10662     10661     10659     10662     10659     10662     10663
     10659     10662     10664     10659     10662     10665     10663     10662     10664
     10663     10662     10665     10664     10662     10665     10616     10666     10667
     10616     10666     10668     10616     10666     10669     10667     10666     10668
     10667     10666     10669     10668     10666     10669     10666     10669     10670
     10666     10669     10671     10666     10669     10672     10670     10669     10671
     10670     10669     10672     10671     10669     10672     10669     10672     10673
     10669     10672     10674     10669     10672     10675     10673     10672     10674
     10673     10672     10675     10674     10672     10675     10672     10675     10676
     10672     10675     10677     10672     10675     10678     10676     10675     10677
     10676     10675     10678     10677     10675     10678     10675     10678     10679
     10675     10678     10680     10675     10678     10681     10679     10678     10680
     10679     10678     10681     10680     10678     10681     10678     10681     10682
     10678     10681     10683     10678     10681     10684     10682     10681     10683
     10682     10681     10684     10683     10681     10684     10681     10684     10685
     10681     10684     10686     10685     10684     10686     10684     10686     10687
     10684     10686     10688     10687     10686     10688     10686     10688     10689
     10686     10688     10690     10686     10688     10691     10689     10688     10690
     10689     10688     10691     10690     10688     10691     10688     10691     10692
     10688     10691     10693     10688     10691     10694     10692     10691     10693
     10692     10691     10694     10693     10691     10694     10691     10694     10695
     10691     10694     10696     10691     10694     10697     10695     10694     10696
     10695     10694     10697     10696     10694     10697     10694     10697     10698
     10694     10697     10699     10694     10697     10700     10698     10697     10699
     10698     10697     10700     10699     10697     10700     10697     10700     10701
     10697     10700     10702     10697     10700     10703     10701     10700     10702
     10701     10700     10703     10702     10700     10703     10700     10703     10704
     10700     10703     10705     10700     10703     10706     10704     10703     10705
     10704     10703     10706     10705     10703     10706     10703     10706     10707
     10703     10706     10708     10703     10706     10709     10707     10706     10708
     10707     10706     10709     10708     10706     10709     10706     10709     10710
     10706     10709     10711     10706     10709     10712     10710     10709     10711
     10710     10709     10712     10711     10709     10712     10714     10713     10717
     10714     10713     10721     10714     10713     10725     10717     10713     10721
     10717     10713     10725     10721     10713     10725     10713     10714     10715
     10713     10714     10716     10713     10714     10729     10715     10714     10716
     10715     10714     10729     10716     10714     10729     10713     10717     10718
     10713     10717     10719     10713     10717     10720     10718     10717     10719
     10718     10717     10720     10719     10717     10720     10713     10721     10722
     10713     10721     10723     10713     10721     10724     10722     10721     10723
     10722     10721     10724     10723     10721     10724     10713     10725     10726
     10713     10725     10727     10713     10725     10728     10726     10725     10727
     10726     10725     10728     10727     10725     10728     10714     10729     10730
     10714     10729     10731     10714     10729     10735     10730     10729     10731
     10730     10729     10735     10731     10729     10735     10733     10732     10734
     10733     10732     10735     10733     10732     10736     10734     10732     10735
     10734     10732     10736     10735     10732     10736     10729     10735     10732
     10732     10736     10737     10736     10737     10738     10736     10737     10739
     10736     10737     10740     10738     10737     10739     10738     10737     10740
     10739     10737     10740     10737     10740     10741     10737     10740     10742
     10737     10740     10748     10741     10740     10742     10741     10740     10748
     10742     10740     10748     10740     10742     10743     10742     10743     10744
     10742     10743     10745     10744     10743     10745     10743     10745     10746
     10743     10745     10747     10743     10745     10757     10746     10745     10747
     10746     10745     10757     10747     10745     10757     10740     10748     10749
     10740     10748     10750     10740     10748     10751     10749     10748     10750
     10749     10748     10751     10750     10748     10751     10748     10751     10752
     10751     10752     10753     10751     10752     10754     10753     10752     10754
     10752     10754     10755     10752     10754     10756     10752     10754     10804
     10755     10754     10756     10755     10754     10804     10756     10754     10804
     10745     10757     10758     10745     10757     10759     10745     10757     10760
     10758     10757     10759     10758     10757     10760     10759     10757     10760
     10757     10760     10761     10757     10760     10762     10757     10760     10763
     10761     10760     10762     10761     10760     10763     10762     10760     10763
     10760     10763     10764     10760     10763     10765     10760     10763     10766
     10764     10763     10765     10764     10763     10766     10765     10763     10766
     10763     10766     10767     10763     10766     10768     10763     10766     10769
     10767     10766     10768     10767     10766     10769     10768     10766     10769
     10766     10769     10770     10766     10769     10771     10766     10769     10772
     10770     10769     10771     10770     10769     10772     10771     10769     10772
     10769     10772     10773     10769     10772     10774     10769     10772     10775
     10773     10772     10774     10773     10772     10775     10774     10772     10775
     10772     10775     10776     10772     10775     10777     10776     10775     10777
     10775     10777     10778     10775     10777     10779     10778     10777     10779
     10777     10779     10780     10777     10779     10781     10777     10779     10782
     10780     10779     10781     10780     10779     10782     10781     10779     10782
     10779     10782     10783     10779     10782     10784     10779     10782     10785
     10783     10782     10784     10783     10782     10785     10784     10782     10785
     10782     10785     10786     10782     10785     10787     10782     10785     10788
     10786     10785     10787     10786     10785     10788     10787     10785     10788
     10785     10788     10789     10785     10788     10790     10785     10788     10791
     10789     10788     10790     10789     10788     10791     10790     10788     10791
     10788     10791     10792     10788     10791     10793     10788     10791     10794
     10792     10791     10793     10792     10791     10794     10793     10791     10794
     10791     10794     10795     10791     10794     10796     10791     10794     10797
     10795     10794     10796     10795     10794     10797     10796     10794     10797
     10794     10797     10798     10794     10797     10799     10794     10797     10800
     10798     10797     10799     10798     10797     10800     10799     10797     10800
     10797     10800     10801     10797     10800     10802     10797     10800     10803
     10801     10800     10802     10801     10800     10803     10802     10800     10803
     10754     10804     10805     10754     10804     10806     10754     10804     10807
     10805     10804     10806     10805     10804     10807     10806     10804     10807
     10804     10807     10808     10804     10807     10809     10804     10807     10810
     10808     10807     10809     10808     10807     10810     10809     10807     10810
     10807     10810     10811     10807     10810     10812     10807     10810     10813
     10811     10810     10812     10811     10810     10813     10812     10810     10813
     10810     10813     10814     10810     10813     10815     10810     10813     10816
     10814     10813     10815     10814     10813     10816     10815     10813     10816
     10813     10816     10817     10813     10816     10818     10813     10816     10819
     10817     10816     10818     10817     10816     10819     10818     10816     10819
     10816     10819     10820     10816     10819     10821     10816     10819     10822
     10820     10819     10821     10820     10819     10822     10821     10819     10822
     10819     10822     10823     10819     10822     10824     10823     10822     10824
     10822     10824     10825     10822     10824     10826     10825     10824     10826
     10824     10826     10827     10824     10826     10828     10824     10826     10829
     10827     10826     10828     10827     10826     10829     10828     10826     10829
     10826     10829     10830     10826     10829     10831     10826     10829     10832
     10830     10829     10831     10830     10829     10832     10831     10829     10832
     10829     10832     10833     10829     10832     10834     10829     10832     10835
     10833     10832     10834     10833     10832     10835     10834     10832     10835
     10832     10835     10836     10832     10835     10837     10832     10835     10838
     10836     10835     10837     10836     10835     10838     10837     10835     10838
     10835     10838     10839     10835     10838     10840     10835     10838     10841
     10839     10838     10840     10839     10838     10841     10840     10838     10841
     10838     10841     10842     10838     10841     10843     10838     10841     10844
     10842     10841     10843     10842     10841     10844     10843     10841     10844
     10841     10844     10845     10841     10844     10846     10841     10844     10847
     10845     10844     10846     10845     10844     10847     10846     10844     10847
     10844     10847     10848     10844     10847     10849     10844     10847     10850
     10848     10847     10849     10848     10847     10850     10849     10847     10850
     10852     10851     10855     10852     10851     10859     10852     10851     10863
     10855     10851     10859     10855     10851     10863     10859     10851     10863
     10851     10852     10853     10851     10852     10854     10851     10852     10867
     10853     10852     10854     10853     10852     10867     10854     10852     10867
     10851     10855     10856     10851     10855     10857     10851     10855     10858
     10856     10855     10857     10856     10855     10858     10857     10855     10858
     10851     10859     10860     10851     10859     10861     10851     10859     10862
     10860     10859     10861     10860     10859     10862     10861     10859     10862
     10851     10863     10864     10851     10863     10865     10851     10863     10866
     10864     10863     10865     10864     10863     10866     10865     10863     10866
     10852     10867     10868     10852     10867     10869     10852     10867     10873
     10868     10867     10869     10868     10867     10873     10869     10867     10873
     10871     10870     10872     10871     10870     10873     10871     10870     10874
     10872     10870     10873     10872     10870     10874     10873     10870     10874
     10867     10873     10870     10870     10874     10875     10874     10875     10876
     10874     10875     10877     10874     10875     10878     10876     10875     10877
     10876     10875     10878     10877     10875     10878     10875     10878     10879
     10875     10878     10880     10875     10878     10886     10879     10878     10880
     10879     10878     10886     10880     10878     10886     10878     10880     10881
     10880     10881     10882     10880     10881     10883     10882     10881     10883
     10881     10883     10884     10881     10883     10885     10881     10883     10895
     10884     10883     10885     10884     10883     10895     10885     10883     10895
     10878     10886     10887     10878     10886     10888     10878     10886     10889
     10887     10886     10888     10887     10886     10889     10888     10886     10889
     10886     10889     10890     10889     10890     10891     10889     10890     10892
     10891     10890     10892     10890     10892     10893     10890     10892     10894
     10890     10892     10942     10893     10892     10894     10893     10892     10942
     10894     10892     10942     10883     10895     10896     10883     10895     10897
     10883     10895     10898     10896     10895     10897     10896     10895     10898
     10897     10895     10898     10895     10898     10899     10895     10898     10900
     10895     10898     10901     10899     10898     10900     10899     10898     10901
     10900     10898     10901     10898     10901     10902     10898     10901     10903
     10898     10901     10904     10902     10901     10903     10902     10901     10904
     10903     10901     10904     10901     10904     10905     10901     10904     10906
     10901     10904     10907     10905     10904     10906     10905     10904     10907
     10906     10904     10907     10904     10907     10908     10904     10907     10909
     10904     10907     10910     10908     10907     10909     10908     10907     10910
     10909     10907     10910     10907     10910     10911     10907     10910     10912
     10907     10910     10913     10911     10910     10912     10911     10910     10913
     10912     10910     10913     10910     10913     10914     10910     10913     10915
     10914     10913     10915     10913     10915     10916     10913     10915     10917
     10916     10915     10917     10915     10917     10918     10915     10917     10919
     10915     10917     10920     10918     10917     10919     10918     10917     10920
     10919     10917     10920     10917     10920     10921     10917     10920     10922
     10917     10920     10923     10921     10920     10922     10921     10920     10923
     10922     10920     10923     10920     10923     10924     10920     10923     10925
     10920     10923     10926     10924     10923     10925     10924     10923     10926
     10925     10923     10926     10923     10926     10927     10923     10926     10928
     10923     10926     10929     10927     10926     10928     10927     10926     10929
     10928     10926     10929     10926     10929     10930     10926     10929     10931
     10926     10929     10932     10930     10929     10931     10930     10929     10932
     10931     10929     10932     10929     10932     10933     10929     10932     10934
     10929     10932     10935     10933     10932     10934     10933     10932     10935
     10934     10932     10935     10932     10935     10936     10932     10935     10937
     10932     10935     10938     10936     10935     10937     10936     10935     10938
     10937     10935     10938     10935     10938     10939     10935     10938     10940
     10935     10938     10941     10939     10938     10940     10939     10938     10941
     10940     10938     10941     10892     10942     10943     10892     10942     10944
     10892     10942     10945     10943     10942     10944     10943     10942     10945
     10944     10942     10945     10942     10945     10946     10942     10945     10947
     10942     10945     10948     10946     10945     10947     10946     10945     10948
     10947     10945     10948     10945     10948     10949     10945     10948     10950
     10945     10948     10951     10949     10948     10950     10949     10948     10951
     10950     10948     10951     10948     10951     10952     10948     10951     10953
     10948     10951     10954     10952     10951     10953     10952     10951     10954
     10953     10951     10954     10951     10954     10955     10951     10954     10956
     10951     10954     10957     10955     10954     10956     10955     10954     10957
     10956     10954     10957     10954     10957     10958     10954     10957     10959
     10954     10957     10960     10958     10957     10959     10958     10957     10960
     10959     10957     10960     10957     10960     10961     10957     10960     10962
     10961     10960     10962     10960     10962     10963     10960     10962     10964
     10963     10962     10964     10962     10964     10965     10962     10964     10966
     10962     10964     10967     10965     10964     10966     10965     10964     10967
     10966     10964     10967     10964     10967     10968     10964     10967     10969
     10964     10967     10970     10968     10967     10969     10968     10967     10970
     10969     10967     10970     10967     10970     10971     10967     10970     10972
     10967     10970     10973     10971     10970     10972     10971     10970     10973
     10972     10970     10973     10970     10973     10974     10970     10973     10975
     10970     10973     10976     10974     10973     10975     10974     10973     10976
     10975     10973     10976     10973     10976     10977     10973     10976     10978
     10973     10976     10979     10977     10976     10978     10977     10976     10979
     10978     10976     10979     10976     10979     10980     10976     10979     10981
     10976     10979     10982     10980     10979     10981     10980     10979     10982
     10981     10979     10982     10979     10982     10983     10979     10982     10984
     10979     10982     10985     10983     10982     10984     10983     10982     10985
     10984     10982     10985     10982     10985     10986     10982     10985     10987
     10982     10985     10988     10986     10985     10987     10986     10985     10988
     10987     10985     10988     10990     10989     10993     10990     10989     10997
     10990     10989     11001     10993     10989     10997     10993     10989     11001
     10997     10989     11001     10989     10990     10991     10989     10990     10992
     10989     10990     11005     10991     10990     10992     10991     10990     11005
     10992     10990     11005     10989     10993     10994     10989     10993     10995
     10989     10993     10996     10994     10993     10995     10994     10993     10996
     10995     10993     10996     10989     10997     10998     10989     10997     10999
     10989     10997     11000     10998     10997     10999     10998     10997     11000
     10999     10997     11000     10989     11001     11002     10989     11001     11003
     10989     11001     11004     11002     11001     11003     11002     11001     11004
     11003     11001     11004     10990     11005     11006     10990     11005     11007
     10990     11005     11011     11006     11005     11007     11006     11005     11011
     11007     11005     11011     11009     11008     11010     11009     11008     11011
     11009     11008     11012     11010     11008     11011     11010     11008     11012
     11011     11008     11012     11005     11011     11008     11008     11012     11013
     11012     11013     11014     11012     11013     11015     11012     11013     11016
     11014     11013     11015     11014     11013     11016     11015     11013     11016
     11013     11016     11017     11013     11016     11018     11013     11016     11024
     11017     11016     11018     11017     11016     11024     11018     11016     11024
     11016     11018     11019     11018     11019     11020     11018     11019     11021
     11020     11019     11021     11019     11021     11022     11019     11021     11023
     11019     11021     11033     11022     11021     11023     11022     11021     11033
     11023     11021     11033     11016     11024     11025     11016     11024     11026
     11016     11024     11027     11025     11024     11026     11025     11024     11027
     11026     11024     11027     11024     11027     11028     11027     11028     11029
     11027     11028     11030     11029     11028     11030     11028     11030     11031
     11028     11030     11032     11028     11030     11080     11031     11030     11032
     11031     11030     11080     11032     11030     11080     11021     11033     11034
     11021     11033     11035     11021     11033     11036     11034     11033     11035
     11034     11033     11036     11035     11033     11036     11033     11036     11037
     11033     11036     11038     11033     11036     11039     11037     11036     11038
     11037     11036     11039     11038     11036     11039     11036     11039     11040
     11036     11039     11041     11036     11039     11042     11040     11039     11041
     11040     11039     11042     11041     11039     11042     11039     11042     11043
     11039     11042     11044     11039     11042     11045     11043     11042     11044
     11043     11042     11045     11044     11042     11045     11042     11045     11046
     11042     11045     11047     11042     11045     11048     11046     11045     11047
     11046     11045     11048     11047     11045     11048     11045     11048     11049
     11045     11048     11050     11045     11048     11051     11049     11048     11050
     11049     11048     11051     11050     11048     11051     11048     11051     11052
     11048     11051     11053     11052     11051     11053     11051     11053     11054
     11051     11053     11055     11054     11053     11055     11053     11055     11056
     11053     11055     11057     11053     11055     11058     11056     11055     11057
     11056     11055     11058     11057     11055     11058     11055     11058     11059
     11055     11058     11060     11055     11058     11061     11059     11058     11060
     11059     11058     11061     11060     11058     11061     11058     11061     11062
     11058     11061     11063     11058     11061     11064     11062     11061     11063
     11062     11061     11064     11063     11061     11064     11061     11064     11065
     11061     11064     11066     11061     11064     11067     11065     11064     11066
     11065     11064     11067     11066     11064     11067     11064     11067     11068
     11064     11067     11069     11064     11067     11070     11068     11067     11069
     11068     11067     11070     11069     11067     11070     11067     11070     11071
     11067     11070     11072     11067     11070     11073     11071     11070     11072
     11071     11070     11073     11072     11070     11073     11070     11073     11074
     11070     11073     11075     11070     11073     11076     11074     11073     11075
     11074     11073     11076     11075     11073     11076     11073     11076     11077
     11073     11076     11078     11073     11076     11079     11077     11076     11078
     11077     11076     11079     11078     11076     11079     11030     11080     11081
     11030     11080     11082     11030     11080     11083     11081     11080     11082
     11081     11080     11083     11082     11080     11083     11080     11083     11084
     11080     11083     11085     11080     11083     11086     11084     11083     11085
     11084     11083     11086     11085     11083     11086     11083     11086     11087
     11083     11086     11088     11083     11086     11089     11087     11086     11088
     11087     11086     11089     11088     11086     11089     11086     11089     11090
     11086     11089     11091     11086     11089     11092     11090     11089     11091
     11090     11089     11092     11091     11089     11092     11089     11092     11093
     11089     11092     11094     11089     11092     11095     11093     11092     11094
     11093     11092     11095     11094     11092     11095     11092     11095     11096
     11092     11095     11097     11092     11095     11098     11096     11095     11097
     11096     11095     11098     11097     11095     11098     11095     11098     11099
     11095     11098     11100     11099     11098     11100     11098     11100     11101
     11098     11100     11102     11101     11100     11102     11100     11102     11103
     11100     11102     11104     11100     11102     11105     11103     11102     11104
     11103     11102     11105     11104     11102     11105     11102     11105     11106
     11102     11105     11107     11102     11105     11108     11106     11105     11107
     11106     11105     11108     11107     11105     11108     11105     11108     11109
     11105     11108     11110     11105     11108     11111     11109     11108     11110
     11109     11108     11111     11110     11108     11111     11108     11111     11112
     11108     11111     11113     11108     11111     11114     11112     11111     11113
     11112     11111     11114     11113     11111     11114     11111     11114     11115
     11111     11114     11116     11111     11114     11117     11115     11114     11116
     11115     11114     11117     11116     11114     11117     11114     11117     11118
     11114     11117     11119     11114     11117     11120     11118     11117     11119
     11118     11117     11120     11119     11117     11120     11117     11120     11121
     11117     11120     11122     11117     11120     11123     11121     11120     11122
     11121     11120     11123     11122     11120     11123     11120     11123     11124
     11120     11123     11125     11120     11123     11126     11124     11123     11125
     11124     11123     11126     11125     11123     11126     11128     11127     11131
     11128     11127     11135     11128     11127     11139     11131     11127     11135
     11131     11127     11139     11135     11127     11139     11127     11128     11129
     11127     11128     11130     11127     11128     11143     11129     11128     11130
     11129     11128     11143     11130     11128     11143     11127     11131     11132
     11127     11131     11133     11127     11131     11134     11132     11131     11133
     11132     11131     11134     11133     11131     11134     11127     11135     11136
     11127     11135     11137     11127     11135     11138     11136     11135     11137
     11136     11135     11138     11137     11135     11138     11127     11139     11140
     11127     11139     11141     11127     11139     11142     11140     11139     11141
     11140     11139     11142     11141     11139     11142     11128     11143     11144
     11128     11143     11145     11128     11143     11149     11144     11143     11145
     11144     11143     11149     11145     11143     11149     11147     11146     11148
     11147     11146     11149     11147     11146     11150     11148     11146     11149
     11148     11146     11150     11149     11146     11150     11143     11149     11146
     11146     11150     11151     11150     11151     11152     11150     11151     11153
     11150     11151     11154     11152     11151     11153     11152     11151     11154
     11153     11151     11154     11151     11154     11155     11151     11154     11156
     11151     11154     11162     11155     11154     11156     11155     11154     11162
     11156     11154     11162     11154     11156     11157     11156     11157     11158
     11156     11157     11159     11158     11157     11159     11157     11159     11160
     11157     11159     11161     11157     11159     11171     11160     11159     11161
     11160     11159     11171     11161     11159     11171     11154     11162     11163
     11154     11162     11164     11154     11162     11165     11163     11162     11164
     11163     11162     11165     11164     11162     11165     11162     11165     11166
     11165     11166     11167     11165     11166     11168     11167     11166     11168
     11166     11168     11169     11166     11168     11170     11166     11168     11218
     11169     11168     11170     11169     11168     11218     11170     11168     11218
     11159     11171     11172     11159     11171     11173     11159     11171     11174
     11172     11171     11173     11172     11171     11174     11173     11171     11174
     11171     11174     11175     11171     11174     11176     11171     11174     11177
     11175     11174     11176     11175     11174     11177     11176     11174     11177
     11174     11177     11178     11174     11177     11179     11174     11177     11180
     11178     11177     11179     11178     11177     11180     11179     11177     11180
     11177     11180     11181     11177     11180     11182     11177     11180     11183
     11181     11180     11182     11181     11180     11183     11182     11180     11183
     11180     11183     11184     11180     11183     11185     11180     11183     11186
     11184     11183     11185     11184     11183     11186     11185     11183     11186
     11183     11186     11187     11183     11186     11188     11183     11186     11189
     11187     11186     11188     11187     11186     11189     11188     11186     11189
     11186     11189     11190     11186     11189     11191     11190     11189     11191
     11189     11191     11192     11189     11191     11193     11192     11191     11193
     11191     11193     11194     11191     11193     11195     11191     11193     11196
     11194     11193     11195     11194     11193     11196     11195     11193     11196
     11193     11196     11197     11193     11196     11198     11193     11196     11199
     11197     11196     11198     11197     11196     11199     11198     11196     11199
     11196     11199     11200     11196     11199     11201     11196     11199     11202
     11200     11199     11201     11200     11199     11202     11201     11199     11202
     11199     11202     11203     11199     11202     11204     11199     11202     11205
     11203     11202     11204     11203     11202     11205     11204     11202     11205
     11202     11205     11206     11202     11205     11207     11202     11205     11208
     11206     11205     11207     11206     11205     11208     11207     11205     11208
     11205     11208     11209     11205     11208     11210     11205     11208     11211
     11209     11208     11210     11209     11208     11211     11210     11208     11211
     11208     11211     11212     11208     11211     11213     11208     11211     11214
     11212     11211     11213     11212     11211     11214     11213     11211     11214
     11211     11214     11215     11211     11214     11216     11211     11214     11217
     11215     11214     11216     11215     11214     11217     11216     11214     11217
     11168     11218     11219     11168     11218     11220     11168     11218     11221
     11219     11218     11220     11219     11218     11221     11220     11218     11221
     11218     11221     11222     11218     11221     11223     11218     11221     11224
     11222     11221     11223     11222     11221     11224     11223     11221     11224
     11221     11224     11225     11221     11224     11226     11221     11224     11227
     11225     11224     11226     11225     11224     11227     11226     11224     11227
     11224     11227     11228     11224     11227     11229     11224     11227     11230
     11228     11227     11229     11228     11227     11230     11229     11227     11230
     11227     11230     11231     11227     11230     11232     11227     11230     11233
     11231     11230     11232     11231     11230     11233     11232     11230     11233
     11230     11233     11234     11230     11233     11235     11230     11233     11236
     11234     11233     11235     11234     11233     11236     11235     11233     11236
     11233     11236     11237     11233     11236     11238     11237     11236     11238
     11236     11238     11239     11236     11238     11240     11239     11238     11240
     11238     11240     11241     11238     11240     11242     11238     11240     11243
     11241     11240     11242     11241     11240     11243     11242     11240     11243
     11240     11243     11244     11240     11243     11245     11240     11243     11246
     11244     11243     11245     11244     11243     11246     11245     11243     11246
     11243     11246     11247     11243     11246     11248     11243     11246     11249
     11247     11246     11248     11247     11246     11249     11248     11246     11249
     11246     11249     11250     11246     11249     11251     11246     11249     11252
     11250     11249     11251     11250     11249     11252     11251     11249     11252
     11249     11252     11253     11249     11252     11254     11249     11252     11255
     11253     11252     11254     11253     11252     11255     11254     11252     11255
     11252     11255     11256     11252     11255     11257     11252     11255     11258
     11256     11255     11257     11256     11255     11258     11257     11255     11258
     11255     11258     11259     11255     11258     11260     11255     11258     11261
     11259     11258     11260     11259     11258     11261     11260     11258     11261
     11258     11261     11262     11258     11261     11263     11258     11261     11264
     11262     11261     11263     11262     11261     11264     11263     11261     11264
     11266     11265     11269     11266     11265     11273     11266     11265     11277
     11269     11265     11273     11269     11265     11277     11273     11265     11277
     11265     11266     11267     11265     11266     11268     11265     11266     11281
     11267     11266     11268     11267     11266     11281     11268     11266     11281
     11265     11269     11270     11265     11269     11271     11265     11269     11272
     11270     11269     11271     11270     11269     11272     11271     11269     11272
     11265     11273     11274     11265     11273     11275     11265     11273     11276
     11274     11273     11275     11274     11273     11276     11275     11273     11276
     11265     11277     11278     11265     11277     11279     11265     11277     11280
     11278     11277     11279     11278     11277     11280     11279     11277     11280
     11266     11281     11282     11266     11281     11283     11266     11281     11287
     11282     11281     11283     11282     11281     11287     11283     11281     11287
     11285     11284     11286     11285     11284     11287     11285     11284     11288
     11286     11284     11287     11286     11284     11288     11287     11284     11288
     11281     11287     11284     11284     11288     11289     11288     11289     11290
     11288     11289     11291     11288     11289     11292     11290     11289     11291
     11290     11289     11292     11291     11289     11292     11289     11292     11293
     11289     11292     11294     11289     11292     11300     11293     11292     11294
     11293     11292     11300     11294     11292     11300     11292     11294     11295
     11294     11295     11296     11294     11295     11297     11296     11295     11297
     11295     11297     11298     11295     11297     11299     11295     11297     11309
     11298     11297     11299     11298     11297     11309     11299     11297     11309
     11292     11300     11301     11292     11300     11302     11292     11300     11303
     11301     11300     11302     11301     11300     11303     11302     11300     11303
     11300     11303     11304     11303     11304     11305     11303     11304     11306
     11305     11304     11306     11304     11306     11307     11304     11306     11308
     11304     11306     11356     11307     11306     11308     11307     11306     11356
     11308     11306     11356     11297     11309     11310     11297     11309     11311
     11297     11309     11312     11310     11309     11311     11310     11309     11312
     11311     11309     11312     11309     11312     11313     11309     11312     11314
     11309     11312     11315     11313     11312     11314     11313     11312     11315
     11314     11312     11315     11312     11315     11316     11312     11315     11317
     11312     11315     11318     11316     11315     11317     11316     11315     11318
     11317     11315     11318     11315     11318     11319     11315     11318     11320
     11315     11318     11321     11319     11318     11320     11319     11318     11321
     11320     11318     11321     11318     11321     11322     11318     11321     11323
     11318     11321     11324     11322     11321     11323     11322     11321     11324
     11323     11321     11324     11321     11324     11325     11321     11324     11326
     11321     11324     11327     11325     11324     11326     11325     11324     11327
     11326     11324     11327     11324     11327     11328     11324     11327     11329
     11328     11327     11329     11327     11329     11330     11327     11329     11331
     11330     11329     11331     11329     11331     11332     11329     11331     11333
     11329     11331     11334     11332     11331     11333     11332     11331     11334
     11333     11331     11334     11331     11334     11335     11331     11334     11336
     11331     11334     11337     11335     11334     11336     11335     11334     11337
     11336     11334     11337     11334     11337     11338     11334     11337     11339
     11334     11337     11340     11338     11337     11339     11338     11337     11340
     11339     11337     11340     11337     11340     11341     11337     11340     11342
     11337     11340     11343     11341     11340     11342     11341     11340     11343
     11342     11340     11343     11340     11343     11344     11340     11343     11345
     11340     11343     11346     11344     11343     11345     11344     11343     11346
     11345     11343     11346     11343     11346     11347     11343     11346     11348
     11343     11346     11349     11347     11346     11348     11347     11346     11349
     11348     11346     11349     11346     11349     11350     11346     11349     11351
     11346     11349     11352     11350     11349     11351     11350     11349     11352
     11351     11349     11352     11349     11352     11353     11349     11352     11354
     11349     11352     11355     11353     11352     11354     11353     11352     11355
     11354     11352     11355     11306     11356     11357     11306     11356     11358
     11306     11356     11359     11357     11356     11358     11357     11356     11359
     11358     11356     11359     11356     11359     11360     11356     11359     11361
     11356     11359     11362     11360     11359     11361     11360     11359     11362
     11361     11359     11362     11359     11362     11363     11359     11362     11364
     11359     11362     11365     11363     11362     11364     11363     11362     11365
     11364     11362     11365     11362     11365     11366     11362     11365     11367
     11362     11365     11368     11366     11365     11367     11366     11365     11368
     11367     11365     11368     11365     11368     11369     11365     11368     11370
     11365     11368     11371     11369     11368     11370     11369     11368     11371
     11370     11368     11371     11368     11371     11372     11368     11371     11373
     11368     11371     11374     11372     11371     11373     11372     11371     11374
     11373     11371     11374     11371     11374     11375     11371     11374     11376
     11375     11374     11376     11374     11376     11377     11374     11376     11378
     11377     11376     11378     11376     11378     11379     11376     11378     11380
     11376     11378     11381     11379     11378     11380     11379     11378     11381
     11380     11378     11381     11378     11381     11382     11378     11381     11383
     11378     11381     11384     11382     11381     11383     11382     11381     11384
     11383     11381     11384     11381     11384     11385     11381     11384     11386
     11381     11384     11387     11385     11384     11386     11385     11384     11387
     11386     11384     11387     11384     11387     11388     11384     11387     11389
     11384     11387     11390     11388     11387     11389     11388     11387     11390
     11389     11387     11390     11387     11390     11391     11387     11390     11392
     11387     11390     11393     11391     11390     11392     11391     11390     11393
     11392     11390     11393     11390     11393     11394     11390     11393     11395
     11390     11393     11396     11394     11393     11395     11394     11393     11396
     11395     11393     11396     11393     11396     11397     11393     11396     11398
     11393     11396     11399     11397     11396     11398     11397     11396     11399
     11398     11396     11399     11396     11399     11400     11396     11399     11401
     11396     11399     11402     11400     11399     11401     11400     11399     11402
     11401     11399     11402     11404     11403     11407     11404     11403     11411
     11404     11403     11415     11407     11403     11411     11407     11403     11415
     11411     11403     11415     11403     11404     11405     11403     11404     11406
     11403     11404     11419     11405     11404     11406     11405     11404     11419
     11406     11404     11419     11403     11407     11408     11403     11407     11409
     11403     11407     11410     11408     11407     11409     11408     11407     11410
     11409     11407     11410     11403     11411     11412     11403     11411     11413
     11403     11411     11414     11412     11411     11413     11412     11411     11414
     11413     11411     11414     11403     11415     11416     11403     11415     11417
     11403     11415     11418     11416     11415     11417     11416     11415     11418
     11417     11415     11418     11404     11419     11420     11404     11419     11421
     11404     11419     11425     11420     11419     11421     11420     11419     11425
     11421     11419     11425     11423     11422     11424     11423     11422     11425
     11423     11422     11426     11424     11422     11425     11424     11422     11426
     11425     11422     11426     11419     11425     11422     11422     11426     11427
     11426     11427     11428     11426     11427     11429     11426     11427     11430
     11428     11427     11429     11428     11427     11430     11429     11427     11430
     11427     11430     11431     11427     11430     11432     11427     11430     11438
     11431     11430     11432     11431     11430     11438     11432     11430     11438
     11430     11432     11433     11432     11433     11434     11432     11433     11435
     11434     11433     11435     11433     11435     11436     11433     11435     11437
     11433     11435     11447     11436     11435     11437     11436     11435     11447
     11437     11435     11447     11430     11438     11439     11430     11438     11440
     11430     11438     11441     11439     11438     11440     11439     11438     11441
     11440     11438     11441     11438     11441     11442     11441     11442     11443
     11441     11442     11444     11443     11442     11444     11442     11444     11445
     11442     11444     11446     11442     11444     11494     11445     11444     11446
     11445     11444     11494     11446     11444     11494     11435     11447     11448
     11435     11447     11449     11435     11447     11450     11448     11447     11449
     11448     11447     11450     11449     11447     11450     11447     11450     11451
     11447     11450     11452     11447     11450     11453     11451     11450     11452
     11451     11450     11453     11452     11450     11453     11450     11453     11454
     11450     11453     11455     11450     11453     11456     11454     11453     11455
     11454     11453     11456     11455     11453     11456     11453     11456     11457
     11453     11456     11458     11453     11456     11459     11457     11456     11458
     11457     11456     11459     11458     11456     11459     11456     11459     11460
     11456     11459     11461     11456     11459     11462     11460     11459     11461
     11460     11459     11462     11461     11459     11462     11459     11462     11463
     11459     11462     11464     11459     11462     11465     11463     11462     11464
     11463     11462     11465     11464     11462     11465     11462     11465     11466
     11462     11465     11467     11466     11465     11467     11465     11467     11468
     11465     11467     11469     11468     11467     11469     11467     11469     11470
     11467     11469     11471     11467     11469     11472     11470     11469     11471
     11470     11469     11472     11471     11469     11472     11469     11472     11473
     11469     11472     11474     11469     11472     11475     11473     11472     11474
     11473     11472     11475     11474     11472     11475     11472     11475     11476
     11472     11475     11477     11472     11475     11478     11476     11475     11477
     11476     11475     11478     11477     11475     11478     11475     11478     11479
     11475     11478     11480     11475     11478     11481     11479     11478     11480
     11479     11478     11481     11480     11478     11481     11478     11481     11482
     11478     11481     11483     11478     11481     11484     11482     11481     11483
     11482     11481     11484     11483     11481     11484     11481     11484     11485
     11481     11484     11486     11481     11484     11487     11485     11484     11486
     11485     11484     11487     11486     11484     11487     11484     11487     11488
     11484     11487     11489     11484     11487     11490     11488     11487     11489
     11488     11487     11490     11489     11487     11490     11487     11490     11491
     11487     11490     11492     11487     11490     11493     11491     11490     11492
     11491     11490     11493     11492     11490     11493     11444     11494     11495
     11444     11494     11496     11444     11494     11497     11495     11494     11496
     11495     11494     11497     11496     11494     11497     11494     11497     11498
     11494     11497     11499     11494     11497     11500     11498     11497     11499
     11498     11497     11500     11499     11497     11500     11497     11500     11501
     11497     11500     11502     11497     11500     11503     11501     11500     11502
     11501     11500     11503     11502     11500     11503     11500     11503     11504
     11500     11503     11505     11500     11503     11506     11504     11503     11505
     11504     11503     11506     11505     11503     11506     11503     11506     11507
     11503     11506     11508     11503     11506     11509     11507     11506     11508
     11507     11506     11509     11508     11506     11509     11506     11509     11510
     11506     11509     11511     11506     11509     11512     11510     11509     11511
     11510     11509     11512     11511     11509     11512     11509     11512     11513
     11509     11512     11514     11513     11512     11514     11512     11514     11515
     11512     11514     11516     11515     11514     11516     11514     11516     11517
     11514     11516     11518     11514     11516     11519     11517     11516     11518
     11517     11516     11519     11518     11516     11519     11516     11519     11520
     11516     11519     11521     11516     11519     11522     11520     11519     11521
     11520     11519     11522     11521     11519     11522     11519     11522     11523
     11519     11522     11524     11519     11522     11525     11523     11522     11524
     11523     11522     11525     11524     11522     11525     11522     11525     11526
     11522     11525     11527     11522     11525     11528     11526     11525     11527
     11526     11525     11528     11527     11525     11528     11525     11528     11529
     11525     11528     11530     11525     11528     11531     11529     11528     11530
     11529     11528     11531     11530     11528     11531     11528     11531     11532
     11528     11531     11533     11528     11531     11534     11532     11531     11533
     11532     11531     11534     11533     11531     11534     11531     11534     11535
     11531     11534     11536     11531     11534     11537     11535     11534     11536
     11535     11534     11537     11536     11534     11537     11534     11537     11538
     11534     11537     11539     11534     11537     11540     11538     11537     11539
     11538     11537     11540     11539     11537     11540     11542     11541     11545
     11542     11541     11549     11542     11541     11553     11545     11541     11549
     11545     11541     11553     11549     11541     11553     11541     11542     11543
     11541     11542     11544     11541     11542     11557     11543     11542     11544
     11543     11542     11557     11544     11542     11557     11541     11545     11546
     11541     11545     11547     11541     11545     11548     11546     11545     11547
     11546     11545     11548     11547     11545     11548     11541     11549     11550
     11541     11549     11551     11541     11549     11552     11550     11549     11551
     11550     11549     11552     11551     11549     11552     11541     11553     11554
     11541     11553     11555     11541     11553     11556     11554     11553     11555
     11554     11553     11556     11555     11553     11556     11542     11557     11558
     11542     11557     11559     11542     11557     11563     11558     11557     11559
     11558     11557     11563     11559     11557     11563     11561     11560     11562
     11561     11560     11563     11561     11560     11564     11562     11560     11563
     11562     11560     11564     11563     11560     11564     11557     11563     11560
     11560     11564     11565     11564     11565     11566     11564     11565     11567
     11564     11565     11568     11566     11565     11567     11566     11565     11568
     11567     11565     11568     11565     11568     11569     11565     11568     11570
     11565     11568     11576     11569     11568     11570     11569     11568     11576
     11570     11568     11576     11568     11570     11571     11570     11571     11572
     11570     11571     11573     11572     11571     11573     11571     11573     11574
     11571     11573     11575     11571     11573     11585     11574     11573     11575
     11574     11573     11585     11575     11573     11585     11568     11576     11577
     11568     11576     11578     11568     11576     11579     11577     11576     11578
     11577     11576     11579     11578     11576     11579     11576     11579     11580
     11579     11580     11581     11579     11580     11582     11581     11580     11582
     11580     11582     11583     11580     11582     11584     11580     11582     11632
     11583     11582     11584     11583     11582     11632     11584     11582     11632
     11573     11585     11586     11573     11585     11587     11573     11585     11588
     11586     11585     11587     11586     11585     11588     11587     11585     11588
     11585     11588     11589     11585     11588     11590     11585     11588     11591
     11589     11588     11590     11589     11588     11591     11590     11588     11591
     11588     11591     11592     11588     11591     11593     11588     11591     11594
     11592     11591     11593     11592     11591     11594     11593     11591     11594
     11591     11594     11595     11591     11594     11596     11591     11594     11597
     11595     11594     11596     11595     11594     11597     11596     11594     11597
     11594     11597     11598     11594     11597     11599     11594     11597     11600
     11598     11597     11599     11598     11597     11600     11599     11597     11600
     11597     11600     11601     11597     11600     11602     11597     11600     11603
     11601     11600     11602     11601     11600     11603     11602     11600     11603
     11600     11603     11604     11600     11603     11605     11604     11603     11605
     11603     11605     11606     11603     11605     11607     11606     11605     11607
     11605     11607     11608     11605     11607     11609     11605     11607     11610
     11608     11607     11609     11608     11607     11610     11609     11607     11610
     11607     11610     11611     11607     11610     11612     11607     11610     11613
     11611     11610     11612     11611     11610     11613     11612     11610     11613
     11610     11613     11614     11610     11613     11615     11610     11613     11616
     11614     11613     11615     11614     11613     11616     11615     11613     11616
     11613     11616     11617     11613     11616     11618     11613     11616     11619
     11617     11616     11618     11617     11616     11619     11618     11616     11619
     11616     11619     11620     11616     11619     11621     11616     11619     11622
     11620     11619     11621     11620     11619     11622     11621     11619     11622
     11619     11622     11623     11619     11622     11624     11619     11622     11625
     11623     11622     11624     11623     11622     11625     11624     11622     11625
     11622     11625     11626     11622     11625     11627     11622     11625     11628
     11626     11625     11627     11626     11625     11628     11627     11625     11628
     11625     11628     11629     11625     11628     11630     11625     11628     11631
     11629     11628     11630     11629     11628     11631     11630     11628     11631
     11582     11632     11633     11582     11632     11634     11582     11632     11635
     11633     11632     11634     11633     11632     11635     11634     11632     11635
     11632     11635     11636     11632     11635     11637     11632     11635     11638
     11636     11635     11637     11636     11635     11638     11637     11635     11638
     11635     11638     11639     11635     11638     11640     11635     11638     11641
     11639     11638     11640     11639     11638     11641     11640     11638     11641
     11638     11641     11642     11638     11641     11643     11638     11641     11644
     11642     11641     11643     11642     11641     11644     11643     11641     11644
     11641     11644     11645     11641     11644     11646     11641     11644     11647
     11645     11644     11646     11645     11644     11647     11646     11644     11647
     11644     11647     11648     11644     11647     11649     11644     11647     11650
     11648     11647     11649     11648     11647     11650     11649     11647     11650
     11647     11650     11651     11647     11650     11652     11651     11650     11652
     11650     11652     11653     11650     11652     11654     11653     11652     11654
     11652     11654     11655     11652     11654     11656     11652     11654     11657
     11655     11654     11656     11655     11654     11657     11656     11654     11657
     11654     11657     11658     11654     11657     11659     11654     11657     11660
     11658     11657     11659     11658     11657     11660     11659     11657     11660
     11657     11660     11661     11657     11660     11662     11657     11660     11663
     11661     11660     11662     11661     11660     11663     11662     11660     11663
     11660     11663     11664     11660     11663     11665     11660     11663     11666
     11664     11663     11665     11664     11663     11666     11665     11663     11666
     11663     11666     11667     11663     11666     11668     11663     11666     11669
     11667     11666     11668     11667     11666     11669     11668     11666     11669
     11666     11669     11670     11666     11669     11671     11666     11669     11672
     11670     11669     11671     11670     11669     11672     11671     11669     11672
     11669     11672     11673     11669     11672     11674     11669     11672     11675
     11673     11672     11674     11673     11672     11675     11674     11672     11675
     11672     11675     11676     11672     11675     11677     11672     11675     11678
     11676     11675     11677     11676     11675     11678     11677     11675     11678
     11680     11679     11683     11680     11679     11687     11680     11679     11691
     11683     11679     11687     11683     11679     11691     11687     11679     11691
     11679     11680     11681     11679     11680     11682     11679     11680     11695
     11681     11680     11682     11681     11680     11695     11682     11680     11695
     11679     11683     11684     11679     11683     11685     11679     11683     11686
     11684     11683     11685     11684     11683     11686     11685     11683     11686
     11679     11687     11688     11679     11687     11689     11679     11687     11690
     11688     11687     11689     11688     11687     11690     11689     11687     11690
     11679     11691     11692     11679     11691     11693     11679     11691     11694
     11692     11691     11693     11692     11691     11694     11693     11691     11694
     11680     11695     11696     11680     11695     11697     11680     11695     11701
     11696     11695     11697     11696     11695     11701     11697     11695     11701
     11699     11698     11700     11699     11698     11701     11699     11698     11702
     11700     11698     11701     11700     11698     11702     11701     11698     11702
     11695     11701     11698     11698     11702     11703     11702     11703     11704
     11702     11703     11705     11702     11703     11706     11704     11703     11705
     11704     11703     11706     11705     11703     11706     11703     11706     11707
     11703     11706     11708     11703     11706     11714     11707     11706     11708
     11707     11706     11714     11708     11706     11714     11706     11708     11709
     11708     11709     11710     11708     11709     11711     11710     11709     11711
     11709     11711     11712     11709     11711     11713     11709     11711     11723
     11712     11711     11713     11712     11711     11723     11713     11711     11723
     11706     11714     11715     11706     11714     11716     11706     11714     11717
     11715     11714     11716     11715     11714     11717     11716     11714     11717
     11714     11717     11718     11717     11718     11719     11717     11718     11720
     11719     11718     11720     11718     11720     11721     11718     11720     11722
     11718     11720     11770     11721     11720     11722     11721     11720     11770
     11722     11720     11770     11711     11723     11724     11711     11723     11725
     11711     11723     11726     11724     11723     11725     11724     11723     11726
     11725     11723     11726     11723     11726     11727     11723     11726     11728
     11723     11726     11729     11727     11726     11728     11727     11726     11729
     11728     11726     11729     11726     11729     11730     11726     11729     11731
     11726     11729     11732     11730     11729     11731     11730     11729     11732
     11731     11729     11732     11729     11732     11733     11729     11732     11734
     11729     11732     11735     11733     11732     11734     11733     11732     11735
     11734     11732     11735     11732     11735     11736     11732     11735     11737
     11732     11735     11738     11736     11735     11737     11736     11735     11738
     11737     11735     11738     11735     11738     11739     11735     11738     11740
     11735     11738     11741     11739     11738     11740     11739     11738     11741
     11740     11738     11741     11738     11741     11742     11738     11741     11743
     11742     11741     11743     11741     11743     11744     11741     11743     11745
     11744     11743     11745     11743     11745     11746     11743     11745     11747
     11743     11745     11748     11746     11745     11747     11746     11745     11748
     11747     11745     11748     11745     11748     11749     11745     11748     11750
     11745     11748     11751     11749     11748     11750     11749     11748     11751
     11750     11748     11751     11748     11751     11752     11748     11751     11753
     11748     11751     11754     11752     11751     11753     11752     11751     11754
     11753     11751     11754     11751     11754     11755     11751     11754     11756
     11751     11754     11757     11755     11754     11756     11755     11754     11757
     11756     11754     11757     11754     11757     11758     11754     11757     11759
     11754     11757     11760     11758     11757     11759     11758     11757     11760
     11759     11757     11760     11757     11760     11761     11757     11760     11762
     11757     11760     11763     11761     11760     11762     11761     11760     11763
     11762     11760     11763     11760     11763     11764     11760     11763     11765
     11760     11763     11766     11764     11763     11765     11764     11763     11766
     11765     11763     11766     11763     11766     11767     11763     11766     11768
     11763     11766     11769     11767     11766     11768     11767     11766     11769
     11768     11766     11769     11720     11770     11771     11720     11770     11772
     11720     11770     11773     11771     11770     11772     11771     11770     11773
     11772     11770     11773     11770     11773     11774     11770     11773     11775
     11770     11773     11776     11774     11773     11775     11774     11773     11776
     11775     11773     11776     11773     11776     11777     11773     11776     11778
     11773     11776     11779     11777     11776     11778     11777     11776     11779
     11778     11776     11779     11776     11779     11780     11776     11779     11781
     11776     11779     11782     11780     11779     11781     11780     11779     11782
     11781     11779     11782     11779     11782     11783     11779     11782     11784
     11779     11782     11785     11783     11782     11784     11783     11782     11785
     11784     11782     11785     11782     11785     11786     11782     11785     11787
     11782     11785     11788     11786     11785     11787     11786     11785     11788
     11787     11785     11788     11785     11788     11789     11785     11788     11790
     11789     11788     11790     11788     11790     11791     11788     11790     11792
     11791     11790     11792     11790     11792     11793     11790     11792     11794
     11790     11792     11795     11793     11792     11794     11793     11792     11795
     11794     11792     11795     11792     11795     11796     11792     11795     11797
     11792     11795     11798     11796     11795     11797     11796     11795     11798
     11797     11795     11798     11795     11798     11799     11795     11798     11800
     11795     11798     11801     11799     11798     11800     11799     11798     11801
     11800     11798     11801     11798     11801     11802     11798     11801     11803
     11798     11801     11804     11802     11801     11803     11802     11801     11804
     11803     11801     11804     11801     11804     11805     11801     11804     11806
     11801     11804     11807     11805     11804     11806     11805     11804     11807
     11806     11804     11807     11804     11807     11808     11804     11807     11809
     11804     11807     11810     11808     11807     11809     11808     11807     11810
     11809     11807     11810     11807     11810     11811     11807     11810     11812
     11807     11810     11813     11811     11810     11812     11811     11810     11813
     11812     11810     11813     11810     11813     11814     11810     11813     11815
     11810     11813     11816     11814     11813     11815     11814     11813     11816
     11815     11813     11816     11818     11817     11821     11818     11817     11825
     11818     11817     11829     11821     11817     11825     11821     11817     11829
     11825     11817     11829     11817     11818     11819     11817     11818     11820
     11817     11818     11833     11819     11818     11820     11819     11818     11833
     11820     11818     11833     11817     11821     11822     11817     11821     11823
     11817     11821     11824     11822     11821     11823     11822     11821     11824
     11823     11821     11824     11817     11825     11826     11817     11825     11827
     11817     11825     11828     11826     11825     11827     11826     11825     11828
     11827     11825     11828     11817     11829     11830     11817     11829     11831
     11817     11829     11832     11830     11829     11831     11830     11829     11832
     11831     11829     11832     11818     11833     11834     11818     11833     11835
     11818     11833     11839     11834     11833     11835     11834     11833     11839
     11835     11833     11839     11837     11836     11838     11837     11836     11839
     11837     11836     11840     11838     11836     11839     11838     11836     11840
     11839     11836     11840     11833     11839     11836     11836     11840     11841
     11840     11841     11842     11840     11841     11843     11840     11841     11844
     11842     11841     11843     11842     11841     11844     11843     11841     11844
     11841     11844     11845     11841     11844     11846     11841     11844     11852
     11845     11844     11846     11845     11844     11852     11846     11844     11852
     11844     11846     11847     11846     11847     11848     11846     11847     11849
     11848     11847     11849     11847     11849     11850     11847     11849     11851
     11847     11849     11861     11850     11849     11851     11850     11849     11861
     11851     11849     11861     11844     11852     11853     11844     11852     11854
     11844     11852     11855     11853     11852     11854     11853     11852     11855
     11854     11852     11855     11852     11855     11856     11855     11856     11857
     11855     11856     11858     11857     11856     11858     11856     11858     11859
     11856     11858     11860     11856     11858     11908     11859     11858     11860
     11859     11858     11908     11860     11858     11908     11849     11861     11862
     11849     11861     11863     11849     11861     11864     11862     11861     11863
     11862     11861     11864     11863     11861     11864     11861     11864     11865
     11861     11864     11866     11861     11864     11867     11865     11864     11866
     11865     11864     11867     11866     11864     11867     11864     11867     11868
     11864     11867     11869     11864     11867     11870     11868     11867     11869
     11868     11867     11870     11869     11867     11870     11867     11870     11871
     11867     11870     11872     11867     11870     11873     11871     11870     11872
     11871     11870     11873     11872     11870     11873     11870     11873     11874
     11870     11873     11875     11870     11873     11876     11874     11873     11875
     11874     11873     11876     11875     11873     11876     11873     11876     11877
     11873     11876     11878     11873     11876     11879     11877     11876     11878
     11877     11876     11879     11878     11876     11879     11876     11879     11880
     11876     11879     11881     11880     11879     11881     11879     11881     11882
     11879     11881     11883     11882     11881     11883     11881     11883     11884
     11881     11883     11885     11881     11883     11886     11884     11883     11885
     11884     11883     11886     11885     11883     11886     11883     11886     11887
     11883     11886     11888     11883     11886     11889     11887     11886     11888
     11887     11886     11889     11888     11886     11889     11886     11889     11890
     11886     11889     11891     11886     11889     11892     11890     11889     11891
     11890     11889     11892     11891     11889     11892     11889     11892     11893
     11889     11892     11894     11889     11892     11895     11893     11892     11894
     11893     11892     11895     11894     11892     11895     11892     11895     11896
     11892     11895     11897     11892     11895     11898     11896     11895     11897
     11896     11895     11898     11897     11895     11898     11895     11898     11899
     11895     11898     11900     11895     11898     11901     11899     11898     11900
     11899     11898     11901     11900     11898     11901     11898     11901     11902
     11898     11901     11903     11898     11901     11904     11902     11901     11903
     11902     11901     11904     11903     11901     11904     11901     11904     11905
     11901     11904     11906     11901     11904     11907     11905     11904     11906
     11905     11904     11907     11906     11904     11907     11858     11908     11909
     11858     11908     11910     11858     11908     11911     11909     11908     11910
     11909     11908     11911     11910     11908     11911     11908     11911     11912
     11908     11911     11913     11908     11911     11914     11912     11911     11913
     11912     11911     11914     11913     11911     11914     11911     11914     11915
     11911     11914     11916     11911     11914     11917     11915     11914     11916
     11915     11914     11917     11916     11914     11917     11914     11917     11918
     11914     11917     11919     11914     11917     11920     11918     11917     11919
     11918     11917     11920     11919     11917     11920     11917     11920     11921
     11917     11920     11922     11917     11920     11923     11921     11920     11922
     11921     11920     11923     11922     11920     11923     11920     11923     11924
     11920     11923     11925     11920     11923     11926     11924     11923     11925
     11924     11923     11926     11925     11923     11926     11923     11926     11927
     11923     11926     11928     11927     11926     11928     11926     11928     11929
     11926     11928     11930     11929     11928     11930     11928     11930     11931
     11928     11930     11932     11928     11930     11933     11931     11930     11932
     11931     11930     11933     11932     11930     11933     11930     11933     11934
     11930     11933     11935     11930     11933     11936     11934     11933     11935
     11934     11933     11936     11935     11933     11936     11933     11936     11937
     11933     11936     11938     11933     11936     11939     11937     11936     11938
     11937     11936     11939     11938     11936     11939     11936     11939     11940
     11936     11939     11941     11936     11939     11942     11940     11939     11941
     11940     11939     11942     11941     11939     11942     11939     11942     11943
     11939     11942     11944     11939     11942     11945     11943     11942     11944
     11943     11942     11945     11944     11942     11945     11942     11945     11946
     11942     11945     11947     11942     11945     11948     11946     11945     11947
     11946     11945     11948     11947     11945     11948     11945     11948     11949
     11945     11948     11950     11945     11948     11951     11949     11948     11950
     11949     11948     11951     11950     11948     11951     11948     11951     11952
     11948     11951     11953     11948     11951     11954     11952     11951     11953
     11952     11951     11954     11953     11951     11954     11956     11955     11959
     11956     11955     11963     11956     11955     11967     11959     11955     11963
     11959     11955     11967     11963     11955     11967     11955     11956     11957
     11955     11956     11958     11955     11956     11971     11957     11956     11958
     11957     11956     11971     11958     11956     11971     11955     11959     11960
     11955     11959     11961     11955     11959     11962     11960     11959     11961
     11960     11959     11962     11961     11959     11962     11955     11963     11964
     11955     11963     11965     11955     11963     11966     11964     11963     11965
     11964     11963     11966     11965     11963     11966     11955     11967     11968
     11955     11967     11969     11955     11967     11970     11968     11967     11969
     11968     11967     11970     11969     11967     11970     11956     11971     11972
     11956     11971     11973     11956     11971     11977     11972     11971     11973
     11972     11971     11977     11973     11971     11977     11975     11974     11976
     11975     11974     11977     11975     11974     11978     11976     11974     11977
     11976     11974     11978     11977     11974     11978     11971     11977     11974
     11974     11978     11979     11978     11979     11980     11978     11979     11981
     11978     11979     11982     11980     11979     11981     11980     11979     11982
     11981     11979     11982     11979     11982     11983     11979     11982     11984
     11979     11982     11990     11983     11982     11984     11983     11982     11990
     11984     11982     11990     11982     11984     11985     11984     11985     11986
     11984     11985     11987     11986     11985     11987     11985     11987     11988
     11985     11987     11989     11985     11987     11999     11988     11987     11989
     11988     11987     11999     11989     11987     11999     11982     11990     11991
     11982     11990     11992     11982     11990     11993     11991     11990     11992
     11991     11990     11993     11992     11990     11993     11990     11993     11994
     11993     11994     11995     11993     11994     11996     11995     11994     11996
     11994     11996     11997     11994     11996     11998     11994     11996     12046
     11997     11996     11998     11997     11996     12046     11998     11996     12046
     11987     11999     12000     11987     11999     12001     11987     11999     12002
     12000     11999     12001     12000     11999     12002     12001     11999     12002
     11999     12002     12003     11999     12002     12004     11999     12002     12005
     12003     12002     12004     12003     12002     12005     12004     12002     12005
     12002     12005     12006     12002     12005     12007     12002     12005     12008
     12006     12005     12007     12006     12005     12008     12007     12005     12008
     12005     12008     12009     12005     12008     12010     12005     12008     12011
     12009     12008     12010     12009     12008     12011     12010     12008     12011
     12008     12011     12012     12008     12011     12013     12008     12011     12014
     12012     12011     12013     12012     12011     12014     12013     12011     12014
     12011     12014     12015     12011     12014     12016     12011     12014     12017
     12015     12014     12016     12015     12014     12017     12016     12014     12017
     12014     12017     12018     12014     12017     12019     12018     12017     12019
     12017     12019     12020     12017     12019     12021     12020     12019     12021
     12019     12021     12022     12019     12021     12023     12019     12021     12024
     12022     12021     12023     12022     12021     12024     12023     12021     12024
     12021     12024     12025     12021     12024     12026     12021     12024     12027
     12025     12024     12026     12025     12024     12027     12026     12024     12027
     12024     12027     12028     12024     12027     12029     12024     12027     12030
     12028     12027     12029     12028     12027     12030     12029     12027     12030
     12027     12030     12031     12027     12030     12032     12027     12030     12033
     12031     12030     12032     12031     12030     12033     12032     12030     12033
     12030     12033     12034     12030     12033     12035     12030     12033     12036
     12034     12033     12035     12034     12033     12036     12035     12033     12036
     12033     12036     12037     12033     12036     12038     12033     12036     12039
     12037     12036     12038     12037     12036     12039     12038     12036     12039
     12036     12039     12040     12036     12039     12041     12036     12039     12042
     12040     12039     12041     12040     12039     12042     12041     12039     12042
     12039     12042     12043     12039     12042     12044     12039     12042     12045
     12043     12042     12044     12043     12042     12045     12044     12042     12045
     11996     12046     12047     11996     12046     12048     11996     12046     12049
     12047     12046     12048     12047     12046     12049     12048     12046     12049
     12046     12049     12050     12046     12049     12051     12046     12049     12052
     12050     12049     12051     12050     12049     12052     12051     12049     12052
     12049     12052     12053     12049     12052     12054     12049     12052     12055
     12053     12052     12054     12053     12052     12055     12054     12052     12055
     12052     12055     12056     12052     12055     12057     12052     12055     12058
     12056     12055     12057     12056     12055     12058     12057     12055     12058
     12055     12058     12059     12055     12058     12060     12055     12058     12061
     12059     12058     12060     12059     12058     12061     12060     12058     12061
     12058     12061     12062     12058     12061     12063     12058     12061     12064
     12062     12061     12063     12062     12061     12064     12063     12061     12064
     12061     12064     12065     12061     12064     12066     12065     12064     12066
     12064     12066     12067     12064     12066     12068     12067     12066     12068
     12066     12068     12069     12066     12068     12070     12066     12068     12071
     12069     12068     12070     12069     12068     12071     12070     12068     12071
     12068     12071     12072     12068     12071     12073     12068     12071     12074
     12072     12071     12073     12072     12071     12074     12073     12071     12074
     12071     12074     12075     12071     12074     12076     12071     12074     12077
     12075     12074     12076     12075     12074     12077     12076     12074     12077
     12074     12077     12078     12074     12077     12079     12074     12077     12080
     12078     12077     12079     12078     12077     12080     12079     12077     12080
     12077     12080     12081     12077     12080     12082     12077     12080     12083
     12081     12080     12082     12081     12080     12083     12082     12080     12083
     12080     12083     12084     12080     12083     12085     12080     12083     12086
     12084     12083     12085     12084     12083     12086     12085     12083     12086
     12083     12086     12087     12083     12086     12088     12083     12086     12089
     12087     12086     12088     12087     12086     12089     12088     12086     12089
     12086     12089     12090     12086     12089     12091     12086     12089     12092
     12090     12089     12091     12090     12089     12092     12091     12089     12092
     12094     12093     12097     12094     12093     12101     12094     12093     12105
     12097     12093     12101     12097     12093     12105     12101     12093     12105
     12093     12094     12095     12093     12094     12096     12093     12094     12109
     12095     12094     12096     12095     12094     12109     12096     12094     12109
     12093     12097     12098     12093     12097     12099     12093     12097     12100
     12098     12097     12099     12098     12097     12100     12099     12097     12100
     12093     12101     12102     12093     12101     12103     12093     12101     12104
     12102     12101     12103     12102     12101     12104     12103     12101     12104
     12093     12105     12106     12093     12105     12107     12093     12105     12108
     12106     12105     12107     12106     12105     12108     12107     12105     12108
     12094     12109     12110     12094     12109     12111     12094     12109     12115
     12110     12109     12111     12110     12109     12115     12111     12109     12115
     12113     12112     12114     12113     12112     12115     12113     12112     12116
     12114     12112     12115     12114     12112     12116     12115     12112     12116
     12109     12115     12112     12112     12116     12117     12116     12117     12118
     12116     12117     12119     12116     12117     12120     12118     12117     12119
     12118     12117     12120     12119     12117     12120     12117     12120     12121
     12117     12120     12122     12117     12120     12128     12121     12120     12122
     12121     12120     12128     12122     12120     12128     12120     12122     12123
     12122     12123     12124     12122     12123     12125     12124     12123     12125
     12123     12125     12126     12123     12125     12127     12123     12125     12137
     12126     12125     12127     12126     12125     12137     12127     12125     12137
     12120     12128     12129     12120     12128     12130     12120     12128     12131
     12129     12128     12130     12129     12128     12131     12130     12128     12131
     12128     12131     12132     12131     12132     12133     12131     12132     12134
     12133     12132     12134     12132     12134     12135     12132     12134     12136
     12132     12134     12184     12135     12134     12136     12135     12134     12184
     12136     12134     12184     12125     12137     12138     12125     12137     12139
     12125     12137     12140     12138     12137     12139     12138     12137     12140
     12139     12137     12140     12137     12140     12141     12137     12140     12142
     12137     12140     12143     12141     12140     12142     12141     12140     12143
     12142     12140     12143     12140     12143     12144     12140     12143     12145
     12140     12143     12146     12144     12143     12145     12144     12143     12146
     12145     12143     12146     12143     12146     12147     12143     12146     12148
     12143     12146     12149     12147     12146     12148     12147     12146     12149
     12148     12146     12149     12146     12149     12150     12146     12149     12151
     12146     12149     12152     12150     12149     12151     12150     12149     12152
     12151     12149     12152     12149     12152     12153     12149     12152     12154
     12149     12152     12155     12153     12152     12154     12153     12152     12155
     12154     12152     12155     12152     12155     12156     12152     12155     12157
     12156     12155     12157     12155     12157     12158     12155     12157     12159
     12158     12157     12159     12157     12159     12160     12157     12159     12161
     12157     12159     12162     12160     12159     12161     12160     12159     12162
     12161     12159     12162     12159     12162     12163     12159     12162     12164
     12159     12162     12165     12163     12162     12164     12163     12162     12165
     12164     12162     12165     12162     12165     12166     12162     12165     12167
     12162     12165     12168     12166     12165     12167     12166     12165     12168
     12167     12165     12168     12165     12168     12169     12165     12168     12170
     12165     12168     12171     12169     12168     12170     12169     12168     12171
     12170     12168     12171     12168     12171     12172     12168     12171     12173
     12168     12171     12174     12172     12171     12173     12172     12171     12174
     12173     12171     12174     12171     12174     12175     12171     12174     12176
     12171     12174     12177     12175     12174     12176     12175     12174     12177
     12176     12174     12177     12174     12177     12178     12174     12177     12179
     12174     12177     12180     12178     12177     12179     12178     12177     12180
     12179     12177     12180     12177     12180     12181     12177     12180     12182
     12177     12180     12183     12181     12180     12182     12181     12180     12183
     12182     12180     12183     12134     12184     12185     12134     12184     12186
     12134     12184     12187     12185     12184     12186     12185     12184     12187
     12186     12184     12187     12184     12187     12188     12184     12187     12189
     12184     12187     12190     12188     12187     12189     12188     12187     12190
     12189     12187     12190     12187     12190     12191     12187     12190     12192
     12187     12190     12193     12191     12190     12192     12191     12190     12193
     12192     12190     12193     12190     12193     12194     12190     12193     12195
     12190     12193     12196     12194     12193     12195     12194     12193     12196
     12195     12193     12196     12193     12196     12197     12193     12196     12198
     12193     12196     12199     12197     12196     12198     12197     12196     12199
     12198     12196     12199     12196     12199     12200     12196     12199     12201
     12196     12199     12202     12200     12199     12201     12200     12199     12202
     12201     12199     12202     12199     12202     12203     12199     12202     12204
     12203     12202     12204     12202     12204     12205     12202     12204     12206
     12205     12204     12206     12204     12206     12207     12204     12206     12208
     12204     12206     12209     12207     12206     12208     12207     12206     12209
     12208     12206     12209     12206     12209     12210     12206     12209     12211
     12206     12209     12212     12210     12209     12211     12210     12209     12212
     12211     12209     12212     12209     12212     12213     12209     12212     12214
     12209     12212     12215     12213     12212     12214     12213     12212     12215
     12214     12212     12215     12212     12215     12216     12212     12215     12217
     12212     12215     12218     12216     12215     12217     12216     12215     12218
     12217     12215     12218     12215     12218     12219     12215     12218     12220
     12215     12218     12221     12219     12218     12220     12219     12218     12221
     12220     12218     12221     12218     12221     12222     12218     12221     12223
     12218     12221     12224     12222     12221     12223     12222     12221     12224
     12223     12221     12224     12221     12224     12225     12221     12224     12226
     12221     12224     12227     12225     12224     12226     12225     12224     12227
     12226     12224     12227     12224     12227     12228     12224     12227     12229
     12224     12227     12230     12228     12227     12229     12228     12227     12230
     12229     12227     12230     12232     12231     12235     12232     12231     12239
     12232     12231     12243     12235     12231     12239     12235     12231     12243
     12239     12231     12243     12231     12232     12233     12231     12232     12234
     12231     12232     12247     12233     12232     12234     12233     12232     12247
     12234     12232     12247     12231     12235     12236     12231     12235     12237
     12231     12235     12238     12236     12235     12237     12236     12235     12238
     12237     12235     12238     12231     12239     12240     12231     12239     12241
     12231     12239     12242     12240     12239     12241     12240     12239     12242
     12241     12239     12242     12231     12243     12244     12231     12243     12245
     12231     12243     12246     12244     12243     12245     12244     12243     12246
     12245     12243     12246     12232     12247     12248     12232     12247     12249
     12232     12247     12253     12248     12247     12249     12248     12247     12253
     12249     12247     12253     12251     12250     12252     12251     12250     12253
     12251     12250     12254     12252     12250     12253     12252     12250     12254
     12253     12250     12254     12247     12253     12250     12250     12254     12255
     12254     12255     12256     12254     12255     12257     12254     12255     12258
     12256     12255     12257     12256     12255     12258     12257     12255     12258
     12255     12258     12259     12255     12258     12260     12255     12258     12266
     12259     12258     12260     12259     12258     12266     12260     12258     12266
     12258     12260     12261     12260     12261     12262     12260     12261     12263
     12262     12261     12263     12261     12263     12264     12261     12263     12265
     12261     12263     12275     12264     12263     12265     12264     12263     12275
     12265     12263     12275     12258     12266     12267     12258     12266     12268
     12258     12266     12269     12267     12266     12268     12267     12266     12269
     12268     12266     12269     12266     12269     12270     12269     12270     12271
     12269     12270     12272     12271     12270     12272     12270     12272     12273
     12270     12272     12274     12270     12272     12322     12273     12272     12274
     12273     12272     12322     12274     12272     12322     12263     12275     12276
     12263     12275     12277     12263     12275     12278     12276     12275     12277
     12276     12275     12278     12277     12275     12278     12275     12278     12279
     12275     12278     12280     12275     12278     12281     12279     12278     12280
     12279     12278     12281     12280     12278     12281     12278     12281     12282
     12278     12281     12283     12278     12281     12284     12282     12281     12283
     12282     12281     12284     12283     12281     12284     12281     12284     12285
     12281     12284     12286     12281     12284     12287     12285     12284     12286
     12285     12284     12287     12286     12284     12287     12284     12287     12288
     12284     12287     12289     12284     12287     12290     12288     12287     12289
     12288     12287     12290     12289     12287     12290     12287     12290     12291
     12287     12290     12292     12287     12290     12293     12291     12290     12292
     12291     12290     12293     12292     12290     12293     12290     12293     12294
     12290     12293     12295     12294     12293     12295     12293     12295     12296
     12293     12295     12297     12296     12295     12297     12295     12297     12298
     12295     12297     12299     12295     12297     12300     12298     12297     12299
     12298     12297     12300     12299     12297     12300     12297     12300     12301
     12297     12300     12302     12297     12300     12303     12301     12300     12302
     12301     12300     12303     12302     12300     12303     12300     12303     12304
     12300     12303     12305     12300     12303     12306     12304     12303     12305
     12304     12303     12306     12305     12303     12306     12303     12306     12307
     12303     12306     12308     12303     12306     12309     12307     12306     12308
     12307     12306     12309     12308     12306     12309     12306     12309     12310
     12306     12309     12311     12306     12309     12312     12310     12309     12311
     12310     12309     12312     12311     12309     12312     12309     12312     12313
     12309     12312     12314     12309     12312     12315     12313     12312     12314
     12313     12312     12315     12314     12312     12315     12312     12315     12316
     12312     12315     12317     12312     12315     12318     12316     12315     12317
     12316     12315     12318     12317     12315     12318     12315     12318     12319
     12315     12318     12320     12315     12318     12321     12319     12318     12320
     12319     12318     12321     12320     12318     12321     12272     12322     12323
     12272     12322     12324     12272     12322     12325     12323     12322     12324
     12323     12322     12325     12324     12322     12325     12322     12325     12326
     12322     12325     12327     12322     12325     12328     12326     12325     12327
     12326     12325     12328     12327     12325     12328     12325     12328     12329
     12325     12328     12330     12325     12328     12331     12329     12328     12330
     12329     12328     12331     12330     12328     12331     12328     12331     12332
     12328     12331     12333     12328     12331     12334     12332     12331     12333
     12332     12331     12334     12333     12331     12334     12331     12334     12335
     12331     12334     12336     12331     12334     12337     12335     12334     12336
     12335     12334     12337     12336     12334     12337     12334     12337     12338
     12334     12337     12339     12334     12337     12340     12338     12337     12339
     12338     12337     12340     12339     12337     12340     12337     12340     12341
     12337     12340     12342     12341     12340     12342     12340     12342     12343
     12340     12342     12344     12343     12342     12344     12342     12344     12345
     12342     12344     12346     12342     12344     12347     12345     12344     12346
     12345     12344     12347     12346     12344     12347     12344     12347     12348
     12344     12347     12349     12344     12347     12350     12348     12347     12349
     12348     12347     12350     12349     12347     12350     12347     12350     12351
     12347     12350     12352     12347     12350     12353     12351     12350     12352
     12351     12350     12353     12352     12350     12353     12350     12353     12354
     12350     12353     12355     12350     12353     12356     12354     12353     12355
     12354     12353     12356     12355     12353     12356     12353     12356     12357
     12353     12356     12358     12353     12356     12359     12357     12356     12358
     12357     12356     12359     12358     12356     12359     12356     12359     12360
     12356     12359     12361     12356     12359     12362     12360     12359     12361
     12360     12359     12362     12361     12359     12362     12359     12362     12363
     12359     12362     12364     12359     12362     12365     12363     12362     12364
     12363     12362     12365     12364     12362     12365     12362     12365     12366
     12362     12365     12367     12362     12365     12368     12366     12365     12367
     12366     12365     12368     12367     12365     12368     12370     12369     12373
     12370     12369     12377     12370     12369     12381     12373     12369     12377
     12373     12369     12381     12377     12369     12381     12369     12370     12371
     12369     12370     12372     12369     12370     12385     12371     12370     12372
     12371     12370     12385     12372     12370     12385     12369     12373     12374
     12369     12373     12375     12369     12373     12376     12374     12373     12375
     12374     12373     12376     12375     12373     12376     12369     12377     12378
     12369     12377     12379     12369     12377     12380     12378     12377     12379
     12378     12377     12380     12379     12377     12380     12369     12381     12382
     12369     12381     12383     12369     12381     12384     12382     12381     12383
     12382     12381     12384     12383     12381     12384     12370     12385     12386
     12370     12385     12387     12370     12385     12391     12386     12385     12387
     12386     12385     12391     12387     12385     12391     12389     12388     12390
     12389     12388     12391     12389     12388     12392     12390     12388     12391
     12390     12388     12392     12391     12388     12392     12385     12391     12388
     12388     12392     12393     12392     12393     12394     12392     12393     12395
     12392     12393     12396     12394     12393     12395     12394     12393     12396
     12395     12393     12396     12393     12396     12397     12393     12396     12398
     12393     12396     12404     12397     12396     12398     12397     12396     12404
     12398     12396     12404     12396     12398     12399     12398     12399     12400
     12398     12399     12401     12400     12399     12401     12399     12401     12402
     12399     12401     12403     12399     12401     12413     12402     12401     12403
     12402     12401     12413     12403     12401     12413     12396     12404     12405
     12396     12404     12406     12396     12404     12407     12405     12404     12406
     12405     12404     12407     12406     12404     12407     12404     12407     12408
     12407     12408     12409     12407     12408     12410     12409     12408     12410
     12408     12410     12411     12408     12410     12412     12408     12410     12460
     12411     12410     12412     12411     12410     12460     12412     12410     12460
     12401     12413     12414     12401     12413     12415     12401     12413     12416
     12414     12413     12415     12414     12413     12416     12415     12413     12416
     12413     12416     12417     12413     12416     12418     12413     12416     12419
     12417     12416     12418     12417     12416     12419     12418     12416     12419
     12416     12419     12420     12416     12419     12421     12416     12419     12422
     12420     12419     12421     12420     12419     12422     12421     12419     12422
     12419     12422     12423     12419     12422     12424     12419     12422     12425
     12423     12422     12424     12423     12422     12425     12424     12422     12425
     12422     12425     12426     12422     12425     12427     12422     12425     12428
     12426     12425     12427     12426     12425     12428     12427     12425     12428
     12425     12428     12429     12425     12428     12430     12425     12428     12431
     12429     12428     12430     12429     12428     12431     12430     12428     12431
     12428     12431     12432     12428     12431     12433     12432     12431     12433
     12431     12433     12434     12431     12433     12435     12434     12433     12435
     12433     12435     12436     12433     12435     12437     12433     12435     12438
     12436     12435     12437     12436     12435     12438     12437     12435     12438
     12435     12438     12439     12435     12438     12440     12435     12438     12441
     12439     12438     12440     12439     12438     12441     12440     12438     12441
     12438     12441     12442     12438     12441     12443     12438     12441     12444
     12442     12441     12443     12442     12441     12444     12443     12441     12444
     12441     12444     12445     12441     12444     12446     12441     12444     12447
     12445     12444     12446     12445     12444     12447     12446     12444     12447
     12444     12447     12448     12444     12447     12449     12444     12447     12450
     12448     12447     12449     12448     12447     12450     12449     12447     12450
     12447     12450     12451     12447     12450     12452     12447     12450     12453
     12451     12450     12452     12451     12450     12453     12452     12450     12453
     12450     12453     12454     12450     12453     12455     12450     12453     12456
     12454     12453     12455     12454     12453     12456     12455     12453     12456
     12453     12456     12457     12453     12456     12458     12453     12456     12459
     12457     12456     12458     12457     12456     12459     12458     12456     12459
     12410     12460     12461     12410     12460     12462     12410     12460     12463
     12461     12460     12462     12461     12460     12463     12462     12460     12463
     12460     12463     12464     12460     12463     12465     12460     12463     12466
     12464     12463     12465     12464     12463     12466     12465     12463     12466
     12463     12466     12467     12463     12466     12468     12463     12466     12469
     12467     12466     12468     12467     12466     12469     12468     12466     12469
     12466     12469     12470     12466     12469     12471     12466     12469     12472
     12470     12469     12471     12470     12469     12472     12471     12469     12472
     12469     12472     12473     12469     12472     12474     12469     12472     12475
     12473     12472     12474     12473     12472     12475     12474     12472     12475
     12472     12475     12476     12472     12475     12477     12472     12475     12478
     12476     12475     12477     12476     12475     12478     12477     12475     12478
     12475     12478     12479     12475     12478     12480     12479     12478     12480
     12478     12480     12481     12478     12480     12482     12481     12480     12482
     12480     12482     12483     12480     12482     12484     12480     12482     12485
     12483     12482     12484     12483     12482     12485     12484     12482     12485
     12482     12485     12486     12482     12485     12487     12482     12485     12488
     12486     12485     12487     12486     12485     12488     12487     12485     12488
     12485     12488     12489     12485     12488     12490     12485     12488     12491
     12489     12488     12490     12489     12488     12491     12490     12488     12491
     12488     12491     12492     12488     12491     12493     12488     12491     12494
     12492     12491     12493     12492     12491     12494     12493     12491     12494
     12491     12494     12495     12491     12494     12496     12491     12494     12497
     12495     12494     12496     12495     12494     12497     12496     12494     12497
     12494     12497     12498     12494     12497     12499     12494     12497     12500
     12498     12497     12499     12498     12497     12500     12499     12497     12500
     12497     12500     12501     12497     12500     12502     12497     12500     12503
     12501     12500     12502     12501     12500     12503     12502     12500     12503
     12500     12503     12504     12500     12503     12505     12500     12503     12506
     12504     12503     12505     12504     12503     12506     12505     12503     12506
     12508     12507     12511     12508     12507     12515     12508     12507     12519
     12511     12507     12515     12511     12507     12519     12515     12507     12519
     12507     12508     12509     12507     12508     12510     12507     12508     12523
     12509     12508     12510     12509     12508     12523     12510     12508     12523
     12507     12511     12512     12507     12511     12513     12507     12511     12514
     12512     12511     12513     12512     12511     12514     12513     12511     12514
     12507     12515     12516     12507     12515     12517     12507     12515     12518
     12516     12515     12517     12516     12515     12518     12517     12515     12518
     12507     12519     12520     12507     12519     12521     12507     12519     12522
     12520     12519     12521     12520     12519     12522     12521     12519     12522
     12508     12523     12524     12508     12523     12525     12508     12523     12529
     12524     12523     12525     12524     12523     12529     12525     12523     12529
     12527     12526     12528     12527     12526     12529     12527     12526     12530
     12528     12526     12529     12528     12526     12530     12529     12526     12530
     12523     12529     12526     12526     12530     12531     12530     12531     12532
     12530     12531     12533     12530     12531     12534     12532     12531     12533
     12532     12531     12534     12533     12531     12534     12531     12534     12535
     12531     12534     12536     12531     12534     12542     12535     12534     12536
     12535     12534     12542     12536     12534     12542     12534     12536     12537
     12536     12537     12538     12536     12537     12539     12538     12537     12539
     12537     12539     12540     12537     12539     12541     12537     12539     12551
     12540     12539     12541     12540     12539     12551     12541     12539     12551
     12534     12542     12543     12534     12542     12544     12534     12542     12545
     12543     12542     12544     12543     12542     12545     12544     12542     12545
     12542     12545     12546     12545     12546     12547     12545     12546     12548
     12547     12546     12548     12546     12548     12549     12546     12548     12550
     12546     12548     12598     12549     12548     12550     12549     12548     12598
     12550     12548     12598     12539     12551     12552     12539     12551     12553
     12539     12551     12554     12552     12551     12553     12552     12551     12554
     12553     12551     12554     12551     12554     12555     12551     12554     12556
     12551     12554     12557     12555     12554     12556     12555     12554     12557
     12556     12554     12557     12554     12557     12558     12554     12557     12559
     12554     12557     12560     12558     12557     12559     12558     12557     12560
     12559     12557     12560     12557     12560     12561     12557     12560     12562
     12557     12560     12563     12561     12560     12562     12561     12560     12563
     12562     12560     12563     12560     12563     12564     12560     12563     12565
     12560     12563     12566     12564     12563     12565     12564     12563     12566
     12565     12563     12566     12563     12566     12567     12563     12566     12568
     12563     12566     12569     12567     12566     12568     12567     12566     12569
     12568     12566     12569     12566     12569     12570     12566     12569     12571
     12570     12569     12571     12569     12571     12572     12569     12571     12573
     12572     12571     12573     12571     12573     12574     12571     12573     12575
     12571     12573     12576     12574     12573     12575     12574     12573     12576
     12575     12573     12576     12573     12576     12577     12573     12576     12578
     12573     12576     12579     12577     12576     12578     12577     12576     12579
     12578     12576     12579     12576     12579     12580     12576     12579     12581
     12576     12579     12582     12580     12579     12581     12580     12579     12582
     12581     12579     12582     12579     12582     12583     12579     12582     12584
     12579     12582     12585     12583     12582     12584     12583     12582     12585
     12584     12582     12585     12582     12585     12586     12582     12585     12587
     12582     12585     12588     12586     12585     12587     12586     12585     12588
     12587     12585     12588     12585     12588     12589     12585     12588     12590
     12585     12588     12591     12589     12588     12590     12589     12588     12591
     12590     12588     12591     12588     12591     12592     12588     12591     12593
     12588     12591     12594     12592     12591     12593     12592     12591     12594
     12593     12591     12594     12591     12594     12595     12591     12594     12596
     12591     12594     12597     12595     12594     12596     12595     12594     12597
     12596     12594     12597     12548     12598     12599     12548     12598     12600
     12548     12598     12601     12599     12598     12600     12599     12598     12601
     12600     12598     12601     12598     12601     12602     12598     12601     12603
     12598     12601     12604     12602     12601     12603     12602     12601     12604
     12603     12601     12604     12601     12604     12605     12601     12604     12606
     12601     12604     12607     12605     12604     12606     12605     12604     12607
     12606     12604     12607     12604     12607     12608     12604     12607     12609
     12604     12607     12610     12608     12607     12609     12608     12607     12610
     12609     12607     12610     12607     12610     12611     12607     12610     12612
     12607     12610     12613     12611     12610     12612     12611     12610     12613
     12612     12610     12613     12610     12613     12614     12610     12613     12615
     12610     12613     12616     12614     12613     12615     12614     12613     12616
     12615     12613     12616     12613     12616     12617     12613     12616     12618
     12617     12616     12618     12616     12618     12619     12616     12618     12620
     12619     12618     12620     12618     12620     12621     12618     12620     12622
     12618     12620     12623     12621     12620     12622     12621     12620     12623
     12622     12620     12623     12620     12623     12624     12620     12623     12625
     12620     12623     12626     12624     12623     12625     12624     12623     12626
     12625     12623     12626     12623     12626     12627     12623     12626     12628
     12623     12626     12629     12627     12626     12628     12627     12626     12629
     12628     12626     12629     12626     12629     12630     12626     12629     12631
     12626     12629     12632     12630     12629     12631     12630     12629     12632
     12631     12629     12632     12629     12632     12633     12629     12632     12634
     12629     12632     12635     12633     12632     12634     12633     12632     12635
     12634     12632     12635     12632     12635     12636     12632     12635     12637
     12632     12635     12638     12636     12635     12637     12636     12635     12638
     12637     12635     12638     12635     12638     12639     12635     12638     12640
     12635     12638     12641     12639     12638     12640     12639     12638     12641
     12640     12638     12641     12638     12641     12642     12638     12641     12643
     12638     12641     12644     12642     12641     12643     12642     12641     12644
     12643     12641     12644     12646     12645     12649     12646     12645     12653
     12646     12645     12657     12649     12645     12653     12649     12645     12657
     12653     12645     12657     12645     12646     12647     12645     12646     12648
     12645     12646     12661     12647     12646     12648     12647     12646     12661
     12648     12646     12661     12645     12649     12650     12645     12649     12651
     12645     12649     12652     12650     12649     12651     12650     12649     12652
     12651     12649     12652     12645     12653     12654     12645     12653     12655
     12645     12653     12656     12654     12653     12655     12654     12653     12656
     12655     12653     12656     12645     12657     12658     12645     12657     12659
     12645     12657     12660     12658     12657     12659     12658     12657     12660
     12659     12657     12660     12646     12661     12662     12646     12661     12663
     12646     12661     12667     12662     12661     12663     12662     12661     12667
     12663     12661     12667     12665     12664     12666     12665     12664     12667
     12665     12664     12668     12666     12664     12667     12666     12664     12668
     12667     12664     12668     12661     12667     12664     12664     12668     12669
     12668     12669     12670     12668     12669     12671     12668     12669     12672
     12670     12669     12671     12670     12669     12672     12671     12669     12672
     12669     12672     12673     12669     12672     12674     12669     12672     12680
     12673     12672     12674     12673     12672     12680     12674     12672     12680
     12672     12674     12675     12674     12675     12676     12674     12675     12677
     12676     12675     12677     12675     12677     12678     12675     12677     12679
     12675     12677     12689     12678     12677     12679     12678     12677     12689
     12679     12677     12689     12672     12680     12681     12672     12680     12682
     12672     12680     12683     12681     12680     12682     12681     12680     12683
     12682     12680     12683     12680     12683     12684     12683     12684     12685
     12683     12684     12686     12685     12684     12686     12684     12686     12687
     12684     12686     12688     12684     12686     12736     12687     12686     12688
     12687     12686     12736     12688     12686     12736     12677     12689     12690
     12677     12689     12691     12677     12689     12692     12690     12689     12691
     12690     12689     12692     12691     12689     12692     12689     12692     12693
     12689     12692     12694     12689     12692     12695     12693     12692     12694
     12693     12692     12695     12694     12692     12695     12692     12695     12696
     12692     12695     12697     12692     12695     12698     12696     12695     12697
     12696     12695     12698     12697     12695     12698     12695     12698     12699
     12695     12698     12700     12695     12698     12701     12699     12698     12700
     12699     12698     12701     12700     12698     12701     12698     12701     12702
     12698     12701     12703     12698     12701     12704     12702     12701     12703
     12702     12701     12704     12703     12701     12704     12701     12704     12705
     12701     12704     12706     12701     12704     12707     12705     12704     12706
     12705     12704     12707     12706     12704     12707     12704     12707     12708
     12704     12707     12709     12708     12707     12709     12707     12709     12710
     12707     12709     12711     12710     12709     12711     12709     12711     12712
     12709     12711     12713     12709     12711     12714     12712     12711     12713
     12712     12711     12714     12713     12711     12714     12711     12714     12715
     12711     12714     12716     12711     12714     12717     12715     12714     12716
     12715     12714     12717     12716     12714     12717     12714     12717     12718
     12714     12717     12719     12714     12717     12720     12718     12717     12719
     12718     12717     12720     12719     12717     12720     12717     12720     12721
     12717     12720     12722     12717     12720     12723     12721     12720     12722
     12721     12720     12723     12722     12720     12723     12720     12723     12724
     12720     12723     12725     12720     12723     12726     12724     12723     12725
     12724     12723     12726     12725     12723     12726     12723     12726     12727
     12723     12726     12728     12723     12726     12729     12727     12726     12728
     12727     12726     12729     12728     12726     12729     12726     12729     12730
     12726     12729     12731     12726     12729     12732     12730     12729     12731
     12730     12729     12732     12731     12729     12732     12729     12732     12733
     12729     12732     12734     12729     12732     12735     12733     12732     12734
     12733     12732     12735     12734     12732     12735     12686     12736     12737
     12686     12736     12738     12686     12736     12739     12737     12736     12738
     12737     12736     12739     12738     12736     12739     12736     12739     12740
     12736     12739     12741     12736     12739     12742     12740     12739     12741
     12740     12739     12742     12741     12739     12742     12739     12742     12743
     12739     12742     12744     12739     12742     12745     12743     12742     12744
     12743     12742     12745     12744     12742     12745     12742     12745     12746
     12742     12745     12747     12742     12745     12748     12746     12745     12747
     12746     12745     12748     12747     12745     12748     12745     12748     12749
     12745     12748     12750     12745     12748     12751     12749     12748     12750
     12749     12748     12751     12750     12748     12751     12748     12751     12752
     12748     12751     12753     12748     12751     12754     12752     12751     12753
     12752     12751     12754     12753     12751     12754     12751     12754     12755
     12751     12754     12756     12755     12754     12756     12754     12756     12757
     12754     12756     12758     12757     12756     12758     12756     12758     12759
     12756     12758     12760     12756     12758     12761     12759     12758     12760
     12759     12758     12761     12760     12758     12761     12758     12761     12762
     12758     12761     12763     12758     12761     12764     12762     12761     12763
     12762     12761     12764     12763     12761     12764     12761     12764     12765
     12761     12764     12766     12761     12764     12767     12765     12764     12766
     12765     12764     12767     12766     12764     12767     12764     12767     12768
     12764     12767     12769     12764     12767     12770     12768     12767     12769
     12768     12767     12770     12769     12767     12770     12767     12770     12771
     12767     12770     12772     12767     12770     12773     12771     12770     12772
     12771     12770     12773     12772     12770     12773     12770     12773     12774
     12770     12773     12775     12770     12773     12776     12774     12773     12775
     12774     12773     12776     12775     12773     12776     12773     12776     12777
     12773     12776     12778     12773     12776     12779     12777     12776     12778
     12777     12776     12779     12778     12776     12779     12776     12779     12780
     12776     12779     12781     12776     12779     12782     12780     12779     12781
     12780     12779     12782     12781     12779     12782     12784     12783     12787
     12784     12783     12791     12784     12783     12795     12787     12783     12791
     12787     12783     12795     12791     12783     12795     12783     12784     12785
     12783     12784     12786     12783     12784     12799     12785     12784     12786
     12785     12784     12799     12786     12784     12799     12783     12787     12788
     12783     12787     12789     12783     12787     12790     12788     12787     12789
     12788     12787     12790     12789     12787     12790     12783     12791     12792
     12783     12791     12793     12783     12791     12794     12792     12791     12793
     12792     12791     12794     12793     12791     12794     12783     12795     12796
     12783     12795     12797     12783     12795     12798     12796     12795     12797
     12796     12795     12798     12797     12795     12798     12784     12799     12800
     12784     12799     12801     12784     12799     12805     12800     12799     12801
     12800     12799     12805     12801     12799     12805     12803     12802     12804
     12803     12802     12805     12803     12802     12806     12804     12802     12805
     12804     12802     12806     12805     12802     12806     12799     12805     12802
     12802     12806     12807     12806     12807     12808     12806     12807     12809
     12806     12807     12810     12808     12807     12809     12808     12807     12810
     12809     12807     12810     12807     12810     12811     12807     12810     12812
     12807     12810     12818     12811     12810     12812     12811     12810     12818
     12812     12810     12818     12810     12812     12813     12812     12813     12814
     12812     12813     12815     12814     12813     12815     12813     12815     12816
     12813     12815     12817     12813     12815     12827     12816     12815     12817
     12816     12815     12827     12817     12815     12827     12810     12818     12819
     12810     12818     12820     12810     12818     12821     12819     12818     12820
     12819     12818     12821     12820     12818     12821     12818     12821     12822
     12821     12822     12823     12821     12822     12824     12823     12822     12824
     12822     12824     12825     12822     12824     12826     12822     12824     12874
     12825     12824     12826     12825     12824     12874     12826     12824     12874
     12815     12827     12828     12815     12827     12829     12815     12827     12830
     12828     12827     12829     12828     12827     12830     12829     12827     12830
     12827     12830     12831     12827     12830     12832     12827     12830     12833
     12831     12830     12832     12831     12830     12833     12832     12830     12833
     12830     12833     12834     12830     12833     12835     12830     12833     12836
     12834     12833     12835     12834     12833     12836     12835     12833     12836
     12833     12836     12837     12833     12836     12838     12833     12836     12839
     12837     12836     12838     12837     12836     12839     12838     12836     12839
     12836     12839     12840     12836     12839     12841     12836     12839     12842
     12840     12839     12841     12840     12839     12842     12841     12839     12842
     12839     12842     12843     12839     12842     12844     12839     12842     12845
     12843     12842     12844     12843     12842     12845     12844     12842     12845
     12842     12845     12846     12842     12845     12847     12846     12845     12847
     12845     12847     12848     12845     12847     12849     12848     12847     12849
     12847     12849     12850     12847     12849     12851     12847     12849     12852
     12850     12849     12851     12850     12849     12852     12851     12849     12852
     12849     12852     12853     12849     12852     12854     12849     12852     12855
     12853     12852     12854     12853     12852     12855     12854     12852     12855
     12852     12855     12856     12852     12855     12857     12852     12855     12858
     12856     12855     12857     12856     12855     12858     12857     12855     12858
     12855     12858     12859     12855     12858     12860     12855     12858     12861
     12859     12858     12860     12859     12858     12861     12860     12858     12861
     12858     12861     12862     12858     12861     12863     12858     12861     12864
     12862     12861     12863     12862     12861     12864     12863     12861     12864
     12861     12864     12865     12861     12864     12866     12861     12864     12867
     12865     12864     12866     12865     12864     12867     12866     12864     12867
     12864     12867     12868     12864     12867     12869     12864     12867     12870
     12868     12867     12869     12868     12867     12870     12869     12867     12870
     12867     12870     12871     12867     12870     12872     12867     12870     12873
     12871     12870     12872     12871     12870     12873     12872     12870     12873
     12824     12874     12875     12824     12874     12876     12824     12874     12877
     12875     12874     12876     12875     12874     12877     12876     12874     12877
     12874     12877     12878     12874     12877     12879     12874     12877     12880
     12878     12877     12879     12878     12877     12880     12879     12877     12880
     12877     12880     12881     12877     12880     12882     12877     12880     12883
     12881     12880     12882     12881     12880     12883     12882     12880     12883
     12880     12883     12884     12880     12883     12885     12880     12883     12886
     12884     12883     12885     12884     12883     12886     12885     12883     12886
     12883     12886     12887     12883     12886     12888     12883     12886     12889
     12887     12886     12888     12887     12886     12889     12888     12886     12889
     12886     12889     12890     12886     12889     12891     12886     12889     12892
     12890     12889     12891     12890     12889     12892     12891     12889     12892
     12889     12892     12893     12889     12892     12894     12893     12892     12894
     12892     12894     12895     12892     12894     12896     12895     12894     12896
     12894     12896     12897     12894     12896     12898     12894     12896     12899
     12897     12896     12898     12897     12896     12899     12898     12896     12899
     12896     12899     12900     12896     12899     12901     12896     12899     12902
     12900     12899     12901     12900     12899     12902     12901     12899     12902
     12899     12902     12903     12899     12902     12904     12899     12902     12905
     12903     12902     12904     12903     12902     12905     12904     12902     12905
     12902     12905     12906     12902     12905     12907     12902     12905     12908
     12906     12905     12907     12906     12905     12908     12907     12905     12908
     12905     12908     12909     12905     12908     12910     12905     12908     12911
     12909     12908     12910     12909     12908     12911     12910     12908     12911
     12908     12911     12912     12908     12911     12913     12908     12911     12914
     12912     12911     12913     12912     12911     12914     12913     12911     12914
     12911     12914     12915     12911     12914     12916     12911     12914     12917
     12915     12914     12916     12915     12914     12917     12916     12914     12917
     12914     12917     12918     12914     12917     12919     12914     12917     12920
     12918     12917     12919     12918     12917     12920     12919     12917     12920
     12922     12921     12925     12922     12921     12929     12922     12921     12933
     12925     12921     12929     12925     12921     12933     12929     12921     12933
     12921     12922     12923     12921     12922     12924     12921     12922     12937
     12923     12922     12924     12923     12922     12937     12924     12922     12937
     12921     12925     12926     12921     12925     12927     12921     12925     12928
     12926     12925     12927     12926     12925     12928     12927     12925     12928
     12921     12929     12930     12921     12929     12931     12921     12929     12932
     12930     12929     12931     12930     12929     12932     12931     12929     12932
     12921     12933     12934     12921     12933     12935     12921     12933     12936
     12934     12933     12935     12934     12933     12936     12935     12933     12936
     12922     12937     12938     12922     12937     12939     12922     12937     12943
     12938     12937     12939     12938     12937     12943     12939     12937     12943
     12941     12940     12942     12941     12940     12943     12941     12940     12944
     12942     12940     12943     12942     12940     12944     12943     12940     12944
     12937     12943     12940     12940     12944     12945     12944     12945     12946
     12944     12945     12947     12944     12945     12948     12946     12945     12947
     12946     12945     12948     12947     12945     12948     12945     12948     12949
     12945     12948     12950     12945     12948     12956     12949     12948     12950
     12949     12948     12956     12950     12948     12956     12948     12950     12951
     12950     12951     12952     12950     12951     12953     12952     12951     12953
     12951     12953     12954     12951     12953     12955     12951     12953     12965
     12954     12953     12955     12954     12953     12965     12955     12953     12965
     12948     12956     12957     12948     12956     12958     12948     12956     12959
     12957     12956     12958     12957     12956     12959     12958     12956     12959
     12956     12959     12960     12959     12960     12961     12959     12960     12962
     12961     12960     12962     12960     12962     12963     12960     12962     12964
     12960     12962     13012     12963     12962     12964     12963     12962     13012
     12964     12962     13012     12953     12965     12966     12953     12965     12967
     12953     12965     12968     12966     12965     12967     12966     12965     12968
     12967     12965     12968     12965     12968     12969     12965     12968     12970
     12965     12968     12971     12969     12968     12970     12969     12968     12971
     12970     12968     12971     12968     12971     12972     12968     12971     12973
     12968     12971     12974     12972     12971     12973     12972     12971     12974
     12973     12971     12974     12971     12974     12975     12971     12974     12976
     12971     12974     12977     12975     12974     12976     12975     12974     12977
     12976     12974     12977     12974     12977     12978     12974     12977     12979
     12974     12977     12980     12978     12977     12979     12978     12977     12980
     12979     12977     12980     12977     12980     12981     12977     12980     12982
     12977     12980     12983     12981     12980     12982     12981     12980     12983
     12982     12980     12983     12980     12983     12984     12980     12983     12985
     12984     12983     12985     12983     12985     12986     12983     12985     12987
     12986     12985     12987     12985     12987     12988     12985     12987     12989
     12985     12987     12990     12988     12987     12989     12988     12987     12990
     12989     12987     12990     12987     12990     12991     12987     12990     12992
     12987     12990     12993     12991     12990     12992     12991     12990     12993
     12992     12990     12993     12990     12993     12994     12990     12993     12995
     12990     12993     12996     12994     12993     12995     12994     12993     12996
     12995     12993     12996     12993     12996     12997     12993     12996     12998
     12993     12996     12999     12997     12996     12998     12997     12996     12999
     12998     12996     12999     12996     12999     13000     12996     12999     13001
     12996     12999     13002     13000     12999     13001     13000     12999     13002
     13001     12999     13002     12999     13002     13003     12999     13002     13004
     12999     13002     13005     13003     13002     13004     13003     13002     13005
     13004     13002     13005     13002     13005     13006     13002     13005     13007
     13002     13005     13008     13006     13005     13007     13006     13005     13008
     13007     13005     13008     13005     13008     13009     13005     13008     13010
     13005     13008     13011     13009     13008     13010     13009     13008     13011
     13010     13008     13011     12962     13012     13013     12962     13012     13014
     12962     13012     13015     13013     13012     13014     13013     13012     13015
     13014     13012     13015     13012     13015     13016     13012     13015     13017
     13012     13015     13018     13016     13015     13017     13016     13015     13018
     13017     13015     13018     13015     13018     13019     13015     13018     13020
     13015     13018     13021     13019     13018     13020     13019     13018     13021
     13020     13018     13021     13018     13021     13022     13018     13021     13023
     13018     13021     13024     13022     13021     13023     13022     13021     13024
     13023     13021     13024     13021     13024     13025     13021     13024     13026
     13021     13024     13027     13025     13024     13026     13025     13024     13027
     13026     13024     13027     13024     13027     13028     13024     13027     13029
     13024     13027     13030     13028     13027     13029     13028     13027     13030
     13029     13027     13030     13027     13030     13031     13027     13030     13032
     13031     13030     13032     13030     13032     13033     13030     13032     13034
     13033     13032     13034     13032     13034     13035     13032     13034     13036
     13032     13034     13037     13035     13034     13036     13035     13034     13037
     13036     13034     13037     13034     13037     13038     13034     13037     13039
     13034     13037     13040     13038     13037     13039     13038     13037     13040
     13039     13037     13040     13037     13040     13041     13037     13040     13042
     13037     13040     13043     13041     13040     13042     13041     13040     13043
     13042     13040     13043     13040     13043     13044     13040     13043     13045
     13040     13043     13046     13044     13043     13045     13044     13043     13046
     13045     13043     13046     13043     13046     13047     13043     13046     13048
     13043     13046     13049     13047     13046     13048     13047     13046     13049
     13048     13046     13049     13046     13049     13050     13046     13049     13051
     13046     13049     13052     13050     13049     13051     13050     13049     13052
     13051     13049     13052     13049     13052     13053     13049     13052     13054
     13049     13052     13055     13053     13052     13054     13053     13052     13055
     13054     13052     13055     13052     13055     13056     13052     13055     13057
     13052     13055     13058     13056     13055     13057     13056     13055     13058
     13057     13055     13058     13060     13059     13063     13060     13059     13067
     13060     13059     13071     13063     13059     13067     13063     13059     13071
     13067     13059     13071     13059     13060     13061     13059     13060     13062
     13059     13060     13075     13061     13060     13062     13061     13060     13075
     13062     13060     13075     13059     13063     13064     13059     13063     13065
     13059     13063     13066     13064     13063     13065     13064     13063     13066
     13065     13063     13066     13059     13067     13068     13059     13067     13069
     13059     13067     13070     13068     13067     13069     13068     13067     13070
     13069     13067     13070     13059     13071     13072     13059     13071     13073
     13059     13071     13074     13072     13071     13073     13072     13071     13074
     13073     13071     13074     13060     13075     13076     13060     13075     13077
     13060     13075     13081     13076     13075     13077     13076     13075     13081
     13077     13075     13081     13079     13078     13080     13079     13078     13081
     13079     13078     13082     13080     13078     13081     13080     13078     13082
     13081     13078     13082     13075     13081     13078     13078     13082     13083
     13082     13083     13084     13082     13083     13085     13082     13083     13086
     13084     13083     13085     13084     13083     13086     13085     13083     13086
     13083     13086     13087     13083     13086     13088     13083     13086     13094
     13087     13086     13088     13087     13086     13094     13088     13086     13094
     13086     13088     13089     13088     13089     13090     13088     13089     13091
     13090     13089     13091     13089     13091     13092     13089     13091     13093
     13089     13091     13103     13092     13091     13093     13092     13091     13103
     13093     13091     13103     13086     13094     13095     13086     13094     13096
     13086     13094     13097     13095     13094     13096     13095     13094     13097
     13096     13094     13097     13094     13097     13098     13097     13098     13099
     13097     13098     13100     13099     13098     13100     13098     13100     13101
     13098     13100     13102     13098     13100     13150     13101     13100     13102
     13101     13100     13150     13102     13100     13150     13091     13103     13104
     13091     13103     13105     13091     13103     13106     13104     13103     13105
     13104     13103     13106     13105     13103     13106     13103     13106     13107
     13103     13106     13108     13103     13106     13109     13107     13106     13108
     13107     13106     13109     13108     13106     13109     13106     13109     13110
     13106     13109     13111     13106     13109     13112     13110     13109     13111
     13110     13109     13112     13111     13109     13112     13109     13112     13113
     13109     13112     13114     13109     13112     13115     13113     13112     13114
     13113     13112     13115     13114     13112     13115     13112     13115     13116
     13112     13115     13117     13112     13115     13118     13116     13115     13117
     13116     13115     13118     13117     13115     13118     13115     13118     13119
     13115     13118     13120     13115     13118     13121     13119     13118     13120
     13119     13118     13121     13120     13118     13121     13118     13121     13122
     13118     13121     13123     13122     13121     13123     13121     13123     13124
     13121     13123     13125     13124     13123     13125     13123     13125     13126
     13123     13125     13127     13123     13125     13128     13126     13125     13127
     13126     13125     13128     13127     13125     13128     13125     13128     13129
     13125     13128     13130     13125     13128     13131     13129     13128     13130
     13129     13128     13131     13130     13128     13131     13128     13131     13132
     13128     13131     13133     13128     13131     13134     13132     13131     13133
     13132     13131     13134     13133     13131     13134     13131     13134     13135
     13131     13134     13136     13131     13134     13137     13135     13134     13136
     13135     13134     13137     13136     13134     13137     13134     13137     13138
     13134     13137     13139     13134     13137     13140     13138     13137     13139
     13138     13137     13140     13139     13137     13140     13137     13140     13141
     13137     13140     13142     13137     13140     13143     13141     13140     13142
     13141     13140     13143     13142     13140     13143     13140     13143     13144
     13140     13143     13145     13140     13143     13146     13144     13143     13145
     13144     13143     13146     13145     13143     13146     13143     13146     13147
     13143     13146     13148     13143     13146     13149     13147     13146     13148
     13147     13146     13149     13148     13146     13149     13100     13150     13151
     13100     13150     13152     13100     13150     13153     13151     13150     13152
     13151     13150     13153     13152     13150     13153     13150     13153     13154
     13150     13153     13155     13150     13153     13156     13154     13153     13155
     13154     13153     13156     13155     13153     13156     13153     13156     13157
     13153     13156     13158     13153     13156     13159     13157     13156     13158
     13157     13156     13159     13158     13156     13159     13156     13159     13160
     13156     13159     13161     13156     13159     13162     13160     13159     13161
     13160     13159     13162     13161     13159     13162     13159     13162     13163
     13159     13162     13164     13159     13162     13165     13163     13162     13164
     13163     13162     13165     13164     13162     13165     13162     13165     13166
     13162     13165     13167     13162     13165     13168     13166     13165     13167
     13166     13165     13168     13167     13165     13168     13165     13168     13169
     13165     13168     13170     13169     13168     13170     13168     13170     13171
     13168     13170     13172     13171     13170     13172     13170     13172     13173
     13170     13172     13174     13170     13172     13175     13173     13172     13174
     13173     13172     13175     13174     13172     13175     13172     13175     13176
     13172     13175     13177     13172     13175     13178     13176     13175     13177
     13176     13175     13178     13177     13175     13178     13175     13178     13179
     13175     13178     13180     13175     13178     13181     13179     13178     13180
     13179     13178     13181     13180     13178     13181     13178     13181     13182
     13178     13181     13183     13178     13181     13184     13182     13181     13183
     13182     13181     13184     13183     13181     13184     13181     13184     13185
     13181     13184     13186     13181     13184     13187     13185     13184     13186
     13185     13184     13187     13186     13184     13187     13184     13187     13188
     13184     13187     13189     13184     13187     13190     13188     13187     13189
     13188     13187     13190     13189     13187     13190     13187     13190     13191
     13187     13190     13192     13187     13190     13193     13191     13190     13192
     13191     13190     13193     13192     13190     13193     13190     13193     13194
     13190     13193     13195     13190     13193     13196     13194     13193     13195
     13194     13193     13196     13195     13193     13196     13198     13197     13201
     13198     13197     13205     13198     13197     13209     13201     13197     13205
     13201     13197     13209     13205     13197     13209     13197     13198     13199
     13197     13198     13200     13197     13198     13213     13199     13198     13200
     13199     13198     13213     13200     13198     13213     13197     13201     13202
     13197     13201     13203     13197     13201     13204     13202     13201     13203
     13202     13201     13204     13203     13201     13204     13197     13205     13206
     13197     13205     13207     13197     13205     13208     13206     13205     13207
     13206     13205     13208     13207     13205     13208     13197     13209     13210
     13197     13209     13211     13197     13209     13212     13210     13209     13211
     13210     13209     13212     13211     13209     13212     13198     13213     13214
     13198     13213     13215     13198     13213     13219     13214     13213     13215
     13214     13213     13219     13215     13213     13219     13217     13216     13218
     13217     13216     13219     13217     13216     13220     13218     13216     13219
     13218     13216     13220     13219     13216     13220     13213     13219     13216
     13216     13220     13221     13220     13221     13222     13220     13221     13223
     13220     13221     13224     13222     13221     13223     13222     13221     13224
     13223     13221     13224     13221     13224     13225     13221     13224     13226
     13221     13224     13232     13225     13224     13226     13225     13224     13232
     13226     13224     13232     13224     13226     13227     13226     13227     13228
     13226     13227     13229     13228     13227     13229     13227     13229     13230
     13227     13229     13231     13227     13229     13241     13230     13229     13231
     13230     13229     13241     13231     13229     13241     13224     13232     13233
     13224     13232     13234     13224     13232     13235     13233     13232     13234
     13233     13232     13235     13234     13232     13235     13232     13235     13236
     13235     13236     13237     13235     13236     13238     13237     13236     13238
     13236     13238     13239     13236     13238     13240     13236     13238     13288
     13239     13238     13240     13239     13238     13288     13240     13238     13288
     13229     13241     13242     13229     13241     13243     13229     13241     13244
     13242     13241     13243     13242     13241     13244     13243     13241     13244
     13241     13244     13245     13241     13244     13246     13241     13244     13247
     13245     13244     13246     13245     13244     13247     13246     13244     13247
     13244     13247     13248     13244     13247     13249     13244     13247     13250
     13248     13247     13249     13248     13247     13250     13249     13247     13250
     13247     13250     13251     13247     13250     13252     13247     13250     13253
     13251     13250     13252     13251     13250     13253     13252     13250     13253
     13250     13253     13254     13250     13253     13255     13250     13253     13256
     13254     13253     13255     13254     13253     13256     13255     13253     13256
     13253     13256     13257     13253     13256     13258     13253     13256     13259
     13257     13256     13258     13257     13256     13259     13258     13256     13259
     13256     13259     13260     13256     13259     13261     13260     13259     13261
     13259     13261     13262     13259     13261     13263     13262     13261     13263
     13261     13263     13264     13261     13263     13265     13261     13263     13266
     13264     13263     13265     13264     13263     13266     13265     13263     13266
     13263     13266     13267     13263     13266     13268     13263     13266     13269
     13267     13266     13268     13267     13266     13269     13268     13266     13269
     13266     13269     13270     13266     13269     13271     13266     13269     13272
     13270     13269     13271     13270     13269     13272     13271     13269     13272
     13269     13272     13273     13269     13272     13274     13269     13272     13275
     13273     13272     13274     13273     13272     13275     13274     13272     13275
     13272     13275     13276     13272     13275     13277     13272     13275     13278
     13276     13275     13277     13276     13275     13278     13277     13275     13278
     13275     13278     13279     13275     13278     13280     13275     13278     13281
     13279     13278     13280     13279     13278     13281     13280     13278     13281
     13278     13281     13282     13278     13281     13283     13278     13281     13284
     13282     13281     13283     13282     13281     13284     13283     13281     13284
     13281     13284     13285     13281     13284     13286     13281     13284     13287
     13285     13284     13286     13285     13284     13287     13286     13284     13287
     13238     13288     13289     13238     13288     13290     13238     13288     13291
     13289     13288     13290     13289     13288     13291     13290     13288     13291
     13288     13291     13292     13288     13291     13293     13288     13291     13294
     13292     13291     13293     13292     13291     13294     13293     13291     13294
     13291     13294     13295     13291     13294     13296     13291     13294     13297
     13295     13294     13296     13295     13294     13297     13296     13294     13297
     13294     13297     13298     13294     13297     13299     13294     13297     13300
     13298     13297     13299     13298     13297     13300     13299     13297     13300
     13297     13300     13301     13297     13300     13302     13297     13300     13303
     13301     13300     13302     13301     13300     13303     13302     13300     13303
     13300     13303     13304     13300     13303     13305     13300     13303     13306
     13304     13303     13305     13304     13303     13306     13305     13303     13306
     13303     13306     13307     13303     13306     13308     13307     13306     13308
     13306     13308     13309     13306     13308     13310     13309     13308     13310
     13308     13310     13311     13308     13310     13312     13308     13310     13313
     13311     13310     13312     13311     13310     13313     13312     13310     13313
     13310     13313     13314     13310     13313     13315     13310     13313     13316
     13314     13313     13315     13314     13313     13316     13315     13313     13316
     13313     13316     13317     13313     13316     13318     13313     13316     13319
     13317     13316     13318     13317     13316     13319     13318     13316     13319
     13316     13319     13320     13316     13319     13321     13316     13319     13322
     13320     13319     13321     13320     13319     13322     13321     13319     13322
     13319     13322     13323     13319     13322     13324     13319     13322     13325
     13323     13322     13324     13323     13322     13325     13324     13322     13325
     13322     13325     13326     13322     13325     13327     13322     13325     13328
     13326     13325     13327     13326     13325     13328     13327     13325     13328
     13325     13328     13329     13325     13328     13330     13325     13328     13331
     13329     13328     13330     13329     13328     13331     13330     13328     13331
     13328     13331     13332     13328     13331     13333     13328     13331     13334
     13332     13331     13333     13332     13331     13334     13333     13331     13334
     13336     13335     13339     13336     13335     13343     13336     13335     13347
     13339     13335     13343     13339     13335     13347     13343     13335     13347
     13335     13336     13337     13335     13336     13338     13335     13336     13351
     13337     13336     13338     13337     13336     13351     13338     13336     13351
     13335     13339     13340     13335     13339     13341     13335     13339     13342
     13340     13339     13341     13340     13339     13342     13341     13339     13342
     13335     13343     13344     13335     13343     13345     13335     13343     13346
     13344     13343     13345     13344     13343     13346     13345     13343     13346
     13335     13347     13348     13335     13347     13349     13335     13347     13350
     13348     13347     13349     13348     13347     13350     13349     13347     13350
     13336     13351     13352     13336     13351     13353     13336     13351     13357
     13352     13351     13353     13352     13351     13357     13353     13351     13357
     13355     13354     13356     13355     13354     13357     13355     13354     13358
     13356     13354     13357     13356     13354     13358     13357     13354     13358
     13351     13357     13354     13354     13358     13359     13358     13359     13360
     13358     13359     13361     13358     13359     13362     13360     13359     13361
     13360     13359     13362     13361     13359     13362     13359     13362     13363
     13359     13362     13364     13359     13362     13370     13363     13362     13364
     13363     13362     13370     13364     13362     13370     13362     13364     13365
     13364     13365     13366     13364     13365     13367     13366     13365     13367
     13365     13367     13368     13365     13367     13369     13365     13367     13379
     13368     13367     13369     13368     13367     13379     13369     13367     13379
     13362     13370     13371     13362     13370     13372     13362     13370     13373
     13371     13370     13372     13371     13370     13373     13372     13370     13373
     13370     13373     13374     13373     13374     13375     13373     13374     13376
     13375     13374     13376     13374     13376     13377     13374     13376     13378
     13374     13376     13426     13377     13376     13378     13377     13376     13426
     13378     13376     13426     13367     13379     13380     13367     13379     13381
     13367     13379     13382     13380     13379     13381     13380     13379     13382
     13381     13379     13382     13379     13382     13383     13379     13382     13384
     13379     13382     13385     13383     13382     13384     13383     13382     13385
     13384     13382     13385     13382     13385     13386     13382     13385     13387
     13382     13385     13388     13386     13385     13387     13386     13385     13388
     13387     13385     13388     13385     13388     13389     13385     13388     13390
     13385     13388     13391     13389     13388     13390     13389     13388     13391
     13390     13388     13391     13388     13391     13392     13388     13391     13393
     13388     13391     13394     13392     13391     13393     13392     13391     13394
     13393     13391     13394     13391     13394     13395     13391     13394     13396
     13391     13394     13397     13395     13394     13396     13395     13394     13397
     13396     13394     13397     13394     13397     13398     13394     13397     13399
     13398     13397     13399     13397     13399     13400     13397     13399     13401
     13400     13399     13401     13399     13401     13402     13399     13401     13403
     13399     13401     13404     13402     13401     13403     13402     13401     13404
     13403     13401     13404     13401     13404     13405     13401     13404     13406
     13401     13404     13407     13405     13404     13406     13405     13404     13407
     13406     13404     13407     13404     13407     13408     13404     13407     13409
     13404     13407     13410     13408     13407     13409     13408     13407     13410
     13409     13407     13410     13407     13410     13411     13407     13410     13412
     13407     13410     13413     13411     13410     13412     13411     13410     13413
     13412     13410     13413     13410     13413     13414     13410     13413     13415
     13410     13413     13416     13414     13413     13415     13414     13413     13416
     13415     13413     13416     13413     13416     13417     13413     13416     13418
     13413     13416     13419     13417     13416     13418     13417     13416     13419
     13418     13416     13419     13416     13419     13420     13416     13419     13421
     13416     13419     13422     13420     13419     13421     13420     13419     13422
     13421     13419     13422     13419     13422     13423     13419     13422     13424
     13419     13422     13425     13423     13422     13424     13423     13422     13425
     13424     13422     13425     13376     13426     13427     13376     13426     13428
     13376     13426     13429     13427     13426     13428     13427     13426     13429
     13428     13426     13429     13426     13429     13430     13426     13429     13431
     13426     13429     13432     13430     13429     13431     13430     13429     13432
     13431     13429     13432     13429     13432     13433     13429     13432     13434
     13429     13432     13435     13433     13432     13434     13433     13432     13435
     13434     13432     13435     13432     13435     13436     13432     13435     13437
     13432     13435     13438     13436     13435     13437     13436     13435     13438
     13437     13435     13438     13435     13438     13439     13435     13438     13440
     13435     13438     13441     13439     13438     13440     13439     13438     13441
     13440     13438     13441     13438     13441     13442     13438     13441     13443
     13438     13441     13444     13442     13441     13443     13442     13441     13444
     13443     13441     13444     13441     13444     13445     13441     13444     13446
     13445     13444     13446     13444     13446     13447     13444     13446     13448
     13447     13446     13448     13446     13448     13449     13446     13448     13450
     13446     13448     13451     13449     13448     13450     13449     13448     13451
     13450     13448     13451     13448     13451     13452     13448     13451     13453
     13448     13451     13454     13452     13451     13453     13452     13451     13454
     13453     13451     13454     13451     13454     13455     13451     13454     13456
     13451     13454     13457     13455     13454     13456     13455     13454     13457
     13456     13454     13457     13454     13457     13458     13454     13457     13459
     13454     13457     13460     13458     13457     13459     13458     13457     13460
     13459     13457     13460     13457     13460     13461     13457     13460     13462
     13457     13460     13463     13461     13460     13462     13461     13460     13463
     13462     13460     13463     13460     13463     13464     13460     13463     13465
     13460     13463     13466     13464     13463     13465     13464     13463     13466
     13465     13463     13466     13463     13466     13467     13463     13466     13468
     13463     13466     13469     13467     13466     13468     13467     13466     13469
     13468     13466     13469     13466     13469     13470     13466     13469     13471
     13466     13469     13472     13470     13469     13471     13470     13469     13472
     13471     13469     13472     13474     13473     13477     13474     13473     13481
     13474     13473     13485     13477     13473     13481     13477     13473     13485
     13481     13473     13485     13473     13474     13475     13473     13474     13476
     13473     13474     13489     13475     13474     13476     13475     13474     13489
     13476     13474     13489     13473     13477     13478     13473     13477     13479
     13473     13477     13480     13478     13477     13479     13478     13477     13480
     13479     13477     13480     13473     13481     13482     13473     13481     13483
     13473     13481     13484     13482     13481     13483     13482     13481     13484
     13483     13481     13484     13473     13485     13486     13473     13485     13487
     13473     13485     13488     13486     13485     13487     13486     13485     13488
     13487     13485     13488     13474     13489     13490     13474     13489     13491
     13474     13489     13495     13490     13489     13491     13490     13489     13495
     13491     13489     13495     13493     13492     13494     13493     13492     13495
     13493     13492     13496     13494     13492     13495     13494     13492     13496
     13495     13492     13496     13489     13495     13492     13492     13496     13497
     13496     13497     13498     13496     13497     13499     13496     13497     13500
     13498     13497     13499     13498     13497     13500     13499     13497     13500
     13497     13500     13501     13497     13500     13502     13497     13500     13508
     13501     13500     13502     13501     13500     13508     13502     13500     13508
     13500     13502     13503     13502     13503     13504     13502     13503     13505
     13504     13503     13505     13503     13505     13506     13503     13505     13507
     13503     13505     13517     13506     13505     13507     13506     13505     13517
     13507     13505     13517     13500     13508     13509     13500     13508     13510
     13500     13508     13511     13509     13508     13510     13509     13508     13511
     13510     13508     13511     13508     13511     13512     13511     13512     13513
     13511     13512     13514     13513     13512     13514     13512     13514     13515
     13512     13514     13516     13512     13514     13564     13515     13514     13516
     13515     13514     13564     13516     13514     13564     13505     13517     13518
     13505     13517     13519     13505     13517     13520     13518     13517     13519
     13518     13517     13520     13519     13517     13520     13517     13520     13521
     13517     13520     13522     13517     13520     13523     13521     13520     13522
     13521     13520     13523     13522     13520     13523     13520     13523     13524
     13520     13523     13525     13520     13523     13526     13524     13523     13525
     13524     13523     13526     13525     13523     13526     13523     13526     13527
     13523     13526     13528     13523     13526     13529     13527     13526     13528
     13527     13526     13529     13528     13526     13529     13526     13529     13530
     13526     13529     13531     13526     13529     13532     13530     13529     13531
     13530     13529     13532     13531     13529     13532     13529     13532     13533
     13529     13532     13534     13529     13532     13535     13533     13532     13534
     13533     13532     13535     13534     13532     13535     13532     13535     13536
     13532     13535     13537     13536     13535     13537     13535     13537     13538
     13535     13537     13539     13538     13537     13539     13537     13539     13540
     13537     13539     13541     13537     13539     13542     13540     13539     13541
     13540     13539     13542     13541     13539     13542     13539     13542     13543
     13539     13542     13544     13539     13542     13545     13543     13542     13544
     13543     13542     13545     13544     13542     13545     13542     13545     13546
     13542     13545     13547     13542     13545     13548     13546     13545     13547
     13546     13545     13548     13547     13545     13548     13545     13548     13549
     13545     13548     13550     13545     13548     13551     13549     13548     13550
     13549     13548     13551     13550     13548     13551     13548     13551     13552
     13548     13551     13553     13548     13551     13554     13552     13551     13553
     13552     13551     13554     13553     13551     13554     13551     13554     13555
     13551     13554     13556     13551     13554     13557     13555     13554     13556
     13555     13554     13557     13556     13554     13557     13554     13557     13558
     13554     13557     13559     13554     13557     13560     13558     13557     13559
     13558     13557     13560     13559     13557     13560     13557     13560     13561
     13557     13560     13562     13557     13560     13563     13561     13560     13562
     13561     13560     13563     13562     13560     13563     13514     13564     13565
     13514     13564     13566     13514     13564     13567     13565     13564     13566
     13565     13564     13567     13566     13564     13567     13564     13567     13568
     13564     13567     13569     13564     13567     13570     13568     13567     13569
     13568     13567     13570     13569     13567     13570     13567     13570     13571
     13567     13570     13572     13567     13570     13573     13571     13570     13572
     13571     13570     13573     13572     13570     13573     13570     13573     13574
     13570     13573     13575     13570     13573     13576     13574     13573     13575
     13574     13573     13576     13575     13573     13576     13573     13576     13577
     13573     13576     13578     13573     13576     13579     13577     13576     13578
     13577     13576     13579     13578     13576     13579     13576     13579     13580
     13576     13579     13581     13576     13579     13582     13580     13579     13581
     13580     13579     13582     13581     13579     13582     13579     13582     13583
     13579     13582     13584     13583     13582     13584     13582     13584     13585
     13582     13584     13586     13585     13584     13586     13584     13586     13587
     13584     13586     13588     13584     13586     13589     13587     13586     13588
     13587     13586     13589     13588     13586     13589     13586     13589     13590
     13586     13589     13591     13586     13589     13592     13590     13589     13591
     13590     13589     13592     13591     13589     13592     13589     13592     13593
     13589     13592     13594     13589     13592     13595     13593     13592     13594
     13593     13592     13595     13594     13592     13595     13592     13595     13596
     13592     13595     13597     13592     13595     13598     13596     13595     13597
     13596     13595     13598     13597     13595     13598     13595     13598     13599
     13595     13598     13600     13595     13598     13601     13599     13598     13600
     13599     13598     13601     13600     13598     13601     13598     13601     13602
     13598     13601     13603     13598     13601     13604     13602     13601     13603
     13602     13601     13604     13603     13601     13604     13601     13604     13605
     13601     13604     13606     13601     13604     13607     13605     13604     13606
     13605     13604     13607     13606     13604     13607     13604     13607     13608
     13604     13607     13609     13604     13607     13610     13608     13607     13609
     13608     13607     13610     13609     13607     13610     13612     13611     13615
     13612     13611     13619     13612     13611     13623     13615     13611     13619
     13615     13611     13623     13619     13611     13623     13611     13612     13613
     13611     13612     13614     13611     13612     13627     13613     13612     13614
     13613     13612     13627     13614     13612     13627     13611     13615     13616
     13611     13615     13617     13611     13615     13618     13616     13615     13617
     13616     13615     13618     13617     13615     13618     13611     13619     13620
     13611     13619     13621     13611     13619     13622     13620     13619     13621
     13620     13619     13622     13621     13619     13622     13611     13623     13624
     13611     13623     13625     13611     13623     13626     13624     13623     13625
     13624     13623     13626     13625     13623     13626     13612     13627     13628
     13612     13627     13629     13612     13627     13633     13628     13627     13629
     13628     13627     13633     13629     13627     13633     13631     13630     13632
     13631     13630     13633     13631     13630     13634     13632     13630     13633
     13632     13630     13634     13633     13630     13634     13627     13633     13630
     13630     13634     13635     13634     13635     13636     13634     13635     13637
     13634     13635     13638     13636     13635     13637     13636     13635     13638
     13637     13635     13638     13635     13638     13639     13635     13638     13640
     13635     13638     13646     13639     13638     13640     13639     13638     13646
     13640     13638     13646     13638     13640     13641     13640     13641     13642
     13640     13641     13643     13642     13641     13643     13641     13643     13644
     13641     13643     13645     13641     13643     13655     13644     13643     13645
     13644     13643     13655     13645     13643     13655     13638     13646     13647
     13638     13646     13648     13638     13646     13649     13647     13646     13648
     13647     13646     13649     13648     13646     13649     13646     13649     13650
     13649     13650     13651     13649     13650     13652     13651     13650     13652
     13650     13652     13653     13650     13652     13654     13650     13652     13702
     13653     13652     13654     13653     13652     13702     13654     13652     13702
     13643     13655     13656     13643     13655     13657     13643     13655     13658
     13656     13655     13657     13656     13655     13658     13657     13655     13658
     13655     13658     13659     13655     13658     13660     13655     13658     13661
     13659     13658     13660     13659     13658     13661     13660     13658     13661
     13658     13661     13662     13658     13661     13663     13658     13661     13664
     13662     13661     13663     13662     13661     13664     13663     13661     13664
     13661     13664     13665     13661     13664     13666     13661     13664     13667
     13665     13664     13666     13665     13664     13667     13666     13664     13667
     13664     13667     13668     13664     13667     13669     13664     13667     13670
     13668     13667     13669     13668     13667     13670     13669     13667     13670
     13667     13670     13671     13667     13670     13672     13667     13670     13673
     13671     13670     13672     13671     13670     13673     13672     13670     13673
     13670     13673     13674     13670     13673     13675     13674     13673     13675
     13673     13675     13676     13673     13675     13677     13676     13675     13677
     13675     13677     13678     13675     13677     13679     13675     13677     13680
     13678     13677     13679     13678     13677     13680     13679     13677     13680
     13677     13680     13681     13677     13680     13682     13677     13680     13683
     13681     13680     13682     13681     13680     13683     13682     13680     13683
     13680     13683     13684     13680     13683     13685     13680     13683     13686
     13684     13683     13685     13684     13683     13686     13685     13683     13686
     13683     13686     13687     13683     13686     13688     13683     13686     13689
     13687     13686     13688     13687     13686     13689     13688     13686     13689
     13686     13689     13690     13686     13689     13691     13686     13689     13692
     13690     13689     13691     13690     13689     13692     13691     13689     13692
     13689     13692     13693     13689     13692     13694     13689     13692     13695
     13693     13692     13694     13693     13692     13695     13694     13692     13695
     13692     13695     13696     13692     13695     13697     13692     13695     13698
     13696     13695     13697     13696     13695     13698     13697     13695     13698
     13695     13698     13699     13695     13698     13700     13695     13698     13701
     13699     13698     13700     13699     13698     13701     13700     13698     13701
     13652     13702     13703     13652     13702     13704     13652     13702     13705
     13703     13702     13704     13703     13702     13705     13704     13702     13705
     13702     13705     13706     13702     13705     13707     13702     13705     13708
     13706     13705     13707     13706     13705     13708     13707     13705     13708
     13705     13708     13709     13705     13708     13710     13705     13708     13711
     13709     13708     13710     13709     13708     13711     13710     13708     13711
     13708     13711     13712     13708     13711     13713     13708     13711     13714
     13712     13711     13713     13712     13711     13714     13713     13711     13714
     13711     13714     13715     13711     13714     13716     13711     13714     13717
     13715     13714     13716     13715     13714     13717     13716     13714     13717
     13714     13717     13718     13714     13717     13719     13714     13717     13720
     13718     13717     13719     13718     13717     13720     13719     13717     13720
     13717     13720     13721     13717     13720     13722     13721     13720     13722
     13720     13722     13723     13720     13722     13724     13723     13722     13724
     13722     13724     13725     13722     13724     13726     13722     13724     13727
     13725     13724     13726     13725     13724     13727     13726     13724     13727
     13724     13727     13728     13724     13727     13729     13724     13727     13730
     13728     13727     13729     13728     13727     13730     13729     13727     13730
     13727     13730     13731     13727     13730     13732     13727     13730     13733
     13731     13730     13732     13731     13730     13733     13732     13730     13733
     13730     13733     13734     13730     13733     13735     13730     13733     13736
     13734     13733     13735     13734     13733     13736     13735     13733     13736
     13733     13736     13737     13733     13736     13738     13733     13736     13739
     13737     13736     13738     13737     13736     13739     13738     13736     13739
     13736     13739     13740     13736     13739     13741     13736     13739     13742
     13740     13739     13741     13740     13739     13742     13741     13739     13742
     13739     13742     13743     13739     13742     13744     13739     13742     13745
     13743     13742     13744     13743     13742     13745     13744     13742     13745
     13742     13745     13746     13742     13745     13747     13742     13745     13748
     13746     13745     13747     13746     13745     13748     13747     13745     13748
     13750     13749     13753     13750     13749     13757     13750     13749     13761
     13753     13749     13757     13753     13749     13761     13757     13749     13761
     13749     13750     13751     13749     13750     13752     13749     13750     13765
     13751     13750     13752     13751     13750     13765     13752     13750     13765
     13749     13753     13754     13749     13753     13755     13749     13753     13756
     13754     13753     13755     13754     13753     13756     13755     13753     13756
     13749     13757     13758     13749     13757     13759     13749     13757     13760
     13758     13757     13759     13758     13757     13760     13759     13757     13760
     13749     13761     13762     13749     13761     13763     13749     13761     13764
     13762     13761     13763     13762     13761     13764     13763     13761     13764
     13750     13765     13766     13750     13765     13767     13750     13765     13771
     13766     13765     13767     13766     13765     13771     13767     13765     13771
     13769     13768     13770     13769     13768     13771     13769     13768     13772
     13770     13768     13771     13770     13768     13772     13771     13768     13772
     13765     13771     13768     13768     13772     13773     13772     13773     13774
     13772     13773     13775     13772     13773     13776     13774     13773     13775
     13774     13773     13776     13775     13773     13776     13773     13776     13777
     13773     13776     13778     13773     13776     13784     13777     13776     13778
     13777     13776     13784     13778     13776     13784     13776     13778     13779
     13778     13779     13780     13778     13779     13781     13780     13779     13781
     13779     13781     13782     13779     13781     13783     13779     13781     13793
     13782     13781     13783     13782     13781     13793     13783     13781     13793
     13776     13784     13785     13776     13784     13786     13776     13784     13787
     13785     13784     13786     13785     13784     13787     13786     13784     13787
     13784     13787     13788     13787     13788     13789     13787     13788     13790
     13789     13788     13790     13788     13790     13791     13788     13790     13792
     13788     13790     13840     13791     13790     13792     13791     13790     13840
     13792     13790     13840     13781     13793     13794     13781     13793     13795
     13781     13793     13796     13794     13793     13795     13794     13793     13796
     13795     13793     13796     13793     13796     13797     13793     13796     13798
     13793     13796     13799     13797     13796     13798     13797     13796     13799
     13798     13796     13799     13796     13799     13800     13796     13799     13801
     13796     13799     13802     13800     13799     13801     13800     13799     13802
     13801     13799     13802     13799     13802     13803     13799     13802     13804
     13799     13802     13805     13803     13802     13804     13803     13802     13805
     13804     13802     13805     13802     13805     13806     13802     13805     13807
     13802     13805     13808     13806     13805     13807     13806     13805     13808
     13807     13805     13808     13805     13808     13809     13805     13808     13810
     13805     13808     13811     13809     13808     13810     13809     13808     13811
     13810     13808     13811     13808     13811     13812     13808     13811     13813
     13812     13811     13813     13811     13813     13814     13811     13813     13815
     13814     13813     13815     13813     13815     13816     13813     13815     13817
     13813     13815     13818     13816     13815     13817     13816     13815     13818
     13817     13815     13818     13815     13818     13819     13815     13818     13820
     13815     13818     13821     13819     13818     13820     13819     13818     13821
     13820     13818     13821     13818     13821     13822     13818     13821     13823
     13818     13821     13824     13822     13821     13823     13822     13821     13824
     13823     13821     13824     13821     13824     13825     13821     13824     13826
     13821     13824     13827     13825     13824     13826     13825     13824     13827
     13826     13824     13827     13824     13827     13828     13824     13827     13829
     13824     13827     13830     13828     13827     13829     13828     13827     13830
     13829     13827     13830     13827     13830     13831     13827     13830     13832
     13827     13830     13833     13831     13830     13832     13831     13830     13833
     13832     13830     13833     13830     13833     13834     13830     13833     13835
     13830     13833     13836     13834     13833     13835     13834     13833     13836
     13835     13833     13836     13833     13836     13837     13833     13836     13838
     13833     13836     13839     13837     13836     13838     13837     13836     13839
     13838     13836     13839     13790     13840     13841     13790     13840     13842
     13790     13840     13843     13841     13840     13842     13841     13840     13843
     13842     13840     13843     13840     13843     13844     13840     13843     13845
     13840     13843     13846     13844     13843     13845     13844     13843     13846
     13845     13843     13846     13843     13846     13847     13843     13846     13848
     13843     13846     13849     13847     13846     13848     13847     13846     13849
     13848     13846     13849     13846     13849     13850     13846     13849     13851
     13846     13849     13852     13850     13849     13851     13850     13849     13852
     13851     13849     13852     13849     13852     13853     13849     13852     13854
     13849     13852     13855     13853     13852     13854     13853     13852     13855
     13854     13852     13855     13852     13855     13856     13852     13855     13857
     13852     13855     13858     13856     13855     13857     13856     13855     13858
     13857     13855     13858     13855     13858     13859     13855     13858     13860
     13859     13858     13860     13858     13860     13861     13858     13860     13862
     13861     13860     13862     13860     13862     13863     13860     13862     13864
     13860     13862     13865     13863     13862     13864     13863     13862     13865
     13864     13862     13865     13862     13865     13866     13862     13865     13867
     13862     13865     13868     13866     13865     13867     13866     13865     13868
     13867     13865     13868     13865     13868     13869     13865     13868     13870
     13865     13868     13871     13869     13868     13870     13869     13868     13871
     13870     13868     13871     13868     13871     13872     13868     13871     13873
     13868     13871     13874     13872     13871     13873     13872     13871     13874
     13873     13871     13874     13871     13874     13875     13871     13874     13876
     13871     13874     13877     13875     13874     13876     13875     13874     13877
     13876     13874     13877     13874     13877     13878     13874     13877     13879
     13874     13877     13880     13878     13877     13879     13878     13877     13880
     13879     13877     13880     13877     13880     13881     13877     13880     13882
     13877     13880     13883     13881     13880     13882     13881     13880     13883
     13882     13880     13883     13880     13883     13884     13880     13883     13885
     13880     13883     13886     13884     13883     13885     13884     13883     13886
     13885     13883     13886     13888     13887     13891     13888     13887     13895
     13888     13887     13899     13891     13887     13895     13891     13887     13899
     13895     13887     13899     13887     13888     13889     13887     13888     13890
     13887     13888     13903     13889     13888     13890     13889     13888     13903
     13890     13888     13903     13887     13891     13892     13887     13891     13893
     13887     13891     13894     13892     13891     13893     13892     13891     13894
     13893     13891     13894     13887     13895     13896     13887     13895     13897
     13887     13895     13898     13896     13895     13897     13896     13895     13898
     13897     13895     13898     13887     13899     13900     13887     13899     13901
     13887     13899     13902     13900     13899     13901     13900     13899     13902
     13901     13899     13902     13888     13903     13904     13888     13903     13905
     13888     13903     13909     13904     13903     13905     13904     13903     13909
     13905     13903     13909     13907     13906     13908     13907     13906     13909
     13907     13906     13910     13908     13906     13909     13908     13906     13910
     13909     13906     13910     13903     13909     13906     13906     13910     13911
     13910     13911     13912     13910     13911     13913     13910     13911     13914
     13912     13911     13913     13912     13911     13914     13913     13911     13914
     13911     13914     13915     13911     13914     13916     13911     13914     13922
     13915     13914     13916     13915     13914     13922     13916     13914     13922
     13914     13916     13917     13916     13917     13918     13916     13917     13919
     13918     13917     13919     13917     13919     13920     13917     13919     13921
     13917     13919     13931     13920     13919     13921     13920     13919     13931
     13921     13919     13931     13914     13922     13923     13914     13922     13924
     13914     13922     13925     13923     13922     13924     13923     13922     13925
     13924     13922     13925     13922     13925     13926     13925     13926     13927
     13925     13926     13928     13927     13926     13928     13926     13928     13929
     13926     13928     13930     13926     13928     13978     13929     13928     13930
     13929     13928     13978     13930     13928     13978     13919     13931     13932
     13919     13931     13933     13919     13931     13934     13932     13931     13933
     13932     13931     13934     13933     13931     13934     13931     13934     13935
     13931     13934     13936     13931     13934     13937     13935     13934     13936
     13935     13934     13937     13936     13934     13937     13934     13937     13938
     13934     13937     13939     13934     13937     13940     13938     13937     13939
     13938     13937     13940     13939     13937     13940     13937     13940     13941
     13937     13940     13942     13937     13940     13943     13941     13940     13942
     13941     13940     13943     13942     13940     13943     13940     13943     13944
     13940     13943     13945     13940     13943     13946     13944     13943     13945
     13944     13943     13946     13945     13943     13946     13943     13946     13947
     13943     13946     13948     13943     13946     13949     13947     13946     13948
     13947     13946     13949     13948     13946     13949     13946     13949     13950
     13946     13949     13951     13950     13949     13951     13949     13951     13952
     13949     13951     13953     13952     13951     13953     13951     13953     13954
     13951     13953     13955     13951     13953     13956     13954     13953     13955
     13954     13953     13956     13955     13953     13956     13953     13956     13957
     13953     13956     13958     13953     13956     13959     13957     13956     13958
     13957     13956     13959     13958     13956     13959     13956     13959     13960
     13956     13959     13961     13956     13959     13962     13960     13959     13961
     13960     13959     13962     13961     13959     13962     13959     13962     13963
     13959     13962     13964     13959     13962     13965     13963     13962     13964
     13963     13962     13965     13964     13962     13965     13962     13965     13966
     13962     13965     13967     13962     13965     13968     13966     13965     13967
     13966     13965     13968     13967     13965     13968     13965     13968     13969
     13965     13968     13970     13965     13968     13971     13969     13968     13970
     13969     13968     13971     13970     13968     13971     13968     13971     13972
     13968     13971     13973     13968     13971     13974     13972     13971     13973
     13972     13971     13974     13973     13971     13974     13971     13974     13975
     13971     13974     13976     13971     13974     13977     13975     13974     13976
     13975     13974     13977     13976     13974     13977     13928     13978     13979
     13928     13978     13980     13928     13978     13981     13979     13978     13980
     13979     13978     13981     13980     13978     13981     13978     13981     13982
     13978     13981     13983     13978     13981     13984     13982     13981     13983
     13982     13981     13984     13983     13981     13984     13981     13984     13985
     13981     13984     13986     13981     13984     13987     13985     13984     13986
     13985     13984     13987     13986     13984     13987     13984     13987     13988
     13984     13987     13989     13984     13987     13990     13988     13987     13989
     13988     13987     13990     13989     13987     13990     13987     13990     13991
     13987     13990     13992     13987     13990     13993     13991     13990     13992
     13991     13990     13993     13992     13990     13993     13990     13993     13994
     13990     13993     13995     13990     13993     13996     13994     13993     13995
     13994     13993     13996     13995     13993     13996     13993     13996     13997
     13993     13996     13998     13997     13996     13998     13996     13998     13999
     13996     13998     14000     13999     13998     14000     13998     14000     14001
     13998     14000     14002     13998     14000     14003     14001     14000     14002
     14001     14000     14003     14002     14000     14003     14000     14003     14004
     14000     14003     14005     14000     14003     14006     14004     14003     14005
     14004     14003     14006     14005     14003     14006     14003     14006     14007
     14003     14006     14008     14003     14006     14009     14007     14006     14008
     14007     14006     14009     14008     14006     14009     14006     14009     14010
     14006     14009     14011     14006     14009     14012     14010     14009     14011
     14010     14009     14012     14011     14009     14012     14009     14012     14013
     14009     14012     14014     14009     14012     14015     14013     14012     14014
     14013     14012     14015     14014     14012     14015     14012     14015     14016
     14012     14015     14017     14012     14015     14018     14016     14015     14017
     14016     14015     14018     14017     14015     14018     14015     14018     14019
     14015     14018     14020     14015     14018     14021     14019     14018     14020
     14019     14018     14021     14020     14018     14021     14018     14021     14022
     14018     14021     14023     14018     14021     14024     14022     14021     14023
     14022     14021     14024     14023     14021     14024     14026     14025     14029
     14026     14025     14033     14026     14025     14037     14029     14025     14033
     14029     14025     14037     14033     14025     14037     14025     14026     14027
     14025     14026     14028     14025     14026     14041     14027     14026     14028
     14027     14026     14041     14028     14026     14041     14025     14029     14030
     14025     14029     14031     14025     14029     14032     14030     14029     14031
     14030     14029     14032     14031     14029     14032     14025     14033     14034
     14025     14033     14035     14025     14033     14036     14034     14033     14035
     14034     14033     14036     14035     14033     14036     14025     14037     14038
     14025     14037     14039     14025     14037     14040     14038     14037     14039
     14038     14037     14040     14039     14037     14040     14026     14041     14042
     14026     14041     14043     14026     14041     14047     14042     14041     14043
     14042     14041     14047     14043     14041     14047     14045     14044     14046
     14045     14044     14047     14045     14044     14048     14046     14044     14047
     14046     14044     14048     14047     14044     14048     14041     14047     14044
     14044     14048     14049     14048     14049     14050     14048     14049     14051
     14048     14049     14052     14050     14049     14051     14050     14049     14052
     14051     14049     14052     14049     14052     14053     14049     14052     14054
     14049     14052     14060     14053     14052     14054     14053     14052     14060
     14054     14052     14060     14052     14054     14055     14054     14055     14056
     14054     14055     14057     14056     14055     14057     14055     14057     14058
     14055     14057     14059     14055     14057     14069     14058     14057     14059
     14058     14057     14069     14059     14057     14069     14052     14060     14061
     14052     14060     14062     14052     14060     14063     14061     14060     14062
     14061     14060     14063     14062     14060     14063     14060     14063     14064
     14063     14064     14065     14063     14064     14066     14065     14064     14066
     14064     14066     14067     14064     14066     14068     14064     14066     14116
     14067     14066     14068     14067     14066     14116     14068     14066     14116
     14057     14069     14070     14057     14069     14071     14057     14069     14072
     14070     14069     14071     14070     14069     14072     14071     14069     14072
     14069     14072     14073     14069     14072     14074     14069     14072     14075
     14073     14072     14074     14073     14072     14075     14074     14072     14075
     14072     14075     14076     14072     14075     14077     14072     14075     14078
     14076     14075     14077     14076     14075     14078     14077     14075     14078
     14075     14078     14079     14075     14078     14080     14075     14078     14081
     14079     14078     14080     14079     14078     14081     14080     14078     14081
     14078     14081     14082     14078     14081     14083     14078     14081     14084
     14082     14081     14083     14082     14081     14084     14083     14081     14084
     14081     14084     14085     14081     14084     14086     14081     14084     14087
     14085     14084     14086     14085     14084     14087     14086     14084     14087
     14084     14087     14088     14084     14087     14089     14088     14087     14089
     14087     14089     14090     14087     14089     14091     14090     14089     14091
     14089     14091     14092     14089     14091     14093     14089     14091     14094
     14092     14091     14093     14092     14091     14094     14093     14091     14094
     14091     14094     14095     14091     14094     14096     14091     14094     14097
     14095     14094     14096     14095     14094     14097     14096     14094     14097
     14094     14097     14098     14094     14097     14099     14094     14097     14100
     14098     14097     14099     14098     14097     14100     14099     14097     14100
     14097     14100     14101     14097     14100     14102     14097     14100     14103
     14101     14100     14102     14101     14100     14103     14102     14100     14103
     14100     14103     14104     14100     14103     14105     14100     14103     14106
     14104     14103     14105     14104     14103     14106     14105     14103     14106
     14103     14106     14107     14103     14106     14108     14103     14106     14109
     14107     14106     14108     14107     14106     14109     14108     14106     14109
     14106     14109     14110     14106     14109     14111     14106     14109     14112
     14110     14109     14111     14110     14109     14112     14111     14109     14112
     14109     14112     14113     14109     14112     14114     14109     14112     14115
     14113     14112     14114     14113     14112     14115     14114     14112     14115
     14066     14116     14117     14066     14116     14118     14066     14116     14119
     14117     14116     14118     14117     14116     14119     14118     14116     14119
     14116     14119     14120     14116     14119     14121     14116     14119     14122
     14120     14119     14121     14120     14119     14122     14121     14119     14122
     14119     14122     14123     14119     14122     14124     14119     14122     14125
     14123     14122     14124     14123     14122     14125     14124     14122     14125
     14122     14125     14126     14122     14125     14127     14122     14125     14128
     14126     14125     14127     14126     14125     14128     14127     14125     14128
     14125     14128     14129     14125     14128     14130     14125     14128     14131
     14129     14128     14130     14129     14128     14131     14130     14128     14131
     14128     14131     14132     14128     14131     14133     14128     14131     14134
     14132     14131     14133     14132     14131     14134     14133     14131     14134
     14131     14134     14135     14131     14134     14136     14135     14134     14136
     14134     14136     14137     14134     14136     14138     14137     14136     14138
     14136     14138     14139     14136     14138     14140     14136     14138     14141
     14139     14138     14140     14139     14138     14141     14140     14138     14141
     14138     14141     14142     14138     14141     14143     14138     14141     14144
     14142     14141     14143     14142     14141     14144     14143     14141     14144
     14141     14144     14145     14141     14144     14146     14141     14144     14147
     14145     14144     14146     14145     14144     14147     14146     14144     14147
     14144     14147     14148     14144     14147     14149     14144     14147     14150
     14148     14147     14149     14148     14147     14150     14149     14147     14150
     14147     14150     14151     14147     14150     14152     14147     14150     14153
     14151     14150     14152     14151     14150     14153     14152     14150     14153
     14150     14153     14154     14150     14153     14155     14150     14153     14156
     14154     14153     14155     14154     14153     14156     14155     14153     14156
     14153     14156     14157     14153     14156     14158     14153     14156     14159
     14157     14156     14158     14157     14156     14159     14158     14156     14159
     14156     14159     14160     14156     14159     14161     14156     14159     14162
     14160     14159     14161     14160     14159     14162     14161     14159     14162
     14164     14163     14167     14164     14163     14171     14164     14163     14175
     14167     14163     14171     14167     14163     14175     14171     14163     14175
     14163     14164     14165     14163     14164     14166     14163     14164     14179
     14165     14164     14166     14165     14164     14179     14166     14164     14179
     14163     14167     14168     14163     14167     14169     14163     14167     14170
     14168     14167     14169     14168     14167     14170     14169     14167     14170
     14163     14171     14172     14163     14171     14173     14163     14171     14174
     14172     14171     14173     14172     14171     14174     14173     14171     14174
     14163     14175     14176     14163     14175     14177     14163     14175     14178
     14176     14175     14177     14176     14175     14178     14177     14175     14178
     14164     14179     14180     14164     14179     14181     14164     14179     14185
     14180     14179     14181     14180     14179     14185     14181     14179     14185
     14183     14182     14184     14183     14182     14185     14183     14182     14186
     14184     14182     14185     14184     14182     14186     14185     14182     14186
     14179     14185     14182     14182     14186     14187     14186     14187     14188
     14186     14187     14189     14186     14187     14190     14188     14187     14189
     14188     14187     14190     14189     14187     14190     14187     14190     14191
     14187     14190     14192     14187     14190     14198     14191     14190     14192
     14191     14190     14198     14192     14190     14198     14190     14192     14193
     14192     14193     14194     14192     14193     14195     14194     14193     14195
     14193     14195     14196     14193     14195     14197     14193     14195     14207
     14196     14195     14197     14196     14195     14207     14197     14195     14207
     14190     14198     14199     14190     14198     14200     14190     14198     14201
     14199     14198     14200     14199     14198     14201     14200     14198     14201
     14198     14201     14202     14201     14202     14203     14201     14202     14204
     14203     14202     14204     14202     14204     14205     14202     14204     14206
     14202     14204     14254     14205     14204     14206     14205     14204     14254
     14206     14204     14254     14195     14207     14208     14195     14207     14209
     14195     14207     14210     14208     14207     14209     14208     14207     14210
     14209     14207     14210     14207     14210     14211     14207     14210     14212
     14207     14210     14213     14211     14210     14212     14211     14210     14213
     14212     14210     14213     14210     14213     14214     14210     14213     14215
     14210     14213     14216     14214     14213     14215     14214     14213     14216
     14215     14213     14216     14213     14216     14217     14213     14216     14218
     14213     14216     14219     14217     14216     14218     14217     14216     14219
     14218     14216     14219     14216     14219     14220     14216     14219     14221
     14216     14219     14222     14220     14219     14221     14220     14219     14222
     14221     14219     14222     14219     14222     14223     14219     14222     14224
     14219     14222     14225     14223     14222     14224     14223     14222     14225
     14224     14222     14225     14222     14225     14226     14222     14225     14227
     14226     14225     14227     14225     14227     14228     14225     14227     14229
     14228     14227     14229     14227     14229     14230     14227     14229     14231
     14227     14229     14232     14230     14229     14231     14230     14229     14232
     14231     14229     14232     14229     14232     14233     14229     14232     14234
     14229     14232     14235     14233     14232     14234     14233     14232     14235
     14234     14232     14235     14232     14235     14236     14232     14235     14237
     14232     14235     14238     14236     14235     14237     14236     14235     14238
     14237     14235     14238     14235     14238     14239     14235     14238     14240
     14235     14238     14241     14239     14238     14240     14239     14238     14241
     14240     14238     14241     14238     14241     14242     14238     14241     14243
     14238     14241     14244     14242     14241     14243     14242     14241     14244
     14243     14241     14244     14241     14244     14245     14241     14244     14246
     14241     14244     14247     14245     14244     14246     14245     14244     14247
     14246     14244     14247     14244     14247     14248     14244     14247     14249
     14244     14247     14250     14248     14247     14249     14248     14247     14250
     14249     14247     14250     14247     14250     14251     14247     14250     14252
     14247     14250     14253     14251     14250     14252     14251     14250     14253
     14252     14250     14253     14204     14254     14255     14204     14254     14256
     14204     14254     14257     14255     14254     14256     14255     14254     14257
     14256     14254     14257     14254     14257     14258     14254     14257     14259
     14254     14257     14260     14258     14257     14259     14258     14257     14260
     14259     14257     14260     14257     14260     14261     14257     14260     14262
     14257     14260     14263     14261     14260     14262     14261     14260     14263
     14262     14260     14263     14260     14263     14264     14260     14263     14265
     14260     14263     14266     14264     14263     14265     14264     14263     14266
     14265     14263     14266     14263     14266     14267     14263     14266     14268
     14263     14266     14269     14267     14266     14268     14267     14266     14269
     14268     14266     14269     14266     14269     14270     14266     14269     14271
     14266     14269     14272     14270     14269     14271     14270     14269     14272
     14271     14269     14272     14269     14272     14273     14269     14272     14274
     14273     14272     14274     14272     14274     14275     14272     14274     14276
     14275     14274     14276     14274     14276     14277     14274     14276     14278
     14274     14276     14279     14277     14276     14278     14277     14276     14279
     14278     14276     14279     14276     14279     14280     14276     14279     14281
     14276     14279     14282     14280     14279     14281     14280     14279     14282
     14281     14279     14282     14279     14282     14283     14279     14282     14284
     14279     14282     14285     14283     14282     14284     14283     14282     14285
     14284     14282     14285     14282     14285     14286     14282     14285     14287
     14282     14285     14288     14286     14285     14287     14286     14285     14288
     14287     14285     14288     14285     14288     14289     14285     14288     14290
     14285     14288     14291     14289     14288     14290     14289     14288     14291
     14290     14288     14291     14288     14291     14292     14288     14291     14293
     14288     14291     14294     14292     14291     14293     14292     14291     14294
     14293     14291     14294     14291     14294     14295     14291     14294     14296
     14291     14294     14297     14295     14294     14296     14295     14294     14297
     14296     14294     14297     14294     14297     14298     14294     14297     14299
     14294     14297     14300     14298     14297     14299     14298     14297     14300
     14299     14297     14300     14302     14301     14305     14302     14301     14309
     14302     14301     14313     14305     14301     14309     14305     14301     14313
     14309     14301     14313     14301     14302     14303     14301     14302     14304
     14301     14302     14317     14303     14302     14304     14303     14302     14317
     14304     14302     14317     14301     14305     14306     14301     14305     14307
     14301     14305     14308     14306     14305     14307     14306     14305     14308
     14307     14305     14308     14301     14309     14310     14301     14309     14311
     14301     14309     14312     14310     14309     14311     14310     14309     14312
     14311     14309     14312     14301     14313     14314     14301     14313     14315
     14301     14313     14316     14314     14313     14315     14314     14313     14316
     14315     14313     14316     14302     14317     14318     14302     14317     14319
     14302     14317     14323     14318     14317     14319     14318     14317     14323
     14319     14317     14323     14321     14320     14322     14321     14320     14323
     14321     14320     14324     14322     14320     14323     14322     14320     14324
     14323     14320     14324     14317     14323     14320     14320     14324     14325
     14324     14325     14326     14324     14325     14327     14324     14325     14328
     14326     14325     14327     14326     14325     14328     14327     14325     14328
     14325     14328     14329     14325     14328     14330     14325     14328     14336
     14329     14328     14330     14329     14328     14336     14330     14328     14336
     14328     14330     14331     14330     14331     14332     14330     14331     14333
     14332     14331     14333     14331     14333     14334     14331     14333     14335
     14331     14333     14345     14334     14333     14335     14334     14333     14345
     14335     14333     14345     14328     14336     14337     14328     14336     14338
     14328     14336     14339     14337     14336     14338     14337     14336     14339
     14338     14336     14339     14336     14339     14340     14339     14340     14341
     14339     14340     14342     14341     14340     14342     14340     14342     14343
     14340     14342     14344     14340     14342     14392     14343     14342     14344
     14343     14342     14392     14344     14342     14392     14333     14345     14346
     14333     14345     14347     14333     14345     14348     14346     14345     14347
     14346     14345     14348     14347     14345     14348     14345     14348     14349
     14345     14348     14350     14345     14348     14351     14349     14348     14350
     14349     14348     14351     14350     14348     14351     14348     14351     14352
     14348     14351     14353     14348     14351     14354     14352     14351     14353
     14352     14351     14354     14353     14351     14354     14351     14354     14355
     14351     14354     14356     14351     14354     14357     14355     14354     14356
     14355     14354     14357     14356     14354     14357     14354     14357     14358
     14354     14357     14359     14354     14357     14360     14358     14357     14359
     14358     14357     14360     14359     14357     14360     14357     14360     14361
     14357     14360     14362     14357     14360     14363     14361     14360     14362
     14361     14360     14363     14362     14360     14363     14360     14363     14364
     14360     14363     14365     14364     14363     14365     14363     14365     14366
     14363     14365     14367     14366     14365     14367     14365     14367     14368
     14365     14367     14369     14365     14367     14370     14368     14367     14369
     14368     14367     14370     14369     14367     14370     14367     14370     14371
     14367     14370     14372     14367     14370     14373     14371     14370     14372
     14371     14370     14373     14372     14370     14373     14370     14373     14374
     14370     14373     14375     14370     14373     14376     14374     14373     14375
     14374     14373     14376     14375     14373     14376     14373     14376     14377
     14373     14376     14378     14373     14376     14379     14377     14376     14378
     14377     14376     14379     14378     14376     14379     14376     14379     14380
     14376     14379     14381     14376     14379     14382     14380     14379     14381
     14380     14379     14382     14381     14379     14382     14379     14382     14383
     14379     14382     14384     14379     14382     14385     14383     14382     14384
     14383     14382     14385     14384     14382     14385     14382     14385     14386
     14382     14385     14387     14382     14385     14388     14386     14385     14387
     14386     14385     14388     14387     14385     14388     14385     14388     14389
     14385     14388     14390     14385     14388     14391     14389     14388     14390
     14389     14388     14391     14390     14388     14391     14342     14392     14393
     14342     14392     14394     14342     14392     14395     14393     14392     14394
     14393     14392     14395     14394     14392     14395     14392     14395     14396
     14392     14395     14397     14392     14395     14398     14396     14395     14397
     14396     14395     14398     14397     14395     14398     14395     14398     14399
     14395     14398     14400     14395     14398     14401     14399     14398     14400
     14399     14398     14401     14400     14398     14401     14398     14401     14402
     14398     14401     14403     14398     14401     14404     14402     14401     14403
     14402     14401     14404     14403     14401     14404     14401     14404     14405
     14401     14404     14406     14401     14404     14407     14405     14404     14406
     14405     14404     14407     14406     14404     14407     14404     14407     14408
     14404     14407     14409     14404     14407     14410     14408     14407     14409
     14408     14407     14410     14409     14407     14410     14407     14410     14411
     14407     14410     14412     14411     14410     14412     14410     14412     14413
     14410     14412     14414     14413     14412     14414     14412     14414     14415
     14412     14414     14416     14412     14414     14417     14415     14414     14416
     14415     14414     14417     14416     14414     14417     14414     14417     14418
     14414     14417     14419     14414     14417     14420     14418     14417     14419
     14418     14417     14420     14419     14417     14420     14417     14420     14421
     14417     14420     14422     14417     14420     14423     14421     14420     14422
     14421     14420     14423     14422     14420     14423     14420     14423     14424
     14420     14423     14425     14420     14423     14426     14424     14423     14425
     14424     14423     14426     14425     14423     14426     14423     14426     14427
     14423     14426     14428     14423     14426     14429     14427     14426     14428
     14427     14426     14429     14428     14426     14429     14426     14429     14430
     14426     14429     14431     14426     14429     14432     14430     14429     14431
     14430     14429     14432     14431     14429     14432     14429     14432     14433
     14429     14432     14434     14429     14432     14435     14433     14432     14434
     14433     14432     14435     14434     14432     14435     14432     14435     14436
     14432     14435     14437     14432     14435     14438     14436     14435     14437
     14436     14435     14438     14437     14435     14438     14440     14439     14443
     14440     14439     14447     14440     14439     14451     14443     14439     14447
     14443     14439     14451     14447     14439     14451     14439     14440     14441
     14439     14440     14442     14439     14440     14455     14441     14440     14442
     14441     14440     14455     14442     14440     14455     14439     14443     14444
     14439     14443     14445     14439     14443     14446     14444     14443     14445
     14444     14443     14446     14445     14443     14446     14439     14447     14448
     14439     14447     14449     14439     14447     14450     14448     14447     14449
     14448     14447     14450     14449     14447     14450     14439     14451     14452
     14439     14451     14453     14439     14451     14454     14452     14451     14453
     14452     14451     14454     14453     14451     14454     14440     14455     14456
     14440     14455     14457     14440     14455     14461     14456     14455     14457
     14456     14455     14461     14457     14455     14461     14459     14458     14460
     14459     14458     14461     14459     14458     14462     14460     14458     14461
     14460     14458     14462     14461     14458     14462     14455     14461     14458
     14458     14462     14463     14462     14463     14464     14462     14463     14465
     14462     14463     14466     14464     14463     14465     14464     14463     14466
     14465     14463     14466     14463     14466     14467     14463     14466     14468
     14463     14466     14474     14467     14466     14468     14467     14466     14474
     14468     14466     14474     14466     14468     14469     14468     14469     14470
     14468     14469     14471     14470     14469     14471     14469     14471     14472
     14469     14471     14473     14469     14471     14483     14472     14471     14473
     14472     14471     14483     14473     14471     14483     14466     14474     14475
     14466     14474     14476     14466     14474     14477     14475     14474     14476
     14475     14474     14477     14476     14474     14477     14474     14477     14478
     14477     14478     14479     14477     14478     14480     14479     14478     14480
     14478     14480     14481     14478     14480     14482     14478     14480     14530
     14481     14480     14482     14481     14480     14530     14482     14480     14530
     14471     14483     14484     14471     14483     14485     14471     14483     14486
     14484     14483     14485     14484     14483     14486     14485     14483     14486
     14483     14486     14487     14483     14486     14488     14483     14486     14489
     14487     14486     14488     14487     14486     14489     14488     14486     14489
     14486     14489     14490     14486     14489     14491     14486     14489     14492
     14490     14489     14491     14490     14489     14492     14491     14489     14492
     14489     14492     14493     14489     14492     14494     14489     14492     14495
     14493     14492     14494     14493     14492     14495     14494     14492     14495
     14492     14495     14496     14492     14495     14497     14492     14495     14498
     14496     14495     14497     14496     14495     14498     14497     14495     14498
     14495     14498     14499     14495     14498     14500     14495     14498     14501
     14499     14498     14500     14499     14498     14501     14500     14498     14501
     14498     14501     14502     14498     14501     14503     14502     14501     14503
     14501     14503     14504     14501     14503     14505     14504     14503     14505
     14503     14505     14506     14503     14505     14507     14503     14505     14508
     14506     14505     14507     14506     14505     14508     14507     14505     14508
     14505     14508     14509     14505     14508     14510     14505     14508     14511
     14509     14508     14510     14509     14508     14511     14510     14508     14511
     14508     14511     14512     14508     14511     14513     14508     14511     14514
     14512     14511     14513     14512     14511     14514     14513     14511     14514
     14511     14514     14515     14511     14514     14516     14511     14514     14517
     14515     14514     14516     14515     14514     14517     14516     14514     14517
     14514     14517     14518     14514     14517     14519     14514     14517     14520
     14518     14517     14519     14518     14517     14520     14519     14517     14520
     14517     14520     14521     14517     14520     14522     14517     14520     14523
     14521     14520     14522     14521     14520     14523     14522     14520     14523
     14520     14523     14524     14520     14523     14525     14520     14523     14526
     14524     14523     14525     14524     14523     14526     14525     14523     14526
     14523     14526     14527     14523     14526     14528     14523     14526     14529
     14527     14526     14528     14527     14526     14529     14528     14526     14529
     14480     14530     14531     14480     14530     14532     14480     14530     14533
     14531     14530     14532     14531     14530     14533     14532     14530     14533
     14530     14533     14534     14530     14533     14535     14530     14533     14536
     14534     14533     14535     14534     14533     14536     14535     14533     14536
     14533     14536     14537     14533     14536     14538     14533     14536     14539
     14537     14536     14538     14537     14536     14539     14538     14536     14539
     14536     14539     14540     14536     14539     14541     14536     14539     14542
     14540     14539     14541     14540     14539     14542     14541     14539     14542
     14539     14542     14543     14539     14542     14544     14539     14542     14545
     14543     14542     14544     14543     14542     14545     14544     14542     14545
     14542     14545     14546     14542     14545     14547     14542     14545     14548
     14546     14545     14547     14546     14545     14548     14547     14545     14548
     14545     14548     14549     14545     14548     14550     14549     14548     14550
     14548     14550     14551     14548     14550     14552     14551     14550     14552
     14550     14552     14553     14550     14552     14554     14550     14552     14555
     14553     14552     14554     14553     14552     14555     14554     14552     14555
     14552     14555     14556     14552     14555     14557     14552     14555     14558
     14556     14555     14557     14556     14555     14558     14557     14555     14558
     14555     14558     14559     14555     14558     14560     14555     14558     14561
     14559     14558     14560     14559     14558     14561     14560     14558     14561
     14558     14561     14562     14558     14561     14563     14558     14561     14564
     14562     14561     14563     14562     14561     14564     14563     14561     14564
     14561     14564     14565     14561     14564     14566     14561     14564     14567
     14565     14564     14566     14565     14564     14567     14566     14564     14567
     14564     14567     14568     14564     14567     14569     14564     14567     14570
     14568     14567     14569     14568     14567     14570     14569     14567     14570
     14567     14570     14571     14567     14570     14572     14567     14570     14573
     14571     14570     14572     14571     14570     14573     14572     14570     14573
     14570     14573     14574     14570     14573     14575     14570     14573     14576
     14574     14573     14575     14574     14573     14576     14575     14573     14576
     14578     14577     14581     14578     14577     14585     14578     14577     14589
     14581     14577     14585     14581     14577     14589     14585     14577     14589
     14577     14578     14579     14577     14578     14580     14577     14578     14593
     14579     14578     14580     14579     14578     14593     14580     14578     14593
     14577     14581     14582     14577     14581     14583     14577     14581     14584
     14582     14581     14583     14582     14581     14584     14583     14581     14584
     14577     14585     14586     14577     14585     14587     14577     14585     14588
     14586     14585     14587     14586     14585     14588     14587     14585     14588
     14577     14589     14590     14577     14589     14591     14577     14589     14592
     14590     14589     14591     14590     14589     14592     14591     14589     14592
     14578     14593     14594     14578     14593     14595     14578     14593     14599
     14594     14593     14595     14594     14593     14599     14595     14593     14599
     14597     14596     14598     14597     14596     14599     14597     14596     14600
     14598     14596     14599     14598     14596     14600     14599     14596     14600
     14593     14599     14596     14596     14600     14601     14600     14601     14602
     14600     14601     14603     14600     14601     14604     14602     14601     14603
     14602     14601     14604     14603     14601     14604     14601     14604     14605
     14601     14604     14606     14601     14604     14612     14605     14604     14606
     14605     14604     14612     14606     14604     14612     14604     14606     14607
     14606     14607     14608     14606     14607     14609     14608     14607     14609
     14607     14609     14610     14607     14609     14611     14607     14609     14621
     14610     14609     14611     14610     14609     14621     14611     14609     14621
     14604     14612     14613     14604     14612     14614     14604     14612     14615
     14613     14612     14614     14613     14612     14615     14614     14612     14615
     14612     14615     14616     14615     14616     14617     14615     14616     14618
     14617     14616     14618     14616     14618     14619     14616     14618     14620
     14616     14618     14668     14619     14618     14620     14619     14618     14668
     14620     14618     14668     14609     14621     14622     14609     14621     14623
     14609     14621     14624     14622     14621     14623     14622     14621     14624
     14623     14621     14624     14621     14624     14625     14621     14624     14626
     14621     14624     14627     14625     14624     14626     14625     14624     14627
     14626     14624     14627     14624     14627     14628     14624     14627     14629
     14624     14627     14630     14628     14627     14629     14628     14627     14630
     14629     14627     14630     14627     14630     14631     14627     14630     14632
     14627     14630     14633     14631     14630     14632     14631     14630     14633
     14632     14630     14633     14630     14633     14634     14630     14633     14635
     14630     14633     14636     14634     14633     14635     14634     14633     14636
     14635     14633     14636     14633     14636     14637     14633     14636     14638
     14633     14636     14639     14637     14636     14638     14637     14636     14639
     14638     14636     14639     14636     14639     14640     14636     14639     14641
     14640     14639     14641     14639     14641     14642     14639     14641     14643
     14642     14641     14643     14641     14643     14644     14641     14643     14645
     14641     14643     14646     14644     14643     14645     14644     14643     14646
     14645     14643     14646     14643     14646     14647     14643     14646     14648
     14643     14646     14649     14647     14646     14648     14647     14646     14649
     14648     14646     14649     14646     14649     14650     14646     14649     14651
     14646     14649     14652     14650     14649     14651     14650     14649     14652
     14651     14649     14652     14649     14652     14653     14649     14652     14654
     14649     14652     14655     14653     14652     14654     14653     14652     14655
     14654     14652     14655     14652     14655     14656     14652     14655     14657
     14652     14655     14658     14656     14655     14657     14656     14655     14658
     14657     14655     14658     14655     14658     14659     14655     14658     14660
     14655     14658     14661     14659     14658     14660     14659     14658     14661
     14660     14658     14661     14658     14661     14662     14658     14661     14663
     14658     14661     14664     14662     14661     14663     14662     14661     14664
     14663     14661     14664     14661     14664     14665     14661     14664     14666
     14661     14664     14667     14665     14664     14666     14665     14664     14667
     14666     14664     14667     14618     14668     14669     14618     14668     14670
     14618     14668     14671     14669     14668     14670     14669     14668     14671
     14670     14668     14671     14668     14671     14672     14668     14671     14673
     14668     14671     14674     14672     14671     14673     14672     14671     14674
     14673     14671     14674     14671     14674     14675     14671     14674     14676
     14671     14674     14677     14675     14674     14676     14675     14674     14677
     14676     14674     14677     14674     14677     14678     14674     14677     14679
     14674     14677     14680     14678     14677     14679     14678     14677     14680
     14679     14677     14680     14677     14680     14681     14677     14680     14682
     14677     14680     14683     14681     14680     14682     14681     14680     14683
     14682     14680     14683     14680     14683     14684     14680     14683     14685
     14680     14683     14686     14684     14683     14685     14684     14683     14686
     14685     14683     14686     14683     14686     14687     14683     14686     14688
     14687     14686     14688     14686     14688     14689     14686     14688     14690
     14689     14688     14690     14688     14690     14691     14688     14690     14692
     14688     14690     14693     14691     14690     14692     14691     14690     14693
     14692     14690     14693     14690     14693     14694     14690     14693     14695
     14690     14693     14696     14694     14693     14695     14694     14693     14696
     14695     14693     14696     14693     14696     14697     14693     14696     14698
     14693     14696     14699     14697     14696     14698     14697     14696     14699
     14698     14696     14699     14696     14699     14700     14696     14699     14701
     14696     14699     14702     14700     14699     14701     14700     14699     14702
     14701     14699     14702     14699     14702     14703     14699     14702     14704
     14699     14702     14705     14703     14702     14704     14703     14702     14705
     14704     14702     14705     14702     14705     14706     14702     14705     14707
     14702     14705     14708     14706     14705     14707     14706     14705     14708
     14707     14705     14708     14705     14708     14709     14705     14708     14710
     14705     14708     14711     14709     14708     14710     14709     14708     14711
     14710     14708     14711     14708     14711     14712     14708     14711     14713
     14708     14711     14714     14712     14711     14713     14712     14711     14714
     14713     14711     14714     14716     14715     14719     14716     14715     14723
     14716     14715     14727     14719     14715     14723     14719     14715     14727
     14723     14715     14727     14715     14716     14717     14715     14716     14718
     14715     14716     14731     14717     14716     14718     14717     14716     14731
     14718     14716     14731     14715     14719     14720     14715     14719     14721
     14715     14719     14722     14720     14719     14721     14720     14719     14722
     14721     14719     14722     14715     14723     14724     14715     14723     14725
     14715     14723     14726     14724     14723     14725     14724     14723     14726
     14725     14723     14726     14715     14727     14728     14715     14727     14729
     14715     14727     14730     14728     14727     14729     14728     14727     14730
     14729     14727     14730     14716     14731     14732     14716     14731     14733
     14716     14731     14737     14732     14731     14733     14732     14731     14737
     14733     14731     14737     14735     14734     14736     14735     14734     14737
     14735     14734     14738     14736     14734     14737     14736     14734     14738
     14737     14734     14738     14731     14737     14734     14734     14738     14739
     14738     14739     14740     14738     14739     14741     14738     14739     14742
     14740     14739     14741     14740     14739     14742     14741     14739     14742
     14739     14742     14743     14739     14742     14744     14739     14742     14750
     14743     14742     14744     14743     14742     14750     14744     14742     14750
     14742     14744     14745     14744     14745     14746     14744     14745     14747
     14746     14745     14747     14745     14747     14748     14745     14747     14749
     14745     14747     14759     14748     14747     14749     14748     14747     14759
     14749     14747     14759     14742     14750     14751     14742     14750     14752
     14742     14750     14753     14751     14750     14752     14751     14750     14753
     14752     14750     14753     14750     14753     14754     14753     14754     14755
     14753     14754     14756     14755     14754     14756     14754     14756     14757
     14754     14756     14758     14754     14756     14806     14757     14756     14758
     14757     14756     14806     14758     14756     14806     14747     14759     14760
     14747     14759     14761     14747     14759     14762     14760     14759     14761
     14760     14759     14762     14761     14759     14762     14759     14762     14763
     14759     14762     14764     14759     14762     14765     14763     14762     14764
     14763     14762     14765     14764     14762     14765     14762     14765     14766
     14762     14765     14767     14762     14765     14768     14766     14765     14767
     14766     14765     14768     14767     14765     14768     14765     14768     14769
     14765     14768     14770     14765     14768     14771     14769     14768     14770
     14769     14768     14771     14770     14768     14771     14768     14771     14772
     14768     14771     14773     14768     14771     14774     14772     14771     14773
     14772     14771     14774     14773     14771     14774     14771     14774     14775
     14771     14774     14776     14771     14774     14777     14775     14774     14776
     14775     14774     14777     14776     14774     14777     14774     14777     14778
     14774     14777     14779     14778     14777     14779     14777     14779     14780
     14777     14779     14781     14780     14779     14781     14779     14781     14782
     14779     14781     14783     14779     14781     14784     14782     14781     14783
     14782     14781     14784     14783     14781     14784     14781     14784     14785
     14781     14784     14786     14781     14784     14787     14785     14784     14786
     14785     14784     14787     14786     14784     14787     14784     14787     14788
     14784     14787     14789     14784     14787     14790     14788     14787     14789
     14788     14787     14790     14789     14787     14790     14787     14790     14791
     14787     14790     14792     14787     14790     14793     14791     14790     14792
     14791     14790     14793     14792     14790     14793     14790     14793     14794
     14790     14793     14795     14790     14793     14796     14794     14793     14795
     14794     14793     14796     14795     14793     14796     14793     14796     14797
     14793     14796     14798     14793     14796     14799     14797     14796     14798
     14797     14796     14799     14798     14796     14799     14796     14799     14800
     14796     14799     14801     14796     14799     14802     14800     14799     14801
     14800     14799     14802     14801     14799     14802     14799     14802     14803
     14799     14802     14804     14799     14802     14805     14803     14802     14804
     14803     14802     14805     14804     14802     14805     14756     14806     14807
     14756     14806     14808     14756     14806     14809     14807     14806     14808
     14807     14806     14809     14808     14806     14809     14806     14809     14810
     14806     14809     14811     14806     14809     14812     14810     14809     14811
     14810     14809     14812     14811     14809     14812     14809     14812     14813
     14809     14812     14814     14809     14812     14815     14813     14812     14814
     14813     14812     14815     14814     14812     14815     14812     14815     14816
     14812     14815     14817     14812     14815     14818     14816     14815     14817
     14816     14815     14818     14817     14815     14818     14815     14818     14819
     14815     14818     14820     14815     14818     14821     14819     14818     14820
     14819     14818     14821     14820     14818     14821     14818     14821     14822
     14818     14821     14823     14818     14821     14824     14822     14821     14823
     14822     14821     14824     14823     14821     14824     14821     14824     14825
     14821     14824     14826     14825     14824     14826     14824     14826     14827
     14824     14826     14828     14827     14826     14828     14826     14828     14829
     14826     14828     14830     14826     14828     14831     14829     14828     14830
     14829     14828     14831     14830     14828     14831     14828     14831     14832
     14828     14831     14833     14828     14831     14834     14832     14831     14833
     14832     14831     14834     14833     14831     14834     14831     14834     14835
     14831     14834     14836     14831     14834     14837     14835     14834     14836
     14835     14834     14837     14836     14834     14837     14834     14837     14838
     14834     14837     14839     14834     14837     14840     14838     14837     14839
     14838     14837     14840     14839     14837     14840     14837     14840     14841
     14837     14840     14842     14837     14840     14843     14841     14840     14842
     14841     14840     14843     14842     14840     14843     14840     14843     14844
     14840     14843     14845     14840     14843     14846     14844     14843     14845
     14844     14843     14846     14845     14843     14846     14843     14846     14847
     14843     14846     14848     14843     14846     14849     14847     14846     14848
     14847     14846     14849     14848     14846     14849     14846     14849     14850
     14846     14849     14851     14846     14849     14852     14850     14849     14851
     14850     14849     14852     14851     14849     14852     14854     14853     14857
     14854     14853     14861     14854     14853     14865     14857     14853     14861
     14857     14853     14865     14861     14853     14865     14853     14854     14855
     14853     14854     14856     14853     14854     14869     14855     14854     14856
     14855     14854     14869     14856     14854     14869     14853     14857     14858
     14853     14857     14859     14853     14857     14860     14858     14857     14859
     14858     14857     14860     14859     14857     14860     14853     14861     14862
     14853     14861     14863     14853     14861     14864     14862     14861     14863
     14862     14861     14864     14863     14861     14864     14853     14865     14866
     14853     14865     14867     14853     14865     14868     14866     14865     14867
     14866     14865     14868     14867     14865     14868     14854     14869     14870
     14854     14869     14871     14854     14869     14875     14870     14869     14871
     14870     14869     14875     14871     14869     14875     14873     14872     14874
     14873     14872     14875     14873     14872     14876     14874     14872     14875
     14874     14872     14876     14875     14872     14876     14869     14875     14872
     14872     14876     14877     14876     14877     14878     14876     14877     14879
     14876     14877     14880     14878     14877     14879     14878     14877     14880
     14879     14877     14880     14877     14880     14881     14877     14880     14882
     14877     14880     14888     14881     14880     14882     14881     14880     14888
     14882     14880     14888     14880     14882     14883     14882     14883     14884
     14882     14883     14885     14884     14883     14885     14883     14885     14886
     14883     14885     14887     14883     14885     14897     14886     14885     14887
     14886     14885     14897     14887     14885     14897     14880     14888     14889
     14880     14888     14890     14880     14888     14891     14889     14888     14890
     14889     14888     14891     14890     14888     14891     14888     14891     14892
     14891     14892     14893     14891     14892     14894     14893     14892     14894
     14892     14894     14895     14892     14894     14896     14892     14894     14944
     14895     14894     14896     14895     14894     14944     14896     14894     14944
     14885     14897     14898     14885     14897     14899     14885     14897     14900
     14898     14897     14899     14898     14897     14900     14899     14897     14900
     14897     14900     14901     14897     14900     14902     14897     14900     14903
     14901     14900     14902     14901     14900     14903     14902     14900     14903
     14900     14903     14904     14900     14903     14905     14900     14903     14906
     14904     14903     14905     14904     14903     14906     14905     14903     14906
     14903     14906     14907     14903     14906     14908     14903     14906     14909
     14907     14906     14908     14907     14906     14909     14908     14906     14909
     14906     14909     14910     14906     14909     14911     14906     14909     14912
     14910     14909     14911     14910     14909     14912     14911     14909     14912
     14909     14912     14913     14909     14912     14914     14909     14912     14915
     14913     14912     14914     14913     14912     14915     14914     14912     14915
     14912     14915     14916     14912     14915     14917     14916     14915     14917
     14915     14917     14918     14915     14917     14919     14918     14917     14919
     14917     14919     14920     14917     14919     14921     14917     14919     14922
     14920     14919     14921     14920     14919     14922     14921     14919     14922
     14919     14922     14923     14919     14922     14924     14919     14922     14925
     14923     14922     14924     14923     14922     14925     14924     14922     14925
     14922     14925     14926     14922     14925     14927     14922     14925     14928
     14926     14925     14927     14926     14925     14928     14927     14925     14928
     14925     14928     14929     14925     14928     14930     14925     14928     14931
     14929     14928     14930     14929     14928     14931     14930     14928     14931
     14928     14931     14932     14928     14931     14933     14928     14931     14934
     14932     14931     14933     14932     14931     14934     14933     14931     14934
     14931     14934     14935     14931     14934     14936     14931     14934     14937
     14935     14934     14936     14935     14934     14937     14936     14934     14937
     14934     14937     14938     14934     14937     14939     14934     14937     14940
     14938     14937     14939     14938     14937     14940     14939     14937     14940
     14937     14940     14941     14937     14940     14942     14937     14940     14943
     14941     14940     14942     14941     14940     14943     14942     14940     14943
     14894     14944     14945     14894     14944     14946     14894     14944     14947
     14945     14944     14946     14945     14944     14947     14946     14944     14947
     14944     14947     14948     14944     14947     14949     14944     14947     14950
     14948     14947     14949     14948     14947     14950     14949     14947     14950
     14947     14950     14951     14947     14950     14952     14947     14950     14953
     14951     14950     14952     14951     14950     14953     14952     14950     14953
     14950     14953     14954     14950     14953     14955     14950     14953     14956
     14954     14953     14955     14954     14953     14956     14955     14953     14956
     14953     14956     14957     14953     14956     14958     14953     14956     14959
     14957     14956     14958     14957     14956     14959     14958     14956     14959
     14956     14959     14960     14956     14959     14961     14956     14959     14962
     14960     14959     14961     14960     14959     14962     14961     14959     14962
     14959     14962     14963     14959     14962     14964     14963     14962     14964
     14962     14964     14965     14962     14964     14966     14965     14964     14966
     14964     14966     14967     14964     14966     14968     14964     14966     14969
     14967     14966     14968     14967     14966     14969     14968     14966     14969
     14966     14969     14970     14966     14969     14971     14966     14969     14972
     14970     14969     14971     14970     14969     14972     14971     14969     14972
     14969     14972     14973     14969     14972     14974     14969     14972     14975
     14973     14972     14974     14973     14972     14975     14974     14972     14975
     14972     14975     14976     14972     14975     14977     14972     14975     14978
     14976     14975     14977     14976     14975     14978     14977     14975     14978
     14975     14978     14979     14975     14978     14980     14975     14978     14981
     14979     14978     14980     14979     14978     14981     14980     14978     14981
     14978     14981     14982     14978     14981     14983     14978     14981     14984
     14982     14981     14983     14982     14981     14984     14983     14981     14984
     14981     14984     14985     14981     14984     14986     14981     14984     14987
     14985     14984     14986     14985     14984     14987     14986     14984     14987
     14984     14987     14988     14984     14987     14989     14984     14987     14990
     14988     14987     14989     14988     14987     14990     14989     14987     14990
     14992     14991     14995     14992     14991     14999     14992     14991     15003
     14995     14991     14999     14995     14991     15003     14999     14991     15003
     14991     14992     14993     14991     14992     14994     14991     14992     15007
     14993     14992     14994     14993     14992     15007     14994     14992     15007
     14991     14995     14996     14991     14995     14997     14991     14995     14998
     14996     14995     14997     14996     14995     14998     14997     14995     14998
     14991     14999     15000     14991     14999     15001     14991     14999     15002
     15000     14999     15001     15000     14999     15002     15001     14999     15002
     14991     15003     15004     14991     15003     15005     14991     15003     15006
     15004     15003     15005     15004     15003     15006     15005     15003     15006
     14992     15007     15008     14992     15007     15009     14992     15007     15013
     15008     15007     15009     15008     15007     15013     15009     15007     15013
     15011     15010     15012     15011     15010     15013     15011     15010     15014
     15012     15010     15013     15012     15010     15014     15013     15010     15014
     15007     15013     15010     15010     15014     15015     15014     15015     15016
     15014     15015     15017     15014     15015     15018     15016     15015     15017
     15016     15015     15018     15017     15015     15018     15015     15018     15019
     15015     15018     15020     15015     15018     15026     15019     15018     15020
     15019     15018     15026     15020     15018     15026     15018     15020     15021
     15020     15021     15022     15020     15021     15023     15022     15021     15023
     15021     15023     15024     15021     15023     15025     15021     15023     15035
     15024     15023     15025     15024     15023     15035     15025     15023     15035
     15018     15026     15027     15018     15026     15028     15018     15026     15029
     15027     15026     15028     15027     15026     15029     15028     15026     15029
     15026     15029     15030     15029     15030     15031     15029     15030     15032
     15031     15030     15032     15030     15032     15033     15030     15032     15034
     15030     15032     15082     15033     15032     15034     15033     15032     15082
     15034     15032     15082     15023     15035     15036     15023     15035     15037
     15023     15035     15038     15036     15035     15037     15036     15035     15038
     15037     15035     15038     15035     15038     15039     15035     15038     15040
     15035     15038     15041     15039     15038     15040     15039     15038     15041
     15040     15038     15041     15038     15041     15042     15038     15041     15043
     15038     15041     15044     15042     15041     15043     15042     15041     15044
     15043     15041     15044     15041     15044     15045     15041     15044     15046
     15041     15044     15047     15045     15044     15046     15045     15044     15047
     15046     15044     15047     15044     15047     15048     15044     15047     15049
     15044     15047     15050     15048     15047     15049     15048     15047     15050
     15049     15047     15050     15047     15050     15051     15047     15050     15052
     15047     15050     15053     15051     15050     15052     15051     15050     15053
     15052     15050     15053     15050     15053     15054     15050     15053     15055
     15054     15053     15055     15053     15055     15056     15053     15055     15057
     15056     15055     15057     15055     15057     15058     15055     15057     15059
     15055     15057     15060     15058     15057     15059     15058     15057     15060
     15059     15057     15060     15057     15060     15061     15057     15060     15062
     15057     15060     15063     15061     15060     15062     15061     15060     15063
     15062     15060     15063     15060     15063     15064     15060     15063     15065
     15060     15063     15066     15064     15063     15065     15064     15063     15066
     15065     15063     15066     15063     15066     15067     15063     15066     15068
     15063     15066     15069     15067     15066     15068     15067     15066     15069
     15068     15066     15069     15066     15069     15070     15066     15069     15071
     15066     15069     15072     15070     15069     15071     15070     15069     15072
     15071     15069     15072     15069     15072     15073     15069     15072     15074
     15069     15072     15075     15073     15072     15074     15073     15072     15075
     15074     15072     15075     15072     15075     15076     15072     15075     15077
     15072     15075     15078     15076     15075     15077     15076     15075     15078
     15077     15075     15078     15075     15078     15079     15075     15078     15080
     15075     15078     15081     15079     15078     15080     15079     15078     15081
     15080     15078     15081     15032     15082     15083     15032     15082     15084
     15032     15082     15085     15083     15082     15084     15083     15082     15085
     15084     15082     15085     15082     15085     15086     15082     15085     15087
     15082     15085     15088     15086     15085     15087     15086     15085     15088
     15087     15085     15088     15085     15088     15089     15085     15088     15090
     15085     15088     15091     15089     15088     15090     15089     15088     15091
     15090     15088     15091     15088     15091     15092     15088     15091     15093
     15088     15091     15094     15092     15091     15093     15092     15091     15094
     15093     15091     15094     15091     15094     15095     15091     15094     15096
     15091     15094     15097     15095     15094     15096     15095     15094     15097
     15096     15094     15097     15094     15097     15098     15094     15097     15099
     15094     15097     15100     15098     15097     15099     15098     15097     15100
     15099     15097     15100     15097     15100     15101     15097     15100     15102
     15101     15100     15102     15100     15102     15103     15100     15102     15104
     15103     15102     15104     15102     15104     15105     15102     15104     15106
     15102     15104     15107     15105     15104     15106     15105     15104     15107
     15106     15104     15107     15104     15107     15108     15104     15107     15109
     15104     15107     15110     15108     15107     15109     15108     15107     15110
     15109     15107     15110     15107     15110     15111     15107     15110     15112
     15107     15110     15113     15111     15110     15112     15111     15110     15113
     15112     15110     15113     15110     15113     15114     15110     15113     15115
     15110     15113     15116     15114     15113     15115     15114     15113     15116
     15115     15113     15116     15113     15116     15117     15113     15116     15118
     15113     15116     15119     15117     15116     15118     15117     15116     15119
     15118     15116     15119     15116     15119     15120     15116     15119     15121
     15116     15119     15122     15120     15119     15121     15120     15119     15122
     15121     15119     15122     15119     15122     15123     15119     15122     15124
     15119     15122     15125     15123     15122     15124     15123     15122     15125
     15124     15122     15125     15122     15125     15126     15122     15125     15127
     15122     15125     15128     15126     15125     15127     15126     15125     15128
     15127     15125     15128     15130     15129     15133     15130     15129     15137
     15130     15129     15141     15133     15129     15137     15133     15129     15141
     15137     15129     15141     15129     15130     15131     15129     15130     15132
     15129     15130     15145     15131     15130     15132     15131     15130     15145
     15132     15130     15145     15129     15133     15134     15129     15133     15135
     15129     15133     15136     15134     15133     15135     15134     15133     15136
     15135     15133     15136     15129     15137     15138     15129     15137     15139
     15129     15137     15140     15138     15137     15139     15138     15137     15140
     15139     15137     15140     15129     15141     15142     15129     15141     15143
     15129     15141     15144     15142     15141     15143     15142     15141     15144
     15143     15141     15144     15130     15145     15146     15130     15145     15147
     15130     15145     15151     15146     15145     15147     15146     15145     15151
     15147     15145     15151     15149     15148     15150     15149     15148     15151
     15149     15148     15152     15150     15148     15151     15150     15148     15152
     15151     15148     15152     15145     15151     15148     15148     15152     15153
     15152     15153     15154     15152     15153     15155     15152     15153     15156
     15154     15153     15155     15154     15153     15156     15155     15153     15156
     15153     15156     15157     15153     15156     15158     15153     15156     15164
     15157     15156     15158     15157     15156     15164     15158     15156     15164
     15156     15158     15159     15158     15159     15160     15158     15159     15161
     15160     15159     15161     15159     15161     15162     15159     15161     15163
     15159     15161     15173     15162     15161     15163     15162     15161     15173
     15163     15161     15173     15156     15164     15165     15156     15164     15166
     15156     15164     15167     15165     15164     15166     15165     15164     15167
     15166     15164     15167     15164     15167     15168     15167     15168     15169
     15167     15168     15170     15169     15168     15170     15168     15170     15171
     15168     15170     15172     15168     15170     15220     15171     15170     15172
     15171     15170     15220     15172     15170     15220     15161     15173     15174
     15161     15173     15175     15161     15173     15176     15174     15173     15175
     15174     15173     15176     15175     15173     15176     15173     15176     15177
     15173     15176     15178     15173     15176     15179     15177     15176     15178
     15177     15176     15179     15178     15176     15179     15176     15179     15180
     15176     15179     15181     15176     15179     15182     15180     15179     15181
     15180     15179     15182     15181     15179     15182     15179     15182     15183
     15179     15182     15184     15179     15182     15185     15183     15182     15184
     15183     15182     15185     15184     15182     15185     15182     15185     15186
     15182     15185     15187     15182     15185     15188     15186     15185     15187
     15186     15185     15188     15187     15185     15188     15185     15188     15189
     15185     15188     15190     15185     15188     15191     15189     15188     15190
     15189     15188     15191     15190     15188     15191     15188     15191     15192
     15188     15191     15193     15192     15191     15193     15191     15193     15194
     15191     15193     15195     15194     15193     15195     15193     15195     15196
     15193     15195     15197     15193     15195     15198     15196     15195     15197
     15196     15195     15198     15197     15195     15198     15195     15198     15199
     15195     15198     15200     15195     15198     15201     15199     15198     15200
     15199     15198     15201     15200     15198     15201     15198     15201     15202
     15198     15201     15203     15198     15201     15204     15202     15201     15203
     15202     15201     15204     15203     15201     15204     15201     15204     15205
     15201     15204     15206     15201     15204     15207     15205     15204     15206
     15205     15204     15207     15206     15204     15207     15204     15207     15208
     15204     15207     15209     15204     15207     15210     15208     15207     15209
     15208     15207     15210     15209     15207     15210     15207     15210     15211
     15207     15210     15212     15207     15210     15213     15211     15210     15212
     15211     15210     15213     15212     15210     15213     15210     15213     15214
     15210     15213     15215     15210     15213     15216     15214     15213     15215
     15214     15213     15216     15215     15213     15216     15213     15216     15217
     15213     15216     15218     15213     15216     15219     15217     15216     15218
     15217     15216     15219     15218     15216     15219     15170     15220     15221
     15170     15220     15222     15170     15220     15223     15221     15220     15222
     15221     15220     15223     15222     15220     15223     15220     15223     15224
     15220     15223     15225     15220     15223     15226     15224     15223     15225
     15224     15223     15226     15225     15223     15226     15223     15226     15227
     15223     15226     15228     15223     15226     15229     15227     15226     15228
     15227     15226     15229     15228     15226     15229     15226     15229     15230
     15226     15229     15231     15226     15229     15232     15230     15229     15231
     15230     15229     15232     15231     15229     15232     15229     15232     15233
     15229     15232     15234     15229     15232     15235     15233     15232     15234
     15233     15232     15235     15234     15232     15235     15232     15235     15236
     15232     15235     15237     15232     15235     15238     15236     15235     15237
     15236     15235     15238     15237     15235     15238     15235     15238     15239
     15235     15238     15240     15239     15238     15240     15238     15240     15241
     15238     15240     15242     15241     15240     15242     15240     15242     15243
     15240     15242     15244     15240     15242     15245     15243     15242     15244
     15243     15242     15245     15244     15242     15245     15242     15245     15246
     15242     15245     15247     15242     15245     15248     15246     15245     15247
     15246     15245     15248     15247     15245     15248     15245     15248     15249
     15245     15248     15250     15245     15248     15251     15249     15248     15250
     15249     15248     15251     15250     15248     15251     15248     15251     15252
     15248     15251     15253     15248     15251     15254     15252     15251     15253
     15252     15251     15254     15253     15251     15254     15251     15254     15255
     15251     15254     15256     15251     15254     15257     15255     15254     15256
     15255     15254     15257     15256     15254     15257     15254     15257     15258
     15254     15257     15259     15254     15257     15260     15258     15257     15259
     15258     15257     15260     15259     15257     15260     15257     15260     15261
     15257     15260     15262     15257     15260     15263     15261     15260     15262
     15261     15260     15263     15262     15260     15263     15260     15263     15264
     15260     15263     15265     15260     15263     15266     15264     15263     15265
     15264     15263     15266     15265     15263     15266     15268     15267     15271
     15268     15267     15275     15268     15267     15279     15271     15267     15275
     15271     15267     15279     15275     15267     15279     15267     15268     15269
     15267     15268     15270     15267     15268     15283     15269     15268     15270
     15269     15268     15283     15270     15268     15283     15267     15271     15272
     15267     15271     15273     15267     15271     15274     15272     15271     15273
     15272     15271     15274     15273     15271     15274     15267     15275     15276
     15267     15275     15277     15267     15275     15278     15276     15275     15277
     15276     15275     15278     15277     15275     15278     15267     15279     15280
     15267     15279     15281     15267     15279     15282     15280     15279     15281
     15280     15279     15282     15281     15279     15282     15268     15283     15284
     15268     15283     15285     15268     15283     15289     15284     15283     15285
     15284     15283     15289     15285     15283     15289     15287     15286     15288
     15287     15286     15289     15287     15286     15290     15288     15286     15289
     15288     15286     15290     15289     15286     15290     15283     15289     15286
     15286     15290     15291     15290     15291     15292     15290     15291     15293
     15290     15291     15294     15292     15291     15293     15292     15291     15294
     15293     15291     15294     15291     15294     15295     15291     15294     15296
     15291     15294     15302     15295     15294     15296     15295     15294     15302
     15296     15294     15302     15294     15296     15297     15296     15297     15298
     15296     15297     15299     15298     15297     15299     15297     15299     15300
     15297     15299     15301     15297     15299     15311     15300     15299     15301
     15300     15299     15311     15301     15299     15311     15294     15302     15303
     15294     15302     15304     15294     15302     15305     15303     15302     15304
     15303     15302     15305     15304     15302     15305     15302     15305     15306
     15305     15306     15307     15305     15306     15308     15307     15306     15308
     15306     15308     15309     15306     15308     15310     15306     15308     15358
     15309     15308     15310     15309     15308     15358     15310     15308     15358
     15299     15311     15312     15299     15311     15313     15299     15311     15314
     15312     15311     15313     15312     15311     15314     15313     15311     15314
     15311     15314     15315     15311     15314     15316     15311     15314     15317
     15315     15314     15316     15315     15314     15317     15316     15314     15317
     15314     15317     15318     15314     15317     15319     15314     15317     15320
     15318     15317     15319     15318     15317     15320     15319     15317     15320
     15317     15320     15321     15317     15320     15322     15317     15320     15323
     15321     15320     15322     15321     15320     15323     15322     15320     15323
     15320     15323     15324     15320     15323     15325     15320     15323     15326
     15324     15323     15325     15324     15323     15326     15325     15323     15326
     15323     15326     15327     15323     15326     15328     15323     15326     15329
     15327     15326     15328     15327     15326     15329     15328     15326     15329
     15326     15329     15330     15326     15329     15331     15330     15329     15331
     15329     15331     15332     15329     15331     15333     15332     15331     15333
     15331     15333     15334     15331     15333     15335     15331     15333     15336
     15334     15333     15335     15334     15333     15336     15335     15333     15336
     15333     15336     15337     15333     15336     15338     15333     15336     15339
     15337     15336     15338     15337     15336     15339     15338     15336     15339
     15336     15339     15340     15336     15339     15341     15336     15339     15342
     15340     15339     15341     15340     15339     15342     15341     15339     15342
     15339     15342     15343     15339     15342     15344     15339     15342     15345
     15343     15342     15344     15343     15342     15345     15344     15342     15345
     15342     15345     15346     15342     15345     15347     15342     15345     15348
     15346     15345     15347     15346     15345     15348     15347     15345     15348
     15345     15348     15349     15345     15348     15350     15345     15348     15351
     15349     15348     15350     15349     15348     15351     15350     15348     15351
     15348     15351     15352     15348     15351     15353     15348     15351     15354
     15352     15351     15353     15352     15351     15354     15353     15351     15354
     15351     15354     15355     15351     15354     15356     15351     15354     15357
     15355     15354     15356     15355     15354     15357     15356     15354     15357
     15308     15358     15359     15308     15358     15360     15308     15358     15361
     15359     15358     15360     15359     15358     15361     15360     15358     15361
     15358     15361     15362     15358     15361     15363     15358     15361     15364
     15362     15361     15363     15362     15361     15364     15363     15361     15364
     15361     15364     15365     15361     15364     15366     15361     15364     15367
     15365     15364     15366     15365     15364     15367     15366     15364     15367
     15364     15367     15368     15364     15367     15369     15364     15367     15370
     15368     15367     15369     15368     15367     15370     15369     15367     15370
     15367     15370     15371     15367     15370     15372     15367     15370     15373
     15371     15370     15372     15371     15370     15373     15372     15370     15373
     15370     15373     15374     15370     15373     15375     15370     15373     15376
     15374     15373     15375     15374     15373     15376     15375     15373     15376
     15373     15376     15377     15373     15376     15378     15377     15376     15378
     15376     15378     15379     15376     15378     15380     15379     15378     15380
     15378     15380     15381     15378     15380     15382     15378     15380     15383
     15381     15380     15382     15381     15380     15383     15382     15380     15383
     15380     15383     15384     15380     15383     15385     15380     15383     15386
     15384     15383     15385     15384     15383     15386     15385     15383     15386
     15383     15386     15387     15383     15386     15388     15383     15386     15389
     15387     15386     15388     15387     15386     15389     15388     15386     15389
     15386     15389     15390     15386     15389     15391     15386     15389     15392
     15390     15389     15391     15390     15389     15392     15391     15389     15392
     15389     15392     15393     15389     15392     15394     15389     15392     15395
     15393     15392     15394     15393     15392     15395     15394     15392     15395
     15392     15395     15396     15392     15395     15397     15392     15395     15398
     15396     15395     15397     15396     15395     15398     15397     15395     15398
     15395     15398     15399     15395     15398     15400     15395     15398     15401
     15399     15398     15400     15399     15398     15401     15400     15398     15401
     15398     15401     15402     15398     15401     15403     15398     15401     15404
     15402     15401     15403     15402     15401     15404     15403     15401     15404
     15406     15405     15409     15406     15405     15413     15406     15405     15417
     15409     15405     15413     15409     15405     15417     15413     15405     15417
     15405     15406     15407     15405     15406     15408     15405     15406     15421
     15407     15406     15408     15407     15406     15421     15408     15406     15421
     15405     15409     15410     15405     15409     15411     15405     15409     15412
     15410     15409     15411     15410     15409     15412     15411     15409     15412
     15405     15413     15414     15405     15413     15415     15405     15413     15416
     15414     15413     15415     15414     15413     15416     15415     15413     15416
     15405     15417     15418     15405     15417     15419     15405     15417     15420
     15418     15417     15419     15418     15417     15420     15419     15417     15420
     15406     15421     15422     15406     15421     15423     15406     15421     15427
     15422     15421     15423     15422     15421     15427     15423     15421     15427
     15425     15424     15426     15425     15424     15427     15425     15424     15428
     15426     15424     15427     15426     15424     15428     15427     15424     15428
     15421     15427     15424     15424     15428     15429     15428     15429     15430
     15428     15429     15431     15428     15429     15432     15430     15429     15431
     15430     15429     15432     15431     15429     15432     15429     15432     15433
     15429     15432     15434     15429     15432     15440     15433     15432     15434
     15433     15432     15440     15434     15432     15440     15432     15434     15435
     15434     15435     15436     15434     15435     15437     15436     15435     15437
     15435     15437     15438     15435     15437     15439     15435     15437     15449
     15438     15437     15439     15438     15437     15449     15439     15437     15449
     15432     15440     15441     15432     15440     15442     15432     15440     15443
     15441     15440     15442     15441     15440     15443     15442     15440     15443
     15440     15443     15444     15443     15444     15445     15443     15444     15446
     15445     15444     15446     15444     15446     15447     15444     15446     15448
     15444     15446     15496     15447     15446     15448     15447     15446     15496
     15448     15446     15496     15437     15449     15450     15437     15449     15451
     15437     15449     15452     15450     15449     15451     15450     15449     15452
     15451     15449     15452     15449     15452     15453     15449     15452     15454
     15449     15452     15455     15453     15452     15454     15453     15452     15455
     15454     15452     15455     15452     15455     15456     15452     15455     15457
     15452     15455     15458     15456     15455     15457     15456     15455     15458
     15457     15455     15458     15455     15458     15459     15455     15458     15460
     15455     15458     15461     15459     15458     15460     15459     15458     15461
     15460     15458     15461     15458     15461     15462     15458     15461     15463
     15458     15461     15464     15462     15461     15463     15462     15461     15464
     15463     15461     15464     15461     15464     15465     15461     15464     15466
     15461     15464     15467     15465     15464     15466     15465     15464     15467
     15466     15464     15467     15464     15467     15468     15464     15467     15469
     15468     15467     15469     15467     15469     15470     15467     15469     15471
     15470     15469     15471     15469     15471     15472     15469     15471     15473
     15469     15471     15474     15472     15471     15473     15472     15471     15474
     15473     15471     15474     15471     15474     15475     15471     15474     15476
     15471     15474     15477     15475     15474     15476     15475     15474     15477
     15476     15474     15477     15474     15477     15478     15474     15477     15479
     15474     15477     15480     15478     15477     15479     15478     15477     15480
     15479     15477     15480     15477     15480     15481     15477     15480     15482
     15477     15480     15483     15481     15480     15482     15481     15480     15483
     15482     15480     15483     15480     15483     15484     15480     15483     15485
     15480     15483     15486     15484     15483     15485     15484     15483     15486
     15485     15483     15486     15483     15486     15487     15483     15486     15488
     15483     15486     15489     15487     15486     15488     15487     15486     15489
     15488     15486     15489     15486     15489     15490     15486     15489     15491
     15486     15489     15492     15490     15489     15491     15490     15489     15492
     15491     15489     15492     15489     15492     15493     15489     15492     15494
     15489     15492     15495     15493     15492     15494     15493     15492     15495
     15494     15492     15495     15446     15496     15497     15446     15496     15498
     15446     15496     15499     15497     15496     15498     15497     15496     15499
     15498     15496     15499     15496     15499     15500     15496     15499     15501
     15496     15499     15502     15500     15499     15501     15500     15499     15502
     15501     15499     15502     15499     15502     15503     15499     15502     15504
     15499     15502     15505     15503     15502     15504     15503     15502     15505
     15504     15502     15505     15502     15505     15506     15502     15505     15507
     15502     15505     15508     15506     15505     15507     15506     15505     15508
     15507     15505     15508     15505     15508     15509     15505     15508     15510
     15505     15508     15511     15509     15508     15510     15509     15508     15511
     15510     15508     15511     15508     15511     15512     15508     15511     15513
     15508     15511     15514     15512     15511     15513     15512     15511     15514
     15513     15511     15514     15511     15514     15515     15511     15514     15516
     15515     15514     15516     15514     15516     15517     15514     15516     15518
     15517     15516     15518     15516     15518     15519     15516     15518     15520
     15516     15518     15521     15519     15518     15520     15519     15518     15521
     15520     15518     15521     15518     15521     15522     15518     15521     15523
     15518     15521     15524     15522     15521     15523     15522     15521     15524
     15523     15521     15524     15521     15524     15525     15521     15524     15526
     15521     15524     15527     15525     15524     15526     15525     15524     15527
     15526     15524     15527     15524     15527     15528     15524     15527     15529
     15524     15527     15530     15528     15527     15529     15528     15527     15530
     15529     15527     15530     15527     15530     15531     15527     15530     15532
     15527     15530     15533     15531     15530     15532     15531     15530     15533
     15532     15530     15533     15530     15533     15534     15530     15533     15535
     15530     15533     15536     15534     15533     15535     15534     15533     15536
     15535     15533     15536     15533     15536     15537     15533     15536     15538
     15533     15536     15539     15537     15536     15538     15537     15536     15539
     15538     15536     15539     15536     15539     15540     15536     15539     15541
     15536     15539     15542     15540     15539     15541     15540     15539     15542
     15541     15539     15542     15544     15543     15547     15544     15543     15551
     15544     15543     15555     15547     15543     15551     15547     15543     15555
     15551     15543     15555     15543     15544     15545     15543     15544     15546
     15543     15544     15559     15545     15544     15546     15545     15544     15559
     15546     15544     15559     15543     15547     15548     15543     15547     15549
     15543     15547     15550     15548     15547     15549     15548     15547     15550
     15549     15547     15550     15543     15551     15552     15543     15551     15553
     15543     15551     15554     15552     15551     15553     15552     15551     15554
     15553     15551     15554     15543     15555     15556     15543     15555     15557
     15543     15555     15558     15556     15555     15557     15556     15555     15558
     15557     15555     15558     15544     15559     15560     15544     15559     15561
     15544     15559     15565     15560     15559     15561     15560     15559     15565
     15561     15559     15565     15563     15562     15564     15563     15562     15565
     15563     15562     15566     15564     15562     15565     15564     15562     15566
     15565     15562     15566     15559     15565     15562     15562     15566     15567
     15566     15567     15568     15566     15567     15569     15566     15567     15570
     15568     15567     15569     15568     15567     15570     15569     15567     15570
     15567     15570     15571     15567     15570     15572     15567     15570     15578
     15571     15570     15572     15571     15570     15578     15572     15570     15578
     15570     15572     15573     15572     15573     15574     15572     15573     15575
     15574     15573     15575     15573     15575     15576     15573     15575     15577
     15573     15575     15587     15576     15575     15577     15576     15575     15587
     15577     15575     15587     15570     15578     15579     15570     15578     15580
     15570     15578     15581     15579     15578     15580     15579     15578     15581
     15580     15578     15581     15578     15581     15582     15581     15582     15583
     15581     15582     15584     15583     15582     15584     15582     15584     15585
     15582     15584     15586     15582     15584     15634     15585     15584     15586
     15585     15584     15634     15586     15584     15634     15575     15587     15588
     15575     15587     15589     15575     15587     15590     15588     15587     15589
     15588     15587     15590     15589     15587     15590     15587     15590     15591
     15587     15590     15592     15587     15590     15593     15591     15590     15592
     15591     15590     15593     15592     15590     15593     15590     15593     15594
     15590     15593     15595     15590     15593     15596     15594     15593     15595
     15594     15593     15596     15595     15593     15596     15593     15596     15597
     15593     15596     15598     15593     15596     15599     15597     15596     15598
     15597     15596     15599     15598     15596     15599     15596     15599     15600
     15596     15599     15601     15596     15599     15602     15600     15599     15601
     15600     15599     15602     15601     15599     15602     15599     15602     15603
     15599     15602     15604     15599     15602     15605     15603     15602     15604
     15603     15602     15605     15604     15602     15605     15602     15605     15606
     15602     15605     15607     15606     15605     15607     15605     15607     15608
     15605     15607     15609     15608     15607     15609     15607     15609     15610
     15607     15609     15611     15607     15609     15612     15610     15609     15611
     15610     15609     15612     15611     15609     15612     15609     15612     15613
     15609     15612     15614     15609     15612     15615     15613     15612     15614
     15613     15612     15615     15614     15612     15615     15612     15615     15616
     15612     15615     15617     15612     15615     15618     15616     15615     15617
     15616     15615     15618     15617     15615     15618     15615     15618     15619
     15615     15618     15620     15615     15618     15621     15619     15618     15620
     15619     15618     15621     15620     15618     15621     15618     15621     15622
     15618     15621     15623     15618     15621     15624     15622     15621     15623
     15622     15621     15624     15623     15621     15624     15621     15624     15625
     15621     15624     15626     15621     15624     15627     15625     15624     15626
     15625     15624     15627     15626     15624     15627     15624     15627     15628
     15624     15627     15629     15624     15627     15630     15628     15627     15629
     15628     15627     15630     15629     15627     15630     15627     15630     15631
     15627     15630     15632     15627     15630     15633     15631     15630     15632
     15631     15630     15633     15632     15630     15633     15584     15634     15635
     15584     15634     15636     15584     15634     15637     15635     15634     15636
     15635     15634     15637     15636     15634     15637     15634     15637     15638
     15634     15637     15639     15634     15637     15640     15638     15637     15639
     15638     15637     15640     15639     15637     15640     15637     15640     15641
     15637     15640     15642     15637     15640     15643     15641     15640     15642
     15641     15640     15643     15642     15640     15643     15640     15643     15644
     15640     15643     15645     15640     15643     15646     15644     15643     15645
     15644     15643     15646     15645     15643     15646     15643     15646     15647
     15643     15646     15648     15643     15646     15649     15647     15646     15648
     15647     15646     15649     15648     15646     15649     15646     15649     15650
     15646     15649     15651     15646     15649     15652     15650     15649     15651
     15650     15649     15652     15651     15649     15652     15649     15652     15653
     15649     15652     15654     15653     15652     15654     15652     15654     15655
     15652     15654     15656     15655     15654     15656     15654     15656     15657
     15654     15656     15658     15654     15656     15659     15657     15656     15658
     15657     15656     15659     15658     15656     15659     15656     15659     15660
     15656     15659     15661     15656     15659     15662     15660     15659     15661
     15660     15659     15662     15661     15659     15662     15659     15662     15663
     15659     15662     15664     15659     15662     15665     15663     15662     15664
     15663     15662     15665     15664     15662     15665     15662     15665     15666
     15662     15665     15667     15662     15665     15668     15666     15665     15667
     15666     15665     15668     15667     15665     15668     15665     15668     15669
     15665     15668     15670     15665     15668     15671     15669     15668     15670
     15669     15668     15671     15670     15668     15671     15668     15671     15672
     15668     15671     15673     15668     15671     15674     15672     15671     15673
     15672     15671     15674     15673     15671     15674     15671     15674     15675
     15671     15674     15676     15671     15674     15677     15675     15674     15676
     15675     15674     15677     15676     15674     15677     15674     15677     15678
     15674     15677     15679     15674     15677     15680     15678     15677     15679
     15678     15677     15680     15679     15677     15680     15682     15681     15685
     15682     15681     15689     15682     15681     15693     15685     15681     15689
     15685     15681     15693     15689     15681     15693     15681     15682     15683
     15681     15682     15684     15681     15682     15697     15683     15682     15684
     15683     15682     15697     15684     15682     15697     15681     15685     15686
     15681     15685     15687     15681     15685     15688     15686     15685     15687
     15686     15685     15688     15687     15685     15688     15681     15689     15690
     15681     15689     15691     15681     15689     15692     15690     15689     15691
     15690     15689     15692     15691     15689     15692     15681     15693     15694
     15681     15693     15695     15681     15693     15696     15694     15693     15695
     15694     15693     15696     15695     15693     15696     15682     15697     15698
     15682     15697     15699     15682     15697     15703     15698     15697     15699
     15698     15697     15703     15699     15697     15703     15701     15700     15702
     15701     15700     15703     15701     15700     15704     15702     15700     15703
     15702     15700     15704     15703     15700     15704     15697     15703     15700
     15700     15704     15705     15704     15705     15706     15704     15705     15707
     15704     15705     15708     15706     15705     15707     15706     15705     15708
     15707     15705     15708     15705     15708     15709     15705     15708     15710
     15705     15708     15716     15709     15708     15710     15709     15708     15716
     15710     15708     15716     15708     15710     15711     15710     15711     15712
     15710     15711     15713     15712     15711     15713     15711     15713     15714
     15711     15713     15715     15711     15713     15725     15714     15713     15715
     15714     15713     15725     15715     15713     15725     15708     15716     15717
     15708     15716     15718     15708     15716     15719     15717     15716     15718
     15717     15716     15719     15718     15716     15719     15716     15719     15720
     15719     15720     15721     15719     15720     15722     15721     15720     15722
     15720     15722     15723     15720     15722     15724     15720     15722     15772
     15723     15722     15724     15723     15722     15772     15724     15722     15772
     15713     15725     15726     15713     15725     15727     15713     15725     15728
     15726     15725     15727     15726     15725     15728     15727     15725     15728
     15725     15728     15729     15725     15728     15730     15725     15728     15731
     15729     15728     15730     15729     15728     15731     15730     15728     15731
     15728     15731     15732     15728     15731     15733     15728     15731     15734
     15732     15731     15733     15732     15731     15734     15733     15731     15734
     15731     15734     15735     15731     15734     15736     15731     15734     15737
     15735     15734     15736     15735     15734     15737     15736     15734     15737
     15734     15737     15738     15734     15737     15739     15734     15737     15740
     15738     15737     15739     15738     15737     15740     15739     15737     15740
     15737     15740     15741     15737     15740     15742     15737     15740     15743
     15741     15740     15742     15741     15740     15743     15742     15740     15743
     15740     15743     15744     15740     15743     15745     15744     15743     15745
     15743     15745     15746     15743     15745     15747     15746     15745     15747
     15745     15747     15748     15745     15747     15749     15745     15747     15750
     15748     15747     15749     15748     15747     15750     15749     15747     15750
     15747     15750     15751     15747     15750     15752     15747     15750     15753
     15751     15750     15752     15751     15750     15753     15752     15750     15753
     15750     15753     15754     15750     15753     15755     15750     15753     15756
     15754     15753     15755     15754     15753     15756     15755     15753     15756
     15753     15756     15757     15753     15756     15758     15753     15756     15759
     15757     15756     15758     15757     15756     15759     15758     15756     15759
     15756     15759     15760     15756     15759     15761     15756     15759     15762
     15760     15759     15761     15760     15759     15762     15761     15759     15762
     15759     15762     15763     15759     15762     15764     15759     15762     15765
     15763     15762     15764     15763     15762     15765     15764     15762     15765
     15762     15765     15766     15762     15765     15767     15762     15765     15768
     15766     15765     15767     15766     15765     15768     15767     15765     15768
     15765     15768     15769     15765     15768     15770     15765     15768     15771
     15769     15768     15770     15769     15768     15771     15770     15768     15771
     15722     15772     15773     15722     15772     15774     15722     15772     15775
     15773     15772     15774     15773     15772     15775     15774     15772     15775
     15772     15775     15776     15772     15775     15777     15772     15775     15778
     15776     15775     15777     15776     15775     15778     15777     15775     15778
     15775     15778     15779     15775     15778     15780     15775     15778     15781
     15779     15778     15780     15779     15778     15781     15780     15778     15781
     15778     15781     15782     15778     15781     15783     15778     15781     15784
     15782     15781     15783     15782     15781     15784     15783     15781     15784
     15781     15784     15785     15781     15784     15786     15781     15784     15787
     15785     15784     15786     15785     15784     15787     15786     15784     15787
     15784     15787     15788     15784     15787     15789     15784     15787     15790
     15788     15787     15789     15788     15787     15790     15789     15787     15790
     15787     15790     15791     15787     15790     15792     15791     15790     15792
     15790     15792     15793     15790     15792     15794     15793     15792     15794
     15792     15794     15795     15792     15794     15796     15792     15794     15797
     15795     15794     15796     15795     15794     15797     15796     15794     15797
     15794     15797     15798     15794     15797     15799     15794     15797     15800
     15798     15797     15799     15798     15797     15800     15799     15797     15800
     15797     15800     15801     15797     15800     15802     15797     15800     15803
     15801     15800     15802     15801     15800     15803     15802     15800     15803
     15800     15803     15804     15800     15803     15805     15800     15803     15806
     15804     15803     15805     15804     15803     15806     15805     15803     15806
     15803     15806     15807     15803     15806     15808     15803     15806     15809
     15807     15806     15808     15807     15806     15809     15808     15806     15809
     15806     15809     15810     15806     15809     15811     15806     15809     15812
     15810     15809     15811     15810     15809     15812     15811     15809     15812
     15809     15812     15813     15809     15812     15814     15809     15812     15815
     15813     15812     15814     15813     15812     15815     15814     15812     15815
     15812     15815     15816     15812     15815     15817     15812     15815     15818
     15816     15815     15817     15816     15815     15818     15817     15815     15818
     15820     15819     15823     15820     15819     15827     15820     15819     15831
     15823     15819     15827     15823     15819     15831     15827     15819     15831
     15819     15820     15821     15819     15820     15822     15819     15820     15835
     15821     15820     15822     15821     15820     15835     15822     15820     15835
     15819     15823     15824     15819     15823     15825     15819     15823     15826
     15824     15823     15825     15824     15823     15826     15825     15823     15826
     15819     15827     15828     15819     15827     15829     15819     15827     15830
     15828     15827     15829     15828     15827     15830     15829     15827     15830
     15819     15831     15832     15819     15831     15833     15819     15831     15834
     15832     15831     15833     15832     15831     15834     15833     15831     15834
     15820     15835     15836     15820     15835     15837     15820     15835     15841
     15836     15835     15837     15836     15835     15841     15837     15835     15841
     15839     15838     15840     15839     15838     15841     15839     15838     15842
     15840     15838     15841     15840     15838     15842     15841     15838     15842
     15835     15841     15838     15838     15842     15843     15842     15843     15844
     15842     15843     15845     15842     15843     15846     15844     15843     15845
     15844     15843     15846     15845     15843     15846     15843     15846     15847
     15843     15846     15848     15843     15846     15854     15847     15846     15848
     15847     15846     15854     15848     15846     15854     15846     15848     15849
     15848     15849     15850     15848     15849     15851     15850     15849     15851
     15849     15851     15852     15849     15851     15853     15849     15851     15863
     15852     15851     15853     15852     15851     15863     15853     15851     15863
     15846     15854     15855     15846     15854     15856     15846     15854     15857
     15855     15854     15856     15855     15854     15857     15856     15854     15857
     15854     15857     15858     15857     15858     15859     15857     15858     15860
     15859     15858     15860     15858     15860     15861     15858     15860     15862
     15858     15860     15910     15861     15860     15862     15861     15860     15910
     15862     15860     15910     15851     15863     15864     15851     15863     15865
     15851     15863     15866     15864     15863     15865     15864     15863     15866
     15865     15863     15866     15863     15866     15867     15863     15866     15868
     15863     15866     15869     15867     15866     15868     15867     15866     15869
     15868     15866     15869     15866     15869     15870     15866     15869     15871
     15866     15869     15872     15870     15869     15871     15870     15869     15872
     15871     15869     15872     15869     15872     15873     15869     15872     15874
     15869     15872     15875     15873     15872     15874     15873     15872     15875
     15874     15872     15875     15872     15875     15876     15872     15875     15877
     15872     15875     15878     15876     15875     15877     15876     15875     15878
     15877     15875     15878     15875     15878     15879     15875     15878     15880
     15875     15878     15881     15879     15878     15880     15879     15878     15881
     15880     15878     15881     15878     15881     15882     15878     15881     15883
     15882     15881     15883     15881     15883     15884     15881     15883     15885
     15884     15883     15885     15883     15885     15886     15883     15885     15887
     15883     15885     15888     15886     15885     15887     15886     15885     15888
     15887     15885     15888     15885     15888     15889     15885     15888     15890
     15885     15888     15891     15889     15888     15890     15889     15888     15891
     15890     15888     15891     15888     15891     15892     15888     15891     15893
     15888     15891     15894     15892     15891     15893     15892     15891     15894
     15893     15891     15894     15891     15894     15895     15891     15894     15896
     15891     15894     15897     15895     15894     15896     15895     15894     15897
     15896     15894     15897     15894     15897     15898     15894     15897     15899
     15894     15897     15900     15898     15897     15899     15898     15897     15900
     15899     15897     15900     15897     15900     15901     15897     15900     15902
     15897     15900     15903     15901     15900     15902     15901     15900     15903
     15902     15900     15903     15900     15903     15904     15900     15903     15905
     15900     15903     15906     15904     15903     15905     15904     15903     15906
     15905     15903     15906     15903     15906     15907     15903     15906     15908
     15903     15906     15909     15907     15906     15908     15907     15906     15909
     15908     15906     15909     15860     15910     15911     15860     15910     15912
     15860     15910     15913     15911     15910     15912     15911     15910     15913
     15912     15910     15913     15910     15913     15914     15910     15913     15915
     15910     15913     15916     15914     15913     15915     15914     15913     15916
     15915     15913     15916     15913     15916     15917     15913     15916     15918
     15913     15916     15919     15917     15916     15918     15917     15916     15919
     15918     15916     15919     15916     15919     15920     15916     15919     15921
     15916     15919     15922     15920     15919     15921     15920     15919     15922
     15921     15919     15922     15919     15922     15923     15919     15922     15924
     15919     15922     15925     15923     15922     15924     15923     15922     15925
     15924     15922     15925     15922     15925     15926     15922     15925     15927
     15922     15925     15928     15926     15925     15927     15926     15925     15928
     15927     15925     15928     15925     15928     15929     15925     15928     15930
     15929     15928     15930     15928     15930     15931     15928     15930     15932
     15931     15930     15932     15930     15932     15933     15930     15932     15934
     15930     15932     15935     15933     15932     15934     15933     15932     15935
     15934     15932     15935     15932     15935     15936     15932     15935     15937
     15932     15935     15938     15936     15935     15937     15936     15935     15938
     15937     15935     15938     15935     15938     15939     15935     15938     15940
     15935     15938     15941     15939     15938     15940     15939     15938     15941
     15940     15938     15941     15938     15941     15942     15938     15941     15943
     15938     15941     15944     15942     15941     15943     15942     15941     15944
     15943     15941     15944     15941     15944     15945     15941     15944     15946
     15941     15944     15947     15945     15944     15946     15945     15944     15947
     15946     15944     15947     15944     15947     15948     15944     15947     15949
     15944     15947     15950     15948     15947     15949     15948     15947     15950
     15949     15947     15950     15947     15950     15951     15947     15950     15952
     15947     15950     15953     15951     15950     15952     15951     15950     15953
     15952     15950     15953     15950     15953     15954     15950     15953     15955
     15950     15953     15956     15954     15953     15955     15954     15953     15956
     15955     15953     15956     15958     15957     15961     15958     15957     15965
     15958     15957     15969     15961     15957     15965     15961     15957     15969
     15965     15957     15969     15957     15958     15959     15957     15958     15960
     15957     15958     15973     15959     15958     15960     15959     15958     15973
     15960     15958     15973     15957     15961     15962     15957     15961     15963
     15957     15961     15964     15962     15961     15963     15962     15961     15964
     15963     15961     15964     15957     15965     15966     15957     15965     15967
     15957     15965     15968     15966     15965     15967     15966     15965     15968
     15967     15965     15968     15957     15969     15970     15957     15969     15971
     15957     15969     15972     15970     15969     15971     15970     15969     15972
     15971     15969     15972     15958     15973     15974     15958     15973     15975
     15958     15973     15979     15974     15973     15975     15974     15973     15979
     15975     15973     15979     15977     15976     15978     15977     15976     15979
     15977     15976     15980     15978     15976     15979     15978     15976     15980
     15979     15976     15980     15973     15979     15976     15976     15980     15981
     15980     15981     15982     15980     15981     15983     15980     15981     15984
     15982     15981     15983     15982     15981     15984     15983     15981     15984
     15981     15984     15985     15981     15984     15986     15981     15984     15992
     15985     15984     15986     15985     15984     15992     15986     15984     15992
     15984     15986     15987     15986     15987     15988     15986     15987     15989
     15988     15987     15989     15987     15989     15990     15987     15989     15991
     15987     15989     16001     15990     15989     15991     15990     15989     16001
     15991     15989     16001     15984     15992     15993     15984     15992     15994
     15984     15992     15995     15993     15992     15994     15993     15992     15995
     15994     15992     15995     15992     15995     15996     15995     15996     15997
     15995     15996     15998     15997     15996     15998     15996     15998     15999
     15996     15998     16000     15996     15998     16048     15999     15998     16000
     15999     15998     16048     16000     15998     16048     15989     16001     16002
     15989     16001     16003     15989     16001     16004     16002     16001     16003
     16002     16001     16004     16003     16001     16004     16001     16004     16005
     16001     16004     16006     16001     16004     16007     16005     16004     16006
     16005     16004     16007     16006     16004     16007     16004     16007     16008
     16004     16007     16009     16004     16007     16010     16008     16007     16009
     16008     16007     16010     16009     16007     16010     16007     16010     16011
     16007     16010     16012     16007     16010     16013     16011     16010     16012
     16011     16010     16013     16012     16010     16013     16010     16013     16014
     16010     16013     16015     16010     16013     16016     16014     16013     16015
     16014     16013     16016     16015     16013     16016     16013     16016     16017
     16013     16016     16018     16013     16016     16019     16017     16016     16018
     16017     16016     16019     16018     16016     16019     16016     16019     16020
     16016     16019     16021     16020     16019     16021     16019     16021     16022
     16019     16021     16023     16022     16021     16023     16021     16023     16024
     16021     16023     16025     16021     16023     16026     16024     16023     16025
     16024     16023     16026     16025     16023     16026     16023     16026     16027
     16023     16026     16028     16023     16026     16029     16027     16026     16028
     16027     16026     16029     16028     16026     16029     16026     16029     16030
     16026     16029     16031     16026     16029     16032     16030     16029     16031
     16030     16029     16032     16031     16029     16032     16029     16032     16033
     16029     16032     16034     16029     16032     16035     16033     16032     16034
     16033     16032     16035     16034     16032     16035     16032     16035     16036
     16032     16035     16037     16032     16035     16038     16036     16035     16037
     16036     16035     16038     16037     16035     16038     16035     16038     16039
     16035     16038     16040     16035     16038     16041     16039     16038     16040
     16039     16038     16041     16040     16038     16041     16038     16041     16042
     16038     16041     16043     16038     16041     16044     16042     16041     16043
     16042     16041     16044     16043     16041     16044     16041     16044     16045
     16041     16044     16046     16041     16044     16047     16045     16044     16046
     16045     16044     16047     16046     16044     16047     15998     16048     16049
     15998     16048     16050     15998     16048     16051     16049     16048     16050
     16049     16048     16051     16050     16048     16051     16048     16051     16052
     16048     16051     16053     16048     16051     16054     16052     16051     16053
     16052     16051     16054     16053     16051     16054     16051     16054     16055
     16051     16054     16056     16051     16054     16057     16055     16054     16056
     16055     16054     16057     16056     16054     16057     16054     16057     16058
     16054     16057     16059     16054     16057     16060     16058     16057     16059
     16058     16057     16060     16059     16057     16060     16057     16060     16061
     16057     16060     16062     16057     16060     16063     16061     16060     16062
     16061     16060     16063     16062     16060     16063     16060     16063     16064
     16060     16063     16065     16060     16063     16066     16064     16063     16065
     16064     16063     16066     16065     16063     16066     16063     16066     16067
     16063     16066     16068     16067     16066     16068     16066     16068     16069
     16066     16068     16070     16069     16068     16070     16068     16070     16071
     16068     16070     16072     16068     16070     16073     16071     16070     16072
     16071     16070     16073     16072     16070     16073     16070     16073     16074
     16070     16073     16075     16070     16073     16076     16074     16073     16075
     16074     16073     16076     16075     16073     16076     16073     16076     16077
     16073     16076     16078     16073     16076     16079     16077     16076     16078
     16077     16076     16079     16078     16076     16079     16076     16079     16080
     16076     16079     16081     16076     16079     16082     16080     16079     16081
     16080     16079     16082     16081     16079     16082     16079     16082     16083
     16079     16082     16084     16079     16082     16085     16083     16082     16084
     16083     16082     16085     16084     16082     16085     16082     16085     16086
     16082     16085     16087     16082     16085     16088     16086     16085     16087
     16086     16085     16088     16087     16085     16088     16085     16088     16089
     16085     16088     16090     16085     16088     16091     16089     16088     16090
     16089     16088     16091     16090     16088     16091     16088     16091     16092
     16088     16091     16093     16088     16091     16094     16092     16091     16093
     16092     16091     16094     16093     16091     16094     16096     16095     16099
     16096     16095     16103     16096     16095     16107     16099     16095     16103
     16099     16095     16107     16103     16095     16107     16095     16096     16097
     16095     16096     16098     16095     16096     16111     16097     16096     16098
     16097     16096     16111     16098     16096     16111     16095     16099     16100
     16095     16099     16101     16095     16099     16102     16100     16099     16101
     16100     16099     16102     16101     16099     16102     16095     16103     16104
     16095     16103     16105     16095     16103     16106     16104     16103     16105
     16104     16103     16106     16105     16103     16106     16095     16107     16108
     16095     16107     16109     16095     16107     16110     16108     16107     16109
     16108     16107     16110     16109     16107     16110     16096     16111     16112
     16096     16111     16113     16096     16111     16117     16112     16111     16113
     16112     16111     16117     16113     16111     16117     16115     16114     16116
     16115     16114     16117     16115     16114     16118     16116     16114     16117
     16116     16114     16118     16117     16114     16118     16111     16117     16114
     16114     16118     16119     16118     16119     16120     16118     16119     16121
     16118     16119     16122     16120     16119     16121     16120     16119     16122
     16121     16119     16122     16119     16122     16123     16119     16122     16124
     16119     16122     16130     16123     16122     16124     16123     16122     16130
     16124     16122     16130     16122     16124     16125     16124     16125     16126
     16124     16125     16127     16126     16125     16127     16125     16127     16128
     16125     16127     16129     16125     16127     16139     16128     16127     16129
     16128     16127     16139     16129     16127     16139     16122     16130     16131
     16122     16130     16132     16122     16130     16133     16131     16130     16132
     16131     16130     16133     16132     16130     16133     16130     16133     16134
     16133     16134     16135     16133     16134     16136     16135     16134     16136
     16134     16136     16137     16134     16136     16138     16134     16136     16186
     16137     16136     16138     16137     16136     16186     16138     16136     16186
     16127     16139     16140     16127     16139     16141     16127     16139     16142
     16140     16139     16141     16140     16139     16142     16141     16139     16142
     16139     16142     16143     16139     16142     16144     16139     16142     16145
     16143     16142     16144     16143     16142     16145     16144     16142     16145
     16142     16145     16146     16142     16145     16147     16142     16145     16148
     16146     16145     16147     16146     16145     16148     16147     16145     16148
     16145     16148     16149     16145     16148     16150     16145     16148     16151
     16149     16148     16150     16149     16148     16151     16150     16148     16151
     16148     16151     16152     16148     16151     16153     16148     16151     16154
     16152     16151     16153     16152     16151     16154     16153     16151     16154
     16151     16154     16155     16151     16154     16156     16151     16154     16157
     16155     16154     16156     16155     16154     16157     16156     16154     16157
     16154     16157     16158     16154     16157     16159     16158     16157     16159
     16157     16159     16160     16157     16159     16161     16160     16159     16161
     16159     16161     16162     16159     16161     16163     16159     16161     16164
     16162     16161     16163     16162     16161     16164     16163     16161     16164
     16161     16164     16165     16161     16164     16166     16161     16164     16167
     16165     16164     16166     16165     16164     16167     16166     16164     16167
     16164     16167     16168     16164     16167     16169     16164     16167     16170
     16168     16167     16169     16168     16167     16170     16169     16167     16170
     16167     16170     16171     16167     16170     16172     16167     16170     16173
     16171     16170     16172     16171     16170     16173     16172     16170     16173
     16170     16173     16174     16170     16173     16175     16170     16173     16176
     16174     16173     16175     16174     16173     16176     16175     16173     16176
     16173     16176     16177     16173     16176     16178     16173     16176     16179
     16177     16176     16178     16177     16176     16179     16178     16176     16179
     16176     16179     16180     16176     16179     16181     16176     16179     16182
     16180     16179     16181     16180     16179     16182     16181     16179     16182
     16179     16182     16183     16179     16182     16184     16179     16182     16185
     16183     16182     16184     16183     16182     16185     16184     16182     16185
     16136     16186     16187     16136     16186     16188     16136     16186     16189
     16187     16186     16188     16187     16186     16189     16188     16186     16189
     16186     16189     16190     16186     16189     16191     16186     16189     16192
     16190     16189     16191     16190     16189     16192     16191     16189     16192
     16189     16192     16193     16189     16192     16194     16189     16192     16195
     16193     16192     16194     16193     16192     16195     16194     16192     16195
     16192     16195     16196     16192     16195     16197     16192     16195     16198
     16196     16195     16197     16196     16195     16198     16197     16195     16198
     16195     16198     16199     16195     16198     16200     16195     16198     16201
     16199     16198     16200     16199     16198     16201     16200     16198     16201
     16198     16201     16202     16198     16201     16203     16198     16201     16204
     16202     16201     16203     16202     16201     16204     16203     16201     16204
     16201     16204     16205     16201     16204     16206     16205     16204     16206
     16204     16206     16207     16204     16206     16208     16207     16206     16208
     16206     16208     16209     16206     16208     16210     16206     16208     16211
     16209     16208     16210     16209     16208     16211     16210     16208     16211
     16208     16211     16212     16208     16211     16213     16208     16211     16214
     16212     16211     16213     16212     16211     16214     16213     16211     16214
     16211     16214     16215     16211     16214     16216     16211     16214     16217
     16215     16214     16216     16215     16214     16217     16216     16214     16217
     16214     16217     16218     16214     16217     16219     16214     16217     16220
     16218     16217     16219     16218     16217     16220     16219     16217     16220
     16217     16220     16221     16217     16220     16222     16217     16220     16223
     16221     16220     16222     16221     16220     16223     16222     16220     16223
     16220     16223     16224     16220     16223     16225     16220     16223     16226
     16224     16223     16225     16224     16223     16226     16225     16223     16226
     16223     16226     16227     16223     16226     16228     16223     16226     16229
     16227     16226     16228     16227     16226     16229     16228     16226     16229
     16226     16229     16230     16226     16229     16231     16226     16229     16232
     16230     16229     16231     16230     16229     16232     16231     16229     16232
     16234     16233     16237     16234     16233     16241     16234     16233     16245
     16237     16233     16241     16237     16233     16245     16241     16233     16245
     16233     16234     16235     16233     16234     16236     16233     16234     16249
     16235     16234     16236     16235     16234     16249     16236     16234     16249
     16233     16237     16238     16233     16237     16239     16233     16237     16240
     16238     16237     16239     16238     16237     16240     16239     16237     16240
     16233     16241     16242     16233     16241     16243     16233     16241     16244
     16242     16241     16243     16242     16241     16244     16243     16241     16244
     16233     16245     16246     16233     16245     16247     16233     16245     16248
     16246     16245     16247     16246     16245     16248     16247     16245     16248
     16234     16249     16250     16234     16249     16251     16234     16249     16255
     16250     16249     16251     16250     16249     16255     16251     16249     16255
     16253     16252     16254     16253     16252     16255     16253     16252     16256
     16254     16252     16255     16254     16252     16256     16255     16252     16256
     16249     16255     16252     16252     16256     16257     16256     16257     16258
     16256     16257     16259     16256     16257     16260     16258     16257     16259
     16258     16257     16260     16259     16257     16260     16257     16260     16261
     16257     16260     16262     16257     16260     16268     16261     16260     16262
     16261     16260     16268     16262     16260     16268     16260     16262     16263
     16262     16263     16264     16262     16263     16265     16264     16263     16265
     16263     16265     16266     16263     16265     16267     16263     16265     16277
     16266     16265     16267     16266     16265     16277     16267     16265     16277
     16260     16268     16269     16260     16268     16270     16260     16268     16271
     16269     16268     16270     16269     16268     16271     16270     16268     16271
     16268     16271     16272     16271     16272     16273     16271     16272     16274
     16273     16272     16274     16272     16274     16275     16272     16274     16276
     16272     16274     16324     16275     16274     16276     16275     16274     16324
     16276     16274     16324     16265     16277     16278     16265     16277     16279
     16265     16277     16280     16278     16277     16279     16278     16277     16280
     16279     16277     16280     16277     16280     16281     16277     16280     16282
     16277     16280     16283     16281     16280     16282     16281     16280     16283
     16282     16280     16283     16280     16283     16284     16280     16283     16285
     16280     16283     16286     16284     16283     16285     16284     16283     16286
     16285     16283     16286     16283     16286     16287     16283     16286     16288
     16283     16286     16289     16287     16286     16288     16287     16286     16289
     16288     16286     16289     16286     16289     16290     16286     16289     16291
     16286     16289     16292     16290     16289     16291     16290     16289     16292
     16291     16289     16292     16289     16292     16293     16289     16292     16294
     16289     16292     16295     16293     16292     16294     16293     16292     16295
     16294     16292     16295     16292     16295     16296     16292     16295     16297
     16296     16295     16297     16295     16297     16298     16295     16297     16299
     16298     16297     16299     16297     16299     16300     16297     16299     16301
     16297     16299     16302     16300     16299     16301     16300     16299     16302
     16301     16299     16302     16299     16302     16303     16299     16302     16304
     16299     16302     16305     16303     16302     16304     16303     16302     16305
     16304     16302     16305     16302     16305     16306     16302     16305     16307
     16302     16305     16308     16306     16305     16307     16306     16305     16308
     16307     16305     16308     16305     16308     16309     16305     16308     16310
     16305     16308     16311     16309     16308     16310     16309     16308     16311
     16310     16308     16311     16308     16311     16312     16308     16311     16313
     16308     16311     16314     16312     16311     16313     16312     16311     16314
     16313     16311     16314     16311     16314     16315     16311     16314     16316
     16311     16314     16317     16315     16314     16316     16315     16314     16317
     16316     16314     16317     16314     16317     16318     16314     16317     16319
     16314     16317     16320     16318     16317     16319     16318     16317     16320
     16319     16317     16320     16317     16320     16321     16317     16320     16322
     16317     16320     16323     16321     16320     16322     16321     16320     16323
     16322     16320     16323     16274     16324     16325     16274     16324     16326
     16274     16324     16327     16325     16324     16326     16325     16324     16327
     16326     16324     16327     16324     16327     16328     16324     16327     16329
     16324     16327     16330     16328     16327     16329     16328     16327     16330
     16329     16327     16330     16327     16330     16331     16327     16330     16332
     16327     16330     16333     16331     16330     16332     16331     16330     16333
     16332     16330     16333     16330     16333     16334     16330     16333     16335
     16330     16333     16336     16334     16333     16335     16334     16333     16336
     16335     16333     16336     16333     16336     16337     16333     16336     16338
     16333     16336     16339     16337     16336     16338     16337     16336     16339
     16338     16336     16339     16336     16339     16340     16336     16339     16341
     16336     16339     16342     16340     16339     16341     16340     16339     16342
     16341     16339     16342     16339     16342     16343     16339     16342     16344
     16343     16342     16344     16342     16344     16345     16342     16344     16346
     16345     16344     16346     16344     16346     16347     16344     16346     16348
     16344     16346     16349     16347     16346     16348     16347     16346     16349
     16348     16346     16349     16346     16349     16350     16346     16349     16351
     16346     16349     16352     16350     16349     16351     16350     16349     16352
     16351     16349     16352     16349     16352     16353     16349     16352     16354
     16349     16352     16355     16353     16352     16354     16353     16352     16355
     16354     16352     16355     16352     16355     16356     16352     16355     16357
     16352     16355     16358     16356     16355     16357     16356     16355     16358
     16357     16355     16358     16355     16358     16359     16355     16358     16360
     16355     16358     16361     16359     16358     16360     16359     16358     16361
     16360     16358     16361     16358     16361     16362     16358     16361     16363
     16358     16361     16364     16362     16361     16363     16362     16361     16364
     16363     16361     16364     16361     16364     16365     16361     16364     16366
     16361     16364     16367     16365     16364     16366     16365     16364     16367
     16366     16364     16367     16364     16367     16368     16364     16367     16369
     16364     16367     16370     16368     16367     16369     16368     16367     16370
     16369     16367     16370     16372     16371     16375     16372     16371     16379
     16372     16371     16383     16375     16371     16379     16375     16371     16383
     16379     16371     16383     16371     16372     16373     16371     16372     16374
     16371     16372     16387     16373     16372     16374     16373     16372     16387
     16374     16372     16387     16371     16375     16376     16371     16375     16377
     16371     16375     16378     16376     16375     16377     16376     16375     16378
     16377     16375     16378     16371     16379     16380     16371     16379     16381
     16371     16379     16382     16380     16379     16381     16380     16379     16382
     16381     16379     16382     16371     16383     16384     16371     16383     16385
     16371     16383     16386     16384     16383     16385     16384     16383     16386
     16385     16383     16386     16372     16387     16388     16372     16387     16389
     16372     16387     16393     16388     16387     16389     16388     16387     16393
     16389     16387     16393     16391     16390     16392     16391     16390     16393
     16391     16390     16394     16392     16390     16393     16392     16390     16394
     16393     16390     16394     16387     16393     16390     16390     16394     16395
     16394     16395     16396     16394     16395     16397     16394     16395     16398
     16396     16395     16397     16396     16395     16398     16397     16395     16398
     16395     16398     16399     16395     16398     16400     16395     16398     16406
     16399     16398     16400     16399     16398     16406     16400     16398     16406
     16398     16400     16401     16400     16401     16402     16400     16401     16403
     16402     16401     16403     16401     16403     16404     16401     16403     16405
     16401     16403     16415     16404     16403     16405     16404     16403     16415
     16405     16403     16415     16398     16406     16407     16398     16406     16408
     16398     16406     16409     16407     16406     16408     16407     16406     16409
     16408     16406     16409     16406     16409     16410     16409     16410     16411
     16409     16410     16412     16411     16410     16412     16410     16412     16413
     16410     16412     16414     16410     16412     16462     16413     16412     16414
     16413     16412     16462     16414     16412     16462     16403     16415     16416
     16403     16415     16417     16403     16415     16418     16416     16415     16417
     16416     16415     16418     16417     16415     16418     16415     16418     16419
     16415     16418     16420     16415     16418     16421     16419     16418     16420
     16419     16418     16421     16420     16418     16421     16418     16421     16422
     16418     16421     16423     16418     16421     16424     16422     16421     16423
     16422     16421     16424     16423     16421     16424     16421     16424     16425
     16421     16424     16426     16421     16424     16427     16425     16424     16426
     16425     16424     16427     16426     16424     16427     16424     16427     16428
     16424     16427     16429     16424     16427     16430     16428     16427     16429
     16428     16427     16430     16429     16427     16430     16427     16430     16431
     16427     16430     16432     16427     16430     16433     16431     16430     16432
     16431     16430     16433     16432     16430     16433     16430     16433     16434
     16430     16433     16435     16434     16433     16435     16433     16435     16436
     16433     16435     16437     16436     16435     16437     16435     16437     16438
     16435     16437     16439     16435     16437     16440     16438     16437     16439
     16438     16437     16440     16439     16437     16440     16437     16440     16441
     16437     16440     16442     16437     16440     16443     16441     16440     16442
     16441     16440     16443     16442     16440     16443     16440     16443     16444
     16440     16443     16445     16440     16443     16446     16444     16443     16445
     16444     16443     16446     16445     16443     16446     16443     16446     16447
     16443     16446     16448     16443     16446     16449     16447     16446     16448
     16447     16446     16449     16448     16446     16449     16446     16449     16450
     16446     16449     16451     16446     16449     16452     16450     16449     16451
     16450     16449     16452     16451     16449     16452     16449     16452     16453
     16449     16452     16454     16449     16452     16455     16453     16452     16454
     16453     16452     16455     16454     16452     16455     16452     16455     16456
     16452     16455     16457     16452     16455     16458     16456     16455     16457
     16456     16455     16458     16457     16455     16458     16455     16458     16459
     16455     16458     16460     16455     16458     16461     16459     16458     16460
     16459     16458     16461     16460     16458     16461     16412     16462     16463
     16412     16462     16464     16412     16462     16465     16463     16462     16464
     16463     16462     16465     16464     16462     16465     16462     16465     16466
     16462     16465     16467     16462     16465     16468     16466     16465     16467
     16466     16465     16468     16467     16465     16468     16465     16468     16469
     16465     16468     16470     16465     16468     16471     16469     16468     16470
     16469     16468     16471     16470     16468     16471     16468     16471     16472
     16468     16471     16473     16468     16471     16474     16472     16471     16473
     16472     16471     16474     16473     16471     16474     16471     16474     16475
     16471     16474     16476     16471     16474     16477     16475     16474     16476
     16475     16474     16477     16476     16474     16477     16474     16477     16478
     16474     16477     16479     16474     16477     16480     16478     16477     16479
     16478     16477     16480     16479     16477     16480     16477     16480     16481
     16477     16480     16482     16481     16480     16482     16480     16482     16483
     16480     16482     16484     16483     16482     16484     16482     16484     16485
     16482     16484     16486     16482     16484     16487     16485     16484     16486
     16485     16484     16487     16486     16484     16487     16484     16487     16488
     16484     16487     16489     16484     16487     16490     16488     16487     16489
     16488     16487     16490     16489     16487     16490     16487     16490     16491
     16487     16490     16492     16487     16490     16493     16491     16490     16492
     16491     16490     16493     16492     16490     16493     16490     16493     16494
     16490     16493     16495     16490     16493     16496     16494     16493     16495
     16494     16493     16496     16495     16493     16496     16493     16496     16497
     16493     16496     16498     16493     16496     16499     16497     16496     16498
     16497     16496     16499     16498     16496     16499     16496     16499     16500
     16496     16499     16501     16496     16499     16502     16500     16499     16501
     16500     16499     16502     16501     16499     16502     16499     16502     16503
     16499     16502     16504     16499     16502     16505     16503     16502     16504
     16503     16502     16505     16504     16502     16505     16502     16505     16506
     16502     16505     16507     16502     16505     16508     16506     16505     16507
     16506     16505     16508     16507     16505     16508     16510     16509     16513
     16510     16509     16517     16510     16509     16521     16513     16509     16517
     16513     16509     16521     16517     16509     16521     16509     16510     16511
     16509     16510     16512     16509     16510     16525     16511     16510     16512
     16511     16510     16525     16512     16510     16525     16509     16513     16514
     16509     16513     16515     16509     16513     16516     16514     16513     16515
     16514     16513     16516     16515     16513     16516     16509     16517     16518
     16509     16517     16519     16509     16517     16520     16518     16517     16519
     16518     16517     16520     16519     16517     16520     16509     16521     16522
     16509     16521     16523     16509     16521     16524     16522     16521     16523
     16522     16521     16524     16523     16521     16524     16510     16525     16526
     16510     16525     16527     16510     16525     16531     16526     16525     16527
     16526     16525     16531     16527     16525     16531     16529     16528     16530
     16529     16528     16531     16529     16528     16532     16530     16528     16531
     16530     16528     16532     16531     16528     16532     16525     16531     16528
     16528     16532     16533     16532     16533     16534     16532     16533     16535
     16532     16533     16536     16534     16533     16535     16534     16533     16536
     16535     16533     16536     16533     16536     16537     16533     16536     16538
     16533     16536     16544     16537     16536     16538     16537     16536     16544
     16538     16536     16544     16536     16538     16539     16538     16539     16540
     16538     16539     16541     16540     16539     16541     16539     16541     16542
     16539     16541     16543     16539     16541     16553     16542     16541     16543
     16542     16541     16553     16543     16541     16553     16536     16544     16545
     16536     16544     16546     16536     16544     16547     16545     16544     16546
     16545     16544     16547     16546     16544     16547     16544     16547     16548
     16547     16548     16549     16547     16548     16550     16549     16548     16550
     16548     16550     16551     16548     16550     16552     16548     16550     16600
     16551     16550     16552     16551     16550     16600     16552     16550     16600
     16541     16553     16554     16541     16553     16555     16541     16553     16556
     16554     16553     16555     16554     16553     16556     16555     16553     16556
     16553     16556     16557     16553     16556     16558     16553     16556     16559
     16557     16556     16558     16557     16556     16559     16558     16556     16559
     16556     16559     16560     16556     16559     16561     16556     16559     16562
     16560     16559     16561     16560     16559     16562     16561     16559     16562
     16559     16562     16563     16559     16562     16564     16559     16562     16565
     16563     16562     16564     16563     16562     16565     16564     16562     16565
     16562     16565     16566     16562     16565     16567     16562     16565     16568
     16566     16565     16567     16566     16565     16568     16567     16565     16568
     16565     16568     16569     16565     16568     16570     16565     16568     16571
     16569     16568     16570     16569     16568     16571     16570     16568     16571
     16568     16571     16572     16568     16571     16573     16572     16571     16573
     16571     16573     16574     16571     16573     16575     16574     16573     16575
     16573     16575     16576     16573     16575     16577     16573     16575     16578
     16576     16575     16577     16576     16575     16578     16577     16575     16578
     16575     16578     16579     16575     16578     16580     16575     16578     16581
     16579     16578     16580     16579     16578     16581     16580     16578     16581
     16578     16581     16582     16578     16581     16583     16578     16581     16584
     16582     16581     16583     16582     16581     16584     16583     16581     16584
     16581     16584     16585     16581     16584     16586     16581     16584     16587
     16585     16584     16586     16585     16584     16587     16586     16584     16587
     16584     16587     16588     16584     16587     16589     16584     16587     16590
     16588     16587     16589     16588     16587     16590     16589     16587     16590
     16587     16590     16591     16587     16590     16592     16587     16590     16593
     16591     16590     16592     16591     16590     16593     16592     16590     16593
     16590     16593     16594     16590     16593     16595     16590     16593     16596
     16594     16593     16595     16594     16593     16596     16595     16593     16596
     16593     16596     16597     16593     16596     16598     16593     16596     16599
     16597     16596     16598     16597     16596     16599     16598     16596     16599
     16550     16600     16601     16550     16600     16602     16550     16600     16603
     16601     16600     16602     16601     16600     16603     16602     16600     16603
     16600     16603     16604     16600     16603     16605     16600     16603     16606
     16604     16603     16605     16604     16603     16606     16605     16603     16606
     16603     16606     16607     16603     16606     16608     16603     16606     16609
     16607     16606     16608     16607     16606     16609     16608     16606     16609
     16606     16609     16610     16606     16609     16611     16606     16609     16612
     16610     16609     16611     16610     16609     16612     16611     16609     16612
     16609     16612     16613     16609     16612     16614     16609     16612     16615
     16613     16612     16614     16613     16612     16615     16614     16612     16615
     16612     16615     16616     16612     16615     16617     16612     16615     16618
     16616     16615     16617     16616     16615     16618     16617     16615     16618
     16615     16618     16619     16615     16618     16620     16619     16618     16620
     16618     16620     16621     16618     16620     16622     16621     16620     16622
     16620     16622     16623     16620     16622     16624     16620     16622     16625
     16623     16622     16624     16623     16622     16625     16624     16622     16625
     16622     16625     16626     16622     16625     16627     16622     16625     16628
     16626     16625     16627     16626     16625     16628     16627     16625     16628
     16625     16628     16629     16625     16628     16630     16625     16628     16631
     16629     16628     16630     16629     16628     16631     16630     16628     16631
     16628     16631     16632     16628     16631     16633     16628     16631     16634
     16632     16631     16633     16632     16631     16634     16633     16631     16634
     16631     16634     16635     16631     16634     16636     16631     16634     16637
     16635     16634     16636     16635     16634     16637     16636     16634     16637
     16634     16637     16638     16634     16637     16639     16634     16637     16640
     16638     16637     16639     16638     16637     16640     16639     16637     16640
     16637     16640     16641     16637     16640     16642     16637     16640     16643
     16641     16640     16642     16641     16640     16643     16642     16640     16643
     16640     16643     16644     16640     16643     16645     16640     16643     16646
     16644     16643     16645     16644     16643     16646     16645     16643     16646
     16648     16647     16651     16648     16647     16655     16648     16647     16659
     16651     16647     16655     16651     16647     16659     16655     16647     16659
     16647     16648     16649     16647     16648     16650     16647     16648     16663
     16649     16648     16650     16649     16648     16663     16650     16648     16663
     16647     16651     16652     16647     16651     16653     16647     16651     16654
     16652     16651     16653     16652     16651     16654     16653     16651     16654
     16647     16655     16656     16647     16655     16657     16647     16655     16658
     16656     16655     16657     16656     16655     16658     16657     16655     16658
     16647     16659     16660     16647     16659     16661     16647     16659     16662
     16660     16659     16661     16660     16659     16662     16661     16659     16662
     16648     16663     16664     16648     16663     16665     16648     16663     16669
     16664     16663     16665     16664     16663     16669     16665     16663     16669
     16667     16666     16668     16667     16666     16669     16667     16666     16670
     16668     16666     16669     16668     16666     16670     16669     16666     16670
     16663     16669     16666     16666     16670     16671     16670     16671     16672
     16670     16671     16673     16670     16671     16674     16672     16671     16673
     16672     16671     16674     16673     16671     16674     16671     16674     16675
     16671     16674     16676     16671     16674     16682     16675     16674     16676
     16675     16674     16682     16676     16674     16682     16674     16676     16677
     16676     16677     16678     16676     16677     16679     16678     16677     16679
     16677     16679     16680     16677     16679     16681     16677     16679     16691
     16680     16679     16681     16680     16679     16691     16681     16679     16691
     16674     16682     16683     16674     16682     16684     16674     16682     16685
     16683     16682     16684     16683     16682     16685     16684     16682     16685
     16682     16685     16686     16685     16686     16687     16685     16686     16688
     16687     16686     16688     16686     16688     16689     16686     16688     16690
     16686     16688     16738     16689     16688     16690     16689     16688     16738
     16690     16688     16738     16679     16691     16692     16679     16691     16693
     16679     16691     16694     16692     16691     16693     16692     16691     16694
     16693     16691     16694     16691     16694     16695     16691     16694     16696
     16691     16694     16697     16695     16694     16696     16695     16694     16697
     16696     16694     16697     16694     16697     16698     16694     16697     16699
     16694     16697     16700     16698     16697     16699     16698     16697     16700
     16699     16697     16700     16697     16700     16701     16697     16700     16702
     16697     16700     16703     16701     16700     16702     16701     16700     16703
     16702     16700     16703     16700     16703     16704     16700     16703     16705
     16700     16703     16706     16704     16703     16705     16704     16703     16706
     16705     16703     16706     16703     16706     16707     16703     16706     16708
     16703     16706     16709     16707     16706     16708     16707     16706     16709
     16708     16706     16709     16706     16709     16710     16706     16709     16711
     16710     16709     16711     16709     16711     16712     16709     16711     16713
     16712     16711     16713     16711     16713     16714     16711     16713     16715
     16711     16713     16716     16714     16713     16715     16714     16713     16716
     16715     16713     16716     16713     16716     16717     16713     16716     16718
     16713     16716     16719     16717     16716     16718     16717     16716     16719
     16718     16716     16719     16716     16719     16720     16716     16719     16721
     16716     16719     16722     16720     16719     16721     16720     16719     16722
     16721     16719     16722     16719     16722     16723     16719     16722     16724
     16719     16722     16725     16723     16722     16724     16723     16722     16725
     16724     16722     16725     16722     16725     16726     16722     16725     16727
     16722     16725     16728     16726     16725     16727     16726     16725     16728
     16727     16725     16728     16725     16728     16729     16725     16728     16730
     16725     16728     16731     16729     16728     16730     16729     16728     16731
     16730     16728     16731     16728     16731     16732     16728     16731     16733
     16728     16731     16734     16732     16731     16733     16732     16731     16734
     16733     16731     16734     16731     16734     16735     16731     16734     16736
     16731     16734     16737     16735     16734     16736     16735     16734     16737
     16736     16734     16737     16688     16738     16739     16688     16738     16740
     16688     16738     16741     16739     16738     16740     16739     16738     16741
     16740     16738     16741     16738     16741     16742     16738     16741     16743
     16738     16741     16744     16742     16741     16743     16742     16741     16744
     16743     16741     16744     16741     16744     16745     16741     16744     16746
     16741     16744     16747     16745     16744     16746     16745     16744     16747
     16746     16744     16747     16744     16747     16748     16744     16747     16749
     16744     16747     16750     16748     16747     16749     16748     16747     16750
     16749     16747     16750     16747     16750     16751     16747     16750     16752
     16747     16750     16753     16751     16750     16752     16751     16750     16753
     16752     16750     16753     16750     16753     16754     16750     16753     16755
     16750     16753     16756     16754     16753     16755     16754     16753     16756
     16755     16753     16756     16753     16756     16757     16753     16756     16758
     16757     16756     16758     16756     16758     16759     16756     16758     16760
     16759     16758     16760     16758     16760     16761     16758     16760     16762
     16758     16760     16763     16761     16760     16762     16761     16760     16763
     16762     16760     16763     16760     16763     16764     16760     16763     16765
     16760     16763     16766     16764     16763     16765     16764     16763     16766
     16765     16763     16766     16763     16766     16767     16763     16766     16768
     16763     16766     16769     16767     16766     16768     16767     16766     16769
     16768     16766     16769     16766     16769     16770     16766     16769     16771
     16766     16769     16772     16770     16769     16771     16770     16769     16772
     16771     16769     16772     16769     16772     16773     16769     16772     16774
     16769     16772     16775     16773     16772     16774     16773     16772     16775
     16774     16772     16775     16772     16775     16776     16772     16775     16777
     16772     16775     16778     16776     16775     16777     16776     16775     16778
     16777     16775     16778     16775     16778     16779     16775     16778     16780
     16775     16778     16781     16779     16778     16780     16779     16778     16781
     16780     16778     16781     16778     16781     16782     16778     16781     16783
     16778     16781     16784     16782     16781     16783     16782     16781     16784
     16783     16781     16784     16786     16785     16789     16786     16785     16793
     16786     16785     16797     16789     16785     16793     16789     16785     16797
     16793     16785     16797     16785     16786     16787     16785     16786     16788
     16785     16786     16801     16787     16786     16788     16787     16786     16801
     16788     16786     16801     16785     16789     16790     16785     16789     16791
     16785     16789     16792     16790     16789     16791     16790     16789     16792
     16791     16789     16792     16785     16793     16794     16785     16793     16795
     16785     16793     16796     16794     16793     16795     16794     16793     16796
     16795     16793     16796     16785     16797     16798     16785     16797     16799
     16785     16797     16800     16798     16797     16799     16798     16797     16800
     16799     16797     16800     16786     16801     16802     16786     16801     16803
     16786     16801     16807     16802     16801     16803     16802     16801     16807
     16803     16801     16807     16805     16804     16806     16805     16804     16807
     16805     16804     16808     16806     16804     16807     16806     16804     16808
     16807     16804     16808     16801     16807     16804     16804     16808     16809
     16808     16809     16810     16808     16809     16811     16808     16809     16812
     16810     16809     16811     16810     16809     16812     16811     16809     16812
     16809     16812     16813     16809     16812     16814     16809     16812     16820
     16813     16812     16814     16813     16812     16820     16814     16812     16820
     16812     16814     16815     16814     16815     16816     16814     16815     16817
     16816     16815     16817     16815     16817     16818     16815     16817     16819
     16815     16817     16829     16818     16817     16819     16818     16817     16829
     16819     16817     16829     16812     16820     16821     16812     16820     16822
     16812     16820     16823     16821     16820     16822     16821     16820     16823
     16822     16820     16823     16820     16823     16824     16823     16824     16825
     16823     16824     16826     16825     16824     16826     16824     16826     16827
     16824     16826     16828     16824     16826     16876     16827     16826     16828
     16827     16826     16876     16828     16826     16876     16817     16829     16830
     16817     16829     16831     16817     16829     16832     16830     16829     16831
     16830     16829     16832     16831     16829     16832     16829     16832     16833
     16829     16832     16834     16829     16832     16835     16833     16832     16834
     16833     16832     16835     16834     16832     16835     16832     16835     16836
     16832     16835     16837     16832     16835     16838     16836     16835     16837
     16836     16835     16838     16837     16835     16838     16835     16838     16839
     16835     16838     16840     16835     16838     16841     16839     16838     16840
     16839     16838     16841     16840     16838     16841     16838     16841     16842
     16838     16841     16843     16838     16841     16844     16842     16841     16843
     16842     16841     16844     16843     16841     16844     16841     16844     16845
     16841     16844     16846     16841     16844     16847     16845     16844     16846
     16845     16844     16847     16846     16844     16847     16844     16847     16848
     16844     16847     16849     16848     16847     16849     16847     16849     16850
     16847     16849     16851     16850     16849     16851     16849     16851     16852
     16849     16851     16853     16849     16851     16854     16852     16851     16853
     16852     16851     16854     16853     16851     16854     16851     16854     16855
     16851     16854     16856     16851     16854     16857     16855     16854     16856
     16855     16854     16857     16856     16854     16857     16854     16857     16858
     16854     16857     16859     16854     16857     16860     16858     16857     16859
     16858     16857     16860     16859     16857     16860     16857     16860     16861
     16857     16860     16862     16857     16860     16863     16861     16860     16862
     16861     16860     16863     16862     16860     16863     16860     16863     16864
     16860     16863     16865     16860     16863     16866     16864     16863     16865
     16864     16863     16866     16865     16863     16866     16863     16866     16867
     16863     16866     16868     16863     16866     16869     16867     16866     16868
     16867     16866     16869     16868     16866     16869     16866     16869     16870
     16866     16869     16871     16866     16869     16872     16870     16869     16871
     16870     16869     16872     16871     16869     16872     16869     16872     16873
     16869     16872     16874     16869     16872     16875     16873     16872     16874
     16873     16872     16875     16874     16872     16875     16826     16876     16877
     16826     16876     16878     16826     16876     16879     16877     16876     16878
     16877     16876     16879     16878     16876     16879     16876     16879     16880
     16876     16879     16881     16876     16879     16882     16880     16879     16881
     16880     16879     16882     16881     16879     16882     16879     16882     16883
     16879     16882     16884     16879     16882     16885     16883     16882     16884
     16883     16882     16885     16884     16882     16885     16882     16885     16886
     16882     16885     16887     16882     16885     16888     16886     16885     16887
     16886     16885     16888     16887     16885     16888     16885     16888     16889
     16885     16888     16890     16885     16888     16891     16889     16888     16890
     16889     16888     16891     16890     16888     16891     16888     16891     16892
     16888     16891     16893     16888     16891     16894     16892     16891     16893
     16892     16891     16894     16893     16891     16894     16891     16894     16895
     16891     16894     16896     16895     16894     16896     16894     16896     16897
     16894     16896     16898     16897     16896     16898     16896     16898     16899
     16896     16898     16900     16896     16898     16901     16899     16898     16900
     16899     16898     16901     16900     16898     16901     16898     16901     16902
     16898     16901     16903     16898     16901     16904     16902     16901     16903
     16902     16901     16904     16903     16901     16904     16901     16904     16905
     16901     16904     16906     16901     16904     16907     16905     16904     16906
     16905     16904     16907     16906     16904     16907     16904     16907     16908
     16904     16907     16909     16904     16907     16910     16908     16907     16909
     16908     16907     16910     16909     16907     16910     16907     16910     16911
     16907     16910     16912     16907     16910     16913     16911     16910     16912
     16911     16910     16913     16912     16910     16913     16910     16913     16914
     16910     16913     16915     16910     16913     16916     16914     16913     16915
     16914     16913     16916     16915     16913     16916     16913     16916     16917
     16913     16916     16918     16913     16916     16919     16917     16916     16918
     16917     16916     16919     16918     16916     16919     16916     16919     16920
     16916     16919     16921     16916     16919     16922     16920     16919     16921
     16920     16919     16922     16921     16919     16922     16924     16923     16927
     16924     16923     16931     16924     16923     16935     16927     16923     16931
     16927     16923     16935     16931     16923     16935     16923     16924     16925
     16923     16924     16926     16923     16924     16939     16925     16924     16926
     16925     16924     16939     16926     16924     16939     16923     16927     16928
     16923     16927     16929     16923     16927     16930     16928     16927     16929
     16928     16927     16930     16929     16927     16930     16923     16931     16932
     16923     16931     16933     16923     16931     16934     16932     16931     16933
     16932     16931     16934     16933     16931     16934     16923     16935     16936
     16923     16935     16937     16923     16935     16938     16936     16935     16937
     16936     16935     16938     16937     16935     16938     16924     16939     16940
     16924     16939     16941     16924     16939     16945     16940     16939     16941
     16940     16939     16945     16941     16939     16945     16943     16942     16944
     16943     16942     16945     16943     16942     16946     16944     16942     16945
     16944     16942     16946     16945     16942     16946     16939     16945     16942
     16942     16946     16947     16946     16947     16948     16946     16947     16949
     16946     16947     16950     16948     16947     16949     16948     16947     16950
     16949     16947     16950     16947     16950     16951     16947     16950     16952
     16947     16950     16958     16951     16950     16952     16951     16950     16958
     16952     16950     16958     16950     16952     16953     16952     16953     16954
     16952     16953     16955     16954     16953     16955     16953     16955     16956
     16953     16955     16957     16953     16955     16967     16956     16955     16957
     16956     16955     16967     16957     16955     16967     16950     16958     16959
     16950     16958     16960     16950     16958     16961     16959     16958     16960
     16959     16958     16961     16960     16958     16961     16958     16961     16962
     16961     16962     16963     16961     16962     16964     16963     16962     16964
     16962     16964     16965     16962     16964     16966     16962     16964     17014
     16965     16964     16966     16965     16964     17014     16966     16964     17014
     16955     16967     16968     16955     16967     16969     16955     16967     16970
     16968     16967     16969     16968     16967     16970     16969     16967     16970
     16967     16970     16971     16967     16970     16972     16967     16970     16973
     16971     16970     16972     16971     16970     16973     16972     16970     16973
     16970     16973     16974     16970     16973     16975     16970     16973     16976
     16974     16973     16975     16974     16973     16976     16975     16973     16976
     16973     16976     16977     16973     16976     16978     16973     16976     16979
     16977     16976     16978     16977     16976     16979     16978     16976     16979
     16976     16979     16980     16976     16979     16981     16976     16979     16982
     16980     16979     16981     16980     16979     16982     16981     16979     16982
     16979     16982     16983     16979     16982     16984     16979     16982     16985
     16983     16982     16984     16983     16982     16985     16984     16982     16985
     16982     16985     16986     16982     16985     16987     16986     16985     16987
     16985     16987     16988     16985     16987     16989     16988     16987     16989
     16987     16989     16990     16987     16989     16991     16987     16989     16992
     16990     16989     16991     16990     16989     16992     16991     16989     16992
     16989     16992     16993     16989     16992     16994     16989     16992     16995
     16993     16992     16994     16993     16992     16995     16994     16992     16995
     16992     16995     16996     16992     16995     16997     16992     16995     16998
     16996     16995     16997     16996     16995     16998     16997     16995     16998
     16995     16998     16999     16995     16998     17000     16995     16998     17001
     16999     16998     17000     16999     16998     17001     17000     16998     17001
     16998     17001     17002     16998     17001     17003     16998     17001     17004
     17002     17001     17003     17002     17001     17004     17003     17001     17004
     17001     17004     17005     17001     17004     17006     17001     17004     17007
     17005     17004     17006     17005     17004     17007     17006     17004     17007
     17004     17007     17008     17004     17007     17009     17004     17007     17010
     17008     17007     17009     17008     17007     17010     17009     17007     17010
     17007     17010     17011     17007     17010     17012     17007     17010     17013
     17011     17010     17012     17011     17010     17013     17012     17010     17013
     16964     17014     17015     16964     17014     17016     16964     17014     17017
     17015     17014     17016     17015     17014     17017     17016     17014     17017
     17014     17017     17018     17014     17017     17019     17014     17017     17020
     17018     17017     17019     17018     17017     17020     17019     17017     17020
     17017     17020     17021     17017     17020     17022     17017     17020     17023
     17021     17020     17022     17021     17020     17023     17022     17020     17023
     17020     17023     17024     17020     17023     17025     17020     17023     17026
     17024     17023     17025     17024     17023     17026     17025     17023     17026
     17023     17026     17027     17023     17026     17028     17023     17026     17029
     17027     17026     17028     17027     17026     17029     17028     17026     17029
     17026     17029     17030     17026     17029     17031     17026     17029     17032
     17030     17029     17031     17030     17029     17032     17031     17029     17032
     17029     17032     17033     17029     17032     17034     17033     17032     17034
     17032     17034     17035     17032     17034     17036     17035     17034     17036
     17034     17036     17037     17034     17036     17038     17034     17036     17039
     17037     17036     17038     17037     17036     17039     17038     17036     17039
     17036     17039     17040     17036     17039     17041     17036     17039     17042
     17040     17039     17041     17040     17039     17042     17041     17039     17042
     17039     17042     17043     17039     17042     17044     17039     17042     17045
     17043     17042     17044     17043     17042     17045     17044     17042     17045
     17042     17045     17046     17042     17045     17047     17042     17045     17048
     17046     17045     17047     17046     17045     17048     17047     17045     17048
     17045     17048     17049     17045     17048     17050     17045     17048     17051
     17049     17048     17050     17049     17048     17051     17050     17048     17051
     17048     17051     17052     17048     17051     17053     17048     17051     17054
     17052     17051     17053     17052     17051     17054     17053     17051     17054
     17051     17054     17055     17051     17054     17056     17051     17054     17057
     17055     17054     17056     17055     17054     17057     17056     17054     17057
     17054     17057     17058     17054     17057     17059     17054     17057     17060
     17058     17057     17059     17058     17057     17060     17059     17057     17060
     17062     17061     17065     17062     17061     17069     17062     17061     17073
     17065     17061     17069     17065     17061     17073     17069     17061     17073
     17061     17062     17063     17061     17062     17064     17061     17062     17077
     17063     17062     17064     17063     17062     17077     17064     17062     17077
     17061     17065     17066     17061     17065     17067     17061     17065     17068
     17066     17065     17067     17066     17065     17068     17067     17065     17068
     17061     17069     17070     17061     17069     17071     17061     17069     17072
     17070     17069     17071     17070     17069     17072     17071     17069     17072
     17061     17073     17074     17061     17073     17075     17061     17073     17076
     17074     17073     17075     17074     17073     17076     17075     17073     17076
     17062     17077     17078     17062     17077     17079     17062     17077     17083
     17078     17077     17079     17078     17077     17083     17079     17077     17083
     17081     17080     17082     17081     17080     17083     17081     17080     17084
     17082     17080     17083     17082     17080     17084     17083     17080     17084
     17077     17083     17080     17080     17084     17085     17084     17085     17086
     17084     17085     17087     17084     17085     17088     17086     17085     17087
     17086     17085     17088     17087     17085     17088     17085     17088     17089
     17085     17088     17090     17085     17088     17096     17089     17088     17090
     17089     17088     17096     17090     17088     17096     17088     17090     17091
     17090     17091     17092     17090     17091     17093     17092     17091     17093
     17091     17093     17094     17091     17093     17095     17091     17093     17105
     17094     17093     17095     17094     17093     17105     17095     17093     17105
     17088     17096     17097     17088     17096     17098     17088     17096     17099
     17097     17096     17098     17097     17096     17099     17098     17096     17099
     17096     17099     17100     17099     17100     17101     17099     17100     17102
     17101     17100     17102     17100     17102     17103     17100     17102     17104
     17100     17102     17152     17103     17102     17104     17103     17102     17152
     17104     17102     17152     17093     17105     17106     17093     17105     17107
     17093     17105     17108     17106     17105     17107     17106     17105     17108
     17107     17105     17108     17105     17108     17109     17105     17108     17110
     17105     17108     17111     17109     17108     17110     17109     17108     17111
     17110     17108     17111     17108     17111     17112     17108     17111     17113
     17108     17111     17114     17112     17111     17113     17112     17111     17114
     17113     17111     17114     17111     17114     17115     17111     17114     17116
     17111     17114     17117     17115     17114     17116     17115     17114     17117
     17116     17114     17117     17114     17117     17118     17114     17117     17119
     17114     17117     17120     17118     17117     17119     17118     17117     17120
     17119     17117     17120     17117     17120     17121     17117     17120     17122
     17117     17120     17123     17121     17120     17122     17121     17120     17123
     17122     17120     17123     17120     17123     17124     17120     17123     17125
     17124     17123     17125     17123     17125     17126     17123     17125     17127
     17126     17125     17127     17125     17127     17128     17125     17127     17129
     17125     17127     17130     17128     17127     17129     17128     17127     17130
     17129     17127     17130     17127     17130     17131     17127     17130     17132
     17127     17130     17133     17131     17130     17132     17131     17130     17133
     17132     17130     17133     17130     17133     17134     17130     17133     17135
     17130     17133     17136     17134     17133     17135     17134     17133     17136
     17135     17133     17136     17133     17136     17137     17133     17136     17138
     17133     17136     17139     17137     17136     17138     17137     17136     17139
     17138     17136     17139     17136     17139     17140     17136     17139     17141
     17136     17139     17142     17140     17139     17141     17140     17139     17142
     17141     17139     17142     17139     17142     17143     17139     17142     17144
     17139     17142     17145     17143     17142     17144     17143     17142     17145
     17144     17142     17145     17142     17145     17146     17142     17145     17147
     17142     17145     17148     17146     17145     17147     17146     17145     17148
     17147     17145     17148     17145     17148     17149     17145     17148     17150
     17145     17148     17151     17149     17148     17150     17149     17148     17151
     17150     17148     17151     17102     17152     17153     17102     17152     17154
     17102     17152     17155     17153     17152     17154     17153     17152     17155
     17154     17152     17155     17152     17155     17156     17152     17155     17157
     17152     17155     17158     17156     17155     17157     17156     17155     17158
     17157     17155     17158     17155     17158     17159     17155     17158     17160
     17155     17158     17161     17159     17158     17160     17159     17158     17161
     17160     17158     17161     17158     17161     17162     17158     17161     17163
     17158     17161     17164     17162     17161     17163     17162     17161     17164
     17163     17161     17164     17161     17164     17165     17161     17164     17166
     17161     17164     17167     17165     17164     17166     17165     17164     17167
     17166     17164     17167     17164     17167     17168     17164     17167     17169
     17164     17167     17170     17168     17167     17169     17168     17167     17170
     17169     17167     17170     17167     17170     17171     17167     17170     17172
     17171     17170     17172     17170     17172     17173     17170     17172     17174
     17173     17172     17174     17172     17174     17175     17172     17174     17176
     17172     17174     17177     17175     17174     17176     17175     17174     17177
     17176     17174     17177     17174     17177     17178     17174     17177     17179
     17174     17177     17180     17178     17177     17179     17178     17177     17180
     17179     17177     17180     17177     17180     17181     17177     17180     17182
     17177     17180     17183     17181     17180     17182     17181     17180     17183
     17182     17180     17183     17180     17183     17184     17180     17183     17185
     17180     17183     17186     17184     17183     17185     17184     17183     17186
     17185     17183     17186     17183     17186     17187     17183     17186     17188
     17183     17186     17189     17187     17186     17188     17187     17186     17189
     17188     17186     17189     17186     17189     17190     17186     17189     17191
     17186     17189     17192     17190     17189     17191     17190     17189     17192
     17191     17189     17192     17189     17192     17193     17189     17192     17194
     17189     17192     17195     17193     17192     17194     17193     17192     17195
     17194     17192     17195     17192     17195     17196     17192     17195     17197
     17192     17195     17198     17196     17195     17197     17196     17195     17198
     17197     17195     17198     17200     17199     17203     17200     17199     17207
     17200     17199     17211     17203     17199     17207     17203     17199     17211
     17207     17199     17211     17199     17200     17201     17199     17200     17202
     17199     17200     17215     17201     17200     17202     17201     17200     17215
     17202     17200     17215     17199     17203     17204     17199     17203     17205
     17199     17203     17206     17204     17203     17205     17204     17203     17206
     17205     17203     17206     17199     17207     17208     17199     17207     17209
     17199     17207     17210     17208     17207     17209     17208     17207     17210
     17209     17207     17210     17199     17211     17212     17199     17211     17213
     17199     17211     17214     17212     17211     17213     17212     17211     17214
     17213     17211     17214     17200     17215     17216     17200     17215     17217
     17200     17215     17221     17216     17215     17217     17216     17215     17221
     17217     17215     17221     17219     17218     17220     17219     17218     17221
     17219     17218     17222     17220     17218     17221     17220     17218     17222
     17221     17218     17222     17215     17221     17218     17218     17222     17223
     17222     17223     17224     17222     17223     17225     17222     17223     17226
     17224     17223     17225     17224     17223     17226     17225     17223     17226
     17223     17226     17227     17223     17226     17228     17223     17226     17234
     17227     17226     17228     17227     17226     17234     17228     17226     17234
     17226     17228     17229     17228     17229     17230     17228     17229     17231
     17230     17229     17231     17229     17231     17232     17229     17231     17233
     17229     17231     17243     17232     17231     17233     17232     17231     17243
     17233     17231     17243     17226     17234     17235     17226     17234     17236
     17226     17234     17237     17235     17234     17236     17235     17234     17237
     17236     17234     17237     17234     17237     17238     17237     17238     17239
     17237     17238     17240     17239     17238     17240     17238     17240     17241
     17238     17240     17242     17238     17240     17290     17241     17240     17242
     17241     17240     17290     17242     17240     17290     17231     17243     17244
     17231     17243     17245     17231     17243     17246     17244     17243     17245
     17244     17243     17246     17245     17243     17246     17243     17246     17247
     17243     17246     17248     17243     17246     17249     17247     17246     17248
     17247     17246     17249     17248     17246     17249     17246     17249     17250
     17246     17249     17251     17246     17249     17252     17250     17249     17251
     17250     17249     17252     17251     17249     17252     17249     17252     17253
     17249     17252     17254     17249     17252     17255     17253     17252     17254
     17253     17252     17255     17254     17252     17255     17252     17255     17256
     17252     17255     17257     17252     17255     17258     17256     17255     17257
     17256     17255     17258     17257     17255     17258     17255     17258     17259
     17255     17258     17260     17255     17258     17261     17259     17258     17260
     17259     17258     17261     17260     17258     17261     17258     17261     17262
     17258     17261     17263     17262     17261     17263     17261     17263     17264
     17261     17263     17265     17264     17263     17265     17263     17265     17266
     17263     17265     17267     17263     17265     17268     17266     17265     17267
     17266     17265     17268     17267     17265     17268     17265     17268     17269
     17265     17268     17270     17265     17268     17271     17269     17268     17270
     17269     17268     17271     17270     17268     17271     17268     17271     17272
     17268     17271     17273     17268     17271     17274     17272     17271     17273
     17272     17271     17274     17273     17271     17274     17271     17274     17275
     17271     17274     17276     17271     17274     17277     17275     17274     17276
     17275     17274     17277     17276     17274     17277     17274     17277     17278
     17274     17277     17279     17274     17277     17280     17278     17277     17279
     17278     17277     17280     17279     17277     17280     17277     17280     17281
     17277     17280     17282     17277     17280     17283     17281     17280     17282
     17281     17280     17283     17282     17280     17283     17280     17283     17284
     17280     17283     17285     17280     17283     17286     17284     17283     17285
     17284     17283     17286     17285     17283     17286     17283     17286     17287
     17283     17286     17288     17283     17286     17289     17287     17286     17288
     17287     17286     17289     17288     17286     17289     17240     17290     17291
     17240     17290     17292     17240     17290     17293     17291     17290     17292
     17291     17290     17293     17292     17290     17293     17290     17293     17294
     17290     17293     17295     17290     17293     17296     17294     17293     17295
     17294     17293     17296     17295     17293     17296     17293     17296     17297
     17293     17296     17298     17293     17296     17299     17297     17296     17298
     17297     17296     17299     17298     17296     17299     17296     17299     17300
     17296     17299     17301     17296     17299     17302     17300     17299     17301
     17300     17299     17302     17301     17299     17302     17299     17302     17303
     17299     17302     17304     17299     17302     17305     17303     17302     17304
     17303     17302     17305     17304     17302     17305     17302     17305     17306
     17302     17305     17307     17302     17305     17308     17306     17305     17307
     17306     17305     17308     17307     17305     17308     17305     17308     17309
     17305     17308     17310     17309     17308     17310     17308     17310     17311
     17308     17310     17312     17311     17310     17312     17310     17312     17313
     17310     17312     17314     17310     17312     17315     17313     17312     17314
     17313     17312     17315     17314     17312     17315     17312     17315     17316
     17312     17315     17317     17312     17315     17318     17316     17315     17317
     17316     17315     17318     17317     17315     17318     17315     17318     17319
     17315     17318     17320     17315     17318     17321     17319     17318     17320
     17319     17318     17321     17320     17318     17321     17318     17321     17322
     17318     17321     17323     17318     17321     17324     17322     17321     17323
     17322     17321     17324     17323     17321     17324     17321     17324     17325
     17321     17324     17326     17321     17324     17327     17325     17324     17326
     17325     17324     17327     17326     17324     17327     17324     17327     17328
     17324     17327     17329     17324     17327     17330     17328     17327     17329
     17328     17327     17330     17329     17327     17330     17327     17330     17331
     17327     17330     17332     17327     17330     17333     17331     17330     17332
     17331     17330     17333     17332     17330     17333     17330     17333     17334
     17330     17333     17335     17330     17333     17336     17334     17333     17335
     17334     17333     17336     17335     17333     17336     17338     17337     17341
     17338     17337     17345     17338     17337     17349     17341     17337     17345
     17341     17337     17349     17345     17337     17349     17337     17338     17339
     17337     17338     17340     17337     17338     17353     17339     17338     17340
     17339     17338     17353     17340     17338     17353     17337     17341     17342
     17337     17341     17343     17337     17341     17344     17342     17341     17343
     17342     17341     17344     17343     17341     17344     17337     17345     17346
     17337     17345     17347     17337     17345     17348     17346     17345     17347
     17346     17345     17348     17347     17345     17348     17337     17349     17350
     17337     17349     17351     17337     17349     17352     17350     17349     17351
     17350     17349     17352     17351     17349     17352     17338     17353     17354
     17338     17353     17355     17338     17353     17359     17354     17353     17355
     17354     17353     17359     17355     17353     17359     17357     17356     17358
     17357     17356     17359     17357     17356     17360     17358     17356     17359
     17358     17356     17360     17359     17356     17360     17353     17359     17356
     17356     17360     17361     17360     17361     17362     17360     17361     17363
     17360     17361     17364     17362     17361     17363     17362     17361     17364
     17363     17361     17364     17361     17364     17365     17361     17364     17366
     17361     17364     17372     17365     17364     17366     17365     17364     17372
     17366     17364     17372     17364     17366     17367     17366     17367     17368
     17366     17367     17369     17368     17367     17369     17367     17369     17370
     17367     17369     17371     17367     17369     17381     17370     17369     17371
     17370     17369     17381     17371     17369     17381     17364     17372     17373
     17364     17372     17374     17364     17372     17375     17373     17372     17374
     17373     17372     17375     17374     17372     17375     17372     17375     17376
     17375     17376     17377     17375     17376     17378     17377     17376     17378
     17376     17378     17379     17376     17378     17380     17376     17378     17428
     17379     17378     17380     17379     17378     17428     17380     17378     17428
     17369     17381     17382     17369     17381     17383     17369     17381     17384
     17382     17381     17383     17382     17381     17384     17383     17381     17384
     17381     17384     17385     17381     17384     17386     17381     17384     17387
     17385     17384     17386     17385     17384     17387     17386     17384     17387
     17384     17387     17388     17384     17387     17389     17384     17387     17390
     17388     17387     17389     17388     17387     17390     17389     17387     17390
     17387     17390     17391     17387     17390     17392     17387     17390     17393
     17391     17390     17392     17391     17390     17393     17392     17390     17393
     17390     17393     17394     17390     17393     17395     17390     17393     17396
     17394     17393     17395     17394     17393     17396     17395     17393     17396
     17393     17396     17397     17393     17396     17398     17393     17396     17399
     17397     17396     17398     17397     17396     17399     17398     17396     17399
     17396     17399     17400     17396     17399     17401     17400     17399     17401
     17399     17401     17402     17399     17401     17403     17402     17401     17403
     17401     17403     17404     17401     17403     17405     17401     17403     17406
     17404     17403     17405     17404     17403     17406     17405     17403     17406
     17403     17406     17407     17403     17406     17408     17403     17406     17409
     17407     17406     17408     17407     17406     17409     17408     17406     17409
     17406     17409     17410     17406     17409     17411     17406     17409     17412
     17410     17409     17411     17410     17409     17412     17411     17409     17412
     17409     17412     17413     17409     17412     17414     17409     17412     17415
     17413     17412     17414     17413     17412     17415     17414     17412     17415
     17412     17415     17416     17412     17415     17417     17412     17415     17418
     17416     17415     17417     17416     17415     17418     17417     17415     17418
     17415     17418     17419     17415     17418     17420     17415     17418     17421
     17419     17418     17420     17419     17418     17421     17420     17418     17421
     17418     17421     17422     17418     17421     17423     17418     17421     17424
     17422     17421     17423     17422     17421     17424     17423     17421     17424
     17421     17424     17425     17421     17424     17426     17421     17424     17427
     17425     17424     17426     17425     17424     17427     17426     17424     17427
     17378     17428     17429     17378     17428     17430     17378     17428     17431
     17429     17428     17430     17429     17428     17431     17430     17428     17431
     17428     17431     17432     17428     17431     17433     17428     17431     17434
     17432     17431     17433     17432     17431     17434     17433     17431     17434
     17431     17434     17435     17431     17434     17436     17431     17434     17437
     17435     17434     17436     17435     17434     17437     17436     17434     17437
     17434     17437     17438     17434     17437     17439     17434     17437     17440
     17438     17437     17439     17438     17437     17440     17439     17437     17440
     17437     17440     17441     17437     17440     17442     17437     17440     17443
     17441     17440     17442     17441     17440     17443     17442     17440     17443
     17440     17443     17444     17440     17443     17445     17440     17443     17446
     17444     17443     17445     17444     17443     17446     17445     17443     17446
     17443     17446     17447     17443     17446     17448     17447     17446     17448
     17446     17448     17449     17446     17448     17450     17449     17448     17450
     17448     17450     17451     17448     17450     17452     17448     17450     17453
     17451     17450     17452     17451     17450     17453     17452     17450     17453
     17450     17453     17454     17450     17453     17455     17450     17453     17456
     17454     17453     17455     17454     17453     17456     17455     17453     17456
     17453     17456     17457     17453     17456     17458     17453     17456     17459
     17457     17456     17458     17457     17456     17459     17458     17456     17459
     17456     17459     17460     17456     17459     17461     17456     17459     17462
     17460     17459     17461     17460     17459     17462     17461     17459     17462
     17459     17462     17463     17459     17462     17464     17459     17462     17465
     17463     17462     17464     17463     17462     17465     17464     17462     17465
     17462     17465     17466     17462     17465     17467     17462     17465     17468
     17466     17465     17467     17466     17465     17468     17467     17465     17468
     17465     17468     17469     17465     17468     17470     17465     17468     17471
     17469     17468     17470     17469     17468     17471     17470     17468     17471
     17468     17471     17472     17468     17471     17473     17468     17471     17474
     17472     17471     17473     17472     17471     17474     17473     17471     17474
     17476     17475     17479     17476     17475     17483     17476     17475     17487
     17479     17475     17483     17479     17475     17487     17483     17475     17487
     17475     17476     17477     17475     17476     17478     17475     17476     17491
     17477     17476     17478     17477     17476     17491     17478     17476     17491
     17475     17479     17480     17475     17479     17481     17475     17479     17482
     17480     17479     17481     17480     17479     17482     17481     17479     17482
     17475     17483     17484     17475     17483     17485     17475     17483     17486
     17484     17483     17485     17484     17483     17486     17485     17483     17486
     17475     17487     17488     17475     17487     17489     17475     17487     17490
     17488     17487     17489     17488     17487     17490     17489     17487     17490
     17476     17491     17492     17476     17491     17493     17476     17491     17497
     17492     17491     17493     17492     17491     17497     17493     17491     17497
     17495     17494     17496     17495     17494     17497     17495     17494     17498
     17496     17494     17497     17496     17494     17498     17497     17494     17498
     17491     17497     17494     17494     17498     17499     17498     17499     17500
     17498     17499     17501     17498     17499     17502     17500     17499     17501
     17500     17499     17502     17501     17499     17502     17499     17502     17503
     17499     17502     17504     17499     17502     17510     17503     17502     17504
     17503     17502     17510     17504     17502     17510     17502     17504     17505
     17504     17505     17506     17504     17505     17507     17506     17505     17507
     17505     17507     17508     17505     17507     17509     17505     17507     17519
     17508     17507     17509     17508     17507     17519     17509     17507     17519
     17502     17510     17511     17502     17510     17512     17502     17510     17513
     17511     17510     17512     17511     17510     17513     17512     17510     17513
     17510     17513     17514     17513     17514     17515     17513     17514     17516
     17515     17514     17516     17514     17516     17517     17514     17516     17518
     17514     17516     17566     17517     17516     17518     17517     17516     17566
     17518     17516     17566     17507     17519     17520     17507     17519     17521
     17507     17519     17522     17520     17519     17521     17520     17519     17522
     17521     17519     17522     17519     17522     17523     17519     17522     17524
     17519     17522     17525     17523     17522     17524     17523     17522     17525
     17524     17522     17525     17522     17525     17526     17522     17525     17527
     17522     17525     17528     17526     17525     17527     17526     17525     17528
     17527     17525     17528     17525     17528     17529     17525     17528     17530
     17525     17528     17531     17529     17528     17530     17529     17528     17531
     17530     17528     17531     17528     17531     17532     17528     17531     17533
     17528     17531     17534     17532     17531     17533     17532     17531     17534
     17533     17531     17534     17531     17534     17535     17531     17534     17536
     17531     17534     17537     17535     17534     17536     17535     17534     17537
     17536     17534     17537     17534     17537     17538     17534     17537     17539
     17538     17537     17539     17537     17539     17540     17537     17539     17541
     17540     17539     17541     17539     17541     17542     17539     17541     17543
     17539     17541     17544     17542     17541     17543     17542     17541     17544
     17543     17541     17544     17541     17544     17545     17541     17544     17546
     17541     17544     17547     17545     17544     17546     17545     17544     17547
     17546     17544     17547     17544     17547     17548     17544     17547     17549
     17544     17547     17550     17548     17547     17549     17548     17547     17550
     17549     17547     17550     17547     17550     17551     17547     17550     17552
     17547     17550     17553     17551     17550     17552     17551     17550     17553
     17552     17550     17553     17550     17553     17554     17550     17553     17555
     17550     17553     17556     17554     17553     17555     17554     17553     17556
     17555     17553     17556     17553     17556     17557     17553     17556     17558
     17553     17556     17559     17557     17556     17558     17557     17556     17559
     17558     17556     17559     17556     17559     17560     17556     17559     17561
     17556     17559     17562     17560     17559     17561     17560     17559     17562
     17561     17559     17562     17559     17562     17563     17559     17562     17564
     17559     17562     17565     17563     17562     17564     17563     17562     17565
     17564     17562     17565     17516     17566     17567     17516     17566     17568
     17516     17566     17569     17567     17566     17568     17567     17566     17569
     17568     17566     17569     17566     17569     17570     17566     17569     17571
     17566     17569     17572     17570     17569     17571     17570     17569     17572
     17571     17569     17572     17569     17572     17573     17569     17572     17574
     17569     17572     17575     17573     17572     17574     17573     17572     17575
     17574     17572     17575     17572     17575     17576     17572     17575     17577
     17572     17575     17578     17576     17575     17577     17576     17575     17578
     17577     17575     17578     17575     17578     17579     17575     17578     17580
     17575     17578     17581     17579     17578     17580     17579     17578     17581
     17580     17578     17581     17578     17581     17582     17578     17581     17583
     17578     17581     17584     17582     17581     17583     17582     17581     17584
     17583     17581     17584     17581     17584     17585     17581     17584     17586
     17585     17584     17586     17584     17586     17587     17584     17586     17588
     17587     17586     17588     17586     17588     17589     17586     17588     17590
     17586     17588     17591     17589     17588     17590     17589     17588     17591
     17590     17588     17591     17588     17591     17592     17588     17591     17593
     17588     17591     17594     17592     17591     17593     17592     17591     17594
     17593     17591     17594     17591     17594     17595     17591     17594     17596
     17591     17594     17597     17595     17594     17596     17595     17594     17597
     17596     17594     17597     17594     17597     17598     17594     17597     17599
     17594     17597     17600     17598     17597     17599     17598     17597     17600
     17599     17597     17600     17597     17600     17601     17597     17600     17602
     17597     17600     17603     17601     17600     17602     17601     17600     17603
     17602     17600     17603     17600     17603     17604     17600     17603     17605
     17600     17603     17606     17604     17603     17605     17604     17603     17606
     17605     17603     17606     17603     17606     17607     17603     17606     17608
     17603     17606     17609     17607     17606     17608     17607     17606     17609
     17608     17606     17609     17606     17609     17610     17606     17609     17611
     17606     17609     17612     17610     17609     17611     17610     17609     17612
     17611     17609     17612     17614     17613     17617     17614     17613     17621
     17614     17613     17625     17617     17613     17621     17617     17613     17625
     17621     17613     17625     17613     17614     17615     17613     17614     17616
     17613     17614     17629     17615     17614     17616     17615     17614     17629
     17616     17614     17629     17613     17617     17618     17613     17617     17619
     17613     17617     17620     17618     17617     17619     17618     17617     17620
     17619     17617     17620     17613     17621     17622     17613     17621     17623
     17613     17621     17624     17622     17621     17623     17622     17621     17624
     17623     17621     17624     17613     17625     17626     17613     17625     17627
     17613     17625     17628     17626     17625     17627     17626     17625     17628
     17627     17625     17628     17614     17629     17630     17614     17629     17631
     17614     17629     17635     17630     17629     17631     17630     17629     17635
     17631     17629     17635     17633     17632     17634     17633     17632     17635
     17633     17632     17636     17634     17632     17635     17634     17632     17636
     17635     17632     17636     17629     17635     17632     17632     17636     17637
     17636     17637     17638     17636     17637     17639     17636     17637     17640
     17638     17637     17639     17638     17637     17640     17639     17637     17640
     17637     17640     17641     17637     17640     17642     17637     17640     17648
     17641     17640     17642     17641     17640     17648     17642     17640     17648
     17640     17642     17643     17642     17643     17644     17642     17643     17645
     17644     17643     17645     17643     17645     17646     17643     17645     17647
     17643     17645     17657     17646     17645     17647     17646     17645     17657
     17647     17645     17657     17640     17648     17649     17640     17648     17650
     17640     17648     17651     17649     17648     17650     17649     17648     17651
     17650     17648     17651     17648     17651     17652     17651     17652     17653
     17651     17652     17654     17653     17652     17654     17652     17654     17655
     17652     17654     17656     17652     17654     17704     17655     17654     17656
     17655     17654     17704     17656     17654     17704     17645     17657     17658
     17645     17657     17659     17645     17657     17660     17658     17657     17659
     17658     17657     17660     17659     17657     17660     17657     17660     17661
     17657     17660     17662     17657     17660     17663     17661     17660     17662
     17661     17660     17663     17662     17660     17663     17660     17663     17664
     17660     17663     17665     17660     17663     17666     17664     17663     17665
     17664     17663     17666     17665     17663     17666     17663     17666     17667
     17663     17666     17668     17663     17666     17669     17667     17666     17668
     17667     17666     17669     17668     17666     17669     17666     17669     17670
     17666     17669     17671     17666     17669     17672     17670     17669     17671
     17670     17669     17672     17671     17669     17672     17669     17672     17673
     17669     17672     17674     17669     17672     17675     17673     17672     17674
     17673     17672     17675     17674     17672     17675     17672     17675     17676
     17672     17675     17677     17676     17675     17677     17675     17677     17678
     17675     17677     17679     17678     17677     17679     17677     17679     17680
     17677     17679     17681     17677     17679     17682     17680     17679     17681
     17680     17679     17682     17681     17679     17682     17679     17682     17683
     17679     17682     17684     17679     17682     17685     17683     17682     17684
     17683     17682     17685     17684     17682     17685     17682     17685     17686
     17682     17685     17687     17682     17685     17688     17686     17685     17687
     17686     17685     17688     17687     17685     17688     17685     17688     17689
     17685     17688     17690     17685     17688     17691     17689     17688     17690
     17689     17688     17691     17690     17688     17691     17688     17691     17692
     17688     17691     17693     17688     17691     17694     17692     17691     17693
     17692     17691     17694     17693     17691     17694     17691     17694     17695
     17691     17694     17696     17691     17694     17697     17695     17694     17696
     17695     17694     17697     17696     17694     17697     17694     17697     17698
     17694     17697     17699     17694     17697     17700     17698     17697     17699
     17698     17697     17700     17699     17697     17700     17697     17700     17701
     17697     17700     17702     17697     17700     17703     17701     17700     17702
     17701     17700     17703     17702     17700     17703     17654     17704     17705
     17654     17704     17706     17654     17704     17707     17705     17704     17706
     17705     17704     17707     17706     17704     17707     17704     17707     17708
     17704     17707     17709     17704     17707     17710     17708     17707     17709
     17708     17707     17710     17709     17707     17710     17707     17710     17711
     17707     17710     17712     17707     17710     17713     17711     17710     17712
     17711     17710     17713     17712     17710     17713     17710     17713     17714
     17710     17713     17715     17710     17713     17716     17714     17713     17715
     17714     17713     17716     17715     17713     17716     17713     17716     17717
     17713     17716     17718     17713     17716     17719     17717     17716     17718
     17717     17716     17719     17718     17716     17719     17716     17719     17720
     17716     17719     17721     17716     17719     17722     17720     17719     17721
     17720     17719     17722     17721     17719     17722     17719     17722     17723
     17719     17722     17724     17723     17722     17724     17722     17724     17725
     17722     17724     17726     17725     17724     17726     17724     17726     17727
     17724     17726     17728     17724     17726     17729     17727     17726     17728
     17727     17726     17729     17728     17726     17729     17726     17729     17730
     17726     17729     17731     17726     17729     17732     17730     17729     17731
     17730     17729     17732     17731     17729     17732     17729     17732     17733
     17729     17732     17734     17729     17732     17735     17733     17732     17734
     17733     17732     17735     17734     17732     17735     17732     17735     17736
     17732     17735     17737     17732     17735     17738     17736     17735     17737
     17736     17735     17738     17737     17735     17738     17735     17738     17739
     17735     17738     17740     17735     17738     17741     17739     17738     17740
     17739     17738     17741     17740     17738     17741     17738     17741     17742
     17738     17741     17743     17738     17741     17744     17742     17741     17743
     17742     17741     17744     17743     17741     17744     17741     17744     17745
     17741     17744     17746     17741     17744     17747     17745     17744     17746
     17745     17744     17747     17746     17744     17747     17744     17747     17748
     17744     17747     17749     17744     17747     17750     17748     17747     17749
     17748     17747     17750     17749     17747     17750     17752     17751     17755
     17752     17751     17759     17752     17751     17763     17755     17751     17759
     17755     17751     17763     17759     17751     17763     17751     17752     17753
     17751     17752     17754     17751     17752     17767     17753     17752     17754
     17753     17752     17767     17754     17752     17767     17751     17755     17756
     17751     17755     17757     17751     17755     17758     17756     17755     17757
     17756     17755     17758     17757     17755     17758     17751     17759     17760
     17751     17759     17761     17751     17759     17762     17760     17759     17761
     17760     17759     17762     17761     17759     17762     17751     17763     17764
     17751     17763     17765     17751     17763     17766     17764     17763     17765
     17764     17763     17766     17765     17763     17766     17752     17767     17768
     17752     17767     17769     17752     17767     17773     17768     17767     17769
     17768     17767     17773     17769     17767     17773     17771     17770     17772
     17771     17770     17773     17771     17770     17774     17772     17770     17773
     17772     17770     17774     17773     17770     17774     17767     17773     17770
     17770     17774     17775     17774     17775     17776     17774     17775     17777
     17774     17775     17778     17776     17775     17777     17776     17775     17778
     17777     17775     17778     17775     17778     17779     17775     17778     17780
     17775     17778     17786     17779     17778     17780     17779     17778     17786
     17780     17778     17786     17778     17780     17781     17780     17781     17782
     17780     17781     17783     17782     17781     17783     17781     17783     17784
     17781     17783     17785     17781     17783     17795     17784     17783     17785
     17784     17783     17795     17785     17783     17795     17778     17786     17787
     17778     17786     17788     17778     17786     17789     17787     17786     17788
     17787     17786     17789     17788     17786     17789     17786     17789     17790
     17789     17790     17791     17789     17790     17792     17791     17790     17792
     17790     17792     17793     17790     17792     17794     17790     17792     17842
     17793     17792     17794     17793     17792     17842     17794     17792     17842
     17783     17795     17796     17783     17795     17797     17783     17795     17798
     17796     17795     17797     17796     17795     17798     17797     17795     17798
     17795     17798     17799     17795     17798     17800     17795     17798     17801
     17799     17798     17800     17799     17798     17801     17800     17798     17801
     17798     17801     17802     17798     17801     17803     17798     17801     17804
     17802     17801     17803     17802     17801     17804     17803     17801     17804
     17801     17804     17805     17801     17804     17806     17801     17804     17807
     17805     17804     17806     17805     17804     17807     17806     17804     17807
     17804     17807     17808     17804     17807     17809     17804     17807     17810
     17808     17807     17809     17808     17807     17810     17809     17807     17810
     17807     17810     17811     17807     17810     17812     17807     17810     17813
     17811     17810     17812     17811     17810     17813     17812     17810     17813
     17810     17813     17814     17810     17813     17815     17814     17813     17815
     17813     17815     17816     17813     17815     17817     17816     17815     17817
     17815     17817     17818     17815     17817     17819     17815     17817     17820
     17818     17817     17819     17818     17817     17820     17819     17817     17820
     17817     17820     17821     17817     17820     17822     17817     17820     17823
     17821     17820     17822     17821     17820     17823     17822     17820     17823
     17820     17823     17824     17820     17823     17825     17820     17823     17826
     17824     17823     17825     17824     17823     17826     17825     17823     17826
     17823     17826     17827     17823     17826     17828     17823     17826     17829
     17827     17826     17828     17827     17826     17829     17828     17826     17829
     17826     17829     17830     17826     17829     17831     17826     17829     17832
     17830     17829     17831     17830     17829     17832     17831     17829     17832
     17829     17832     17833     17829     17832     17834     17829     17832     17835
     17833     17832     17834     17833     17832     17835     17834     17832     17835
     17832     17835     17836     17832     17835     17837     17832     17835     17838
     17836     17835     17837     17836     17835     17838     17837     17835     17838
     17835     17838     17839     17835     17838     17840     17835     17838     17841
     17839     17838     17840     17839     17838     17841     17840     17838     17841
     17792     17842     17843     17792     17842     17844     17792     17842     17845
     17843     17842     17844     17843     17842     17845     17844     17842     17845
     17842     17845     17846     17842     17845     17847     17842     17845     17848
     17846     17845     17847     17846     17845     17848     17847     17845     17848
     17845     17848     17849     17845     17848     17850     17845     17848     17851
     17849     17848     17850     17849     17848     17851     17850     17848     17851
     17848     17851     17852     17848     17851     17853     17848     17851     17854
     17852     17851     17853     17852     17851     17854     17853     17851     17854
     17851     17854     17855     17851     17854     17856     17851     17854     17857
     17855     17854     17856     17855     17854     17857     17856     17854     17857
     17854     17857     17858     17854     17857     17859     17854     17857     17860
     17858     17857     17859     17858     17857     17860     17859     17857     17860
     17857     17860     17861     17857     17860     17862     17861     17860     17862
     17860     17862     17863     17860     17862     17864     17863     17862     17864
     17862     17864     17865     17862     17864     17866     17862     17864     17867
     17865     17864     17866     17865     17864     17867     17866     17864     17867
     17864     17867     17868     17864     17867     17869     17864     17867     17870
     17868     17867     17869     17868     17867     17870     17869     17867     17870
     17867     17870     17871     17867     17870     17872     17867     17870     17873
     17871     17870     17872     17871     17870     17873     17872     17870     17873
     17870     17873     17874     17870     17873     17875     17870     17873     17876
     17874     17873     17875     17874     17873     17876     17875     17873     17876
     17873     17876     17877     17873     17876     17878     17873     17876     17879
     17877     17876     17878     17877     17876     17879     17878     17876     17879
     17876     17879     17880     17876     17879     17881     17876     17879     17882
     17880     17879     17881     17880     17879     17882     17881     17879     17882
     17879     17882     17883     17879     17882     17884     17879     17882     17885
     17883     17882     17884     17883     17882     17885     17884     17882     17885
     17882     17885     17886     17882     17885     17887     17882     17885     17888
     17886     17885     17887     17886     17885     17888     17887     17885     17888
     17890     17889     17893     17890     17889     17897     17890     17889     17901
     17893     17889     17897     17893     17889     17901     17897     17889     17901
     17889     17890     17891     17889     17890     17892     17889     17890     17905
     17891     17890     17892     17891     17890     17905     17892     17890     17905
     17889     17893     17894     17889     17893     17895     17889     17893     17896
     17894     17893     17895     17894     17893     17896     17895     17893     17896
     17889     17897     17898     17889     17897     17899     17889     17897     17900
     17898     17897     17899     17898     17897     17900     17899     17897     17900
     17889     17901     17902     17889     17901     17903     17889     17901     17904
     17902     17901     17903     17902     17901     17904     17903     17901     17904
     17890     17905     17906     17890     17905     17907     17890     17905     17911
     17906     17905     17907     17906     17905     17911     17907     17905     17911
     17909     17908     17910     17909     17908     17911     17909     17908     17912
     17910     17908     17911     17910     17908     17912     17911     17908     17912
     17905     17911     17908     17908     17912     17913     17912     17913     17914
     17912     17913     17915     17912     17913     17916     17914     17913     17915
     17914     17913     17916     17915     17913     17916     17913     17916     17917
     17913     17916     17918     17913     17916     17924     17917     17916     17918
     17917     17916     17924     17918     17916     17924     17916     17918     17919
     17918     17919     17920     17918     17919     17921     17920     17919     17921
     17919     17921     17922     17919     17921     17923     17919     17921     17933
     17922     17921     17923     17922     17921     17933     17923     17921     17933
     17916     17924     17925     17916     17924     17926     17916     17924     17927
     17925     17924     17926     17925     17924     17927     17926     17924     17927
     17924     17927     17928     17927     17928     17929     17927     17928     17930
     17929     17928     17930     17928     17930     17931     17928     17930     17932
     17928     17930     17980     17931     17930     17932     17931     17930     17980
     17932     17930     17980     17921     17933     17934     17921     17933     17935
     17921     17933     17936     17934     17933     17935     17934     17933     17936
     17935     17933     17936     17933     17936     17937     17933     17936     17938
     17933     17936     17939     17937     17936     17938     17937     17936     17939
     17938     17936     17939     17936     17939     17940     17936     17939     17941
     17936     17939     17942     17940     17939     17941     17940     17939     17942
     17941     17939     17942     17939     17942     17943     17939     17942     17944
     17939     17942     17945     17943     17942     17944     17943     17942     17945
     17944     17942     17945     17942     17945     17946     17942     17945     17947
     17942     17945     17948     17946     17945     17947     17946     17945     17948
     17947     17945     17948     17945     17948     17949     17945     17948     17950
     17945     17948     17951     17949     17948     17950     17949     17948     17951
     17950     17948     17951     17948     17951     17952     17948     17951     17953
     17952     17951     17953     17951     17953     17954     17951     17953     17955
     17954     17953     17955     17953     17955     17956     17953     17955     17957
     17953     17955     17958     17956     17955     17957     17956     17955     17958
     17957     17955     17958     17955     17958     17959     17955     17958     17960
     17955     17958     17961     17959     17958     17960     17959     17958     17961
     17960     17958     17961     17958     17961     17962     17958     17961     17963
     17958     17961     17964     17962     17961     17963     17962     17961     17964
     17963     17961     17964     17961     17964     17965     17961     17964     17966
     17961     17964     17967     17965     17964     17966     17965     17964     17967
     17966     17964     17967     17964     17967     17968     17964     17967     17969
     17964     17967     17970     17968     17967     17969     17968     17967     17970
     17969     17967     17970     17967     17970     17971     17967     17970     17972
     17967     17970     17973     17971     17970     17972     17971     17970     17973
     17972     17970     17973     17970     17973     17974     17970     17973     17975
     17970     17973     17976     17974     17973     17975     17974     17973     17976
     17975     17973     17976     17973     17976     17977     17973     17976     17978
     17973     17976     17979     17977     17976     17978     17977     17976     17979
     17978     17976     17979     17930     17980     17981     17930     17980     17982
     17930     17980     17983     17981     17980     17982     17981     17980     17983
     17982     17980     17983     17980     17983     17984     17980     17983     17985
     17980     17983     17986     17984     17983     17985     17984     17983     17986
     17985     17983     17986     17983     17986     17987     17983     17986     17988
     17983     17986     17989     17987     17986     17988     17987     17986     17989
     17988     17986     17989     17986     17989     17990     17986     17989     17991
     17986     17989     17992     17990     17989     17991     17990     17989     17992
     17991     17989     17992     17989     17992     17993     17989     17992     17994
     17989     17992     17995     17993     17992     17994     17993     17992     17995
     17994     17992     17995     17992     17995     17996     17992     17995     17997
     17992     17995     17998     17996     17995     17997     17996     17995     17998
     17997     17995     17998     17995     17998     17999     17995     17998     18000
     17999     17998     18000     17998     18000     18001     17998     18000     18002
     18001     18000     18002     18000     18002     18003     18000     18002     18004
     18000     18002     18005     18003     18002     18004     18003     18002     18005
     18004     18002     18005     18002     18005     18006     18002     18005     18007
     18002     18005     18008     18006     18005     18007     18006     18005     18008
     18007     18005     18008     18005     18008     18009     18005     18008     18010
     18005     18008     18011     18009     18008     18010     18009     18008     18011
     18010     18008     18011     18008     18011     18012     18008     18011     18013
     18008     18011     18014     18012     18011     18013     18012     18011     18014
     18013     18011     18014     18011     18014     18015     18011     18014     18016
     18011     18014     18017     18015     18014     18016     18015     18014     18017
     18016     18014     18017     18014     18017     18018     18014     18017     18019
     18014     18017     18020     18018     18017     18019     18018     18017     18020
     18019     18017     18020     18017     18020     18021     18017     18020     18022
     18017     18020     18023     18021     18020     18022     18021     18020     18023
     18022     18020     18023     18020     18023     18024     18020     18023     18025
     18020     18023     18026     18024     18023     18025     18024     18023     18026
     18025     18023     18026     18028     18027     18031     18028     18027     18035
     18028     18027     18039     18031     18027     18035     18031     18027     18039
     18035     18027     18039     18027     18028     18029     18027     18028     18030
     18027     18028     18043     18029     18028     18030     18029     18028     18043
     18030     18028     18043     18027     18031     18032     18027     18031     18033
     18027     18031     18034     18032     18031     18033     18032     18031     18034
     18033     18031     18034     18027     18035     18036     18027     18035     18037
     18027     18035     18038     18036     18035     18037     18036     18035     18038
     18037     18035     18038     18027     18039     18040     18027     18039     18041
     18027     18039     18042     18040     18039     18041     18040     18039     18042
     18041     18039     18042     18028     18043     18044     18028     18043     18045
     18028     18043     18049     18044     18043     18045     18044     18043     18049
     18045     18043     18049     18047     18046     18048     18047     18046     18049
     18047     18046     18050     18048     18046     18049     18048     18046     18050
     18049     18046     18050     18043     18049     18046     18046     18050     18051
     18050     18051     18052     18050     18051     18053     18050     18051     18054
     18052     18051     18053     18052     18051     18054     18053     18051     18054
     18051     18054     18055     18051     18054     18056     18051     18054     18062
     18055     18054     18056     18055     18054     18062     18056     18054     18062
     18054     18056     18057     18056     18057     18058     18056     18057     18059
     18058     18057     18059     18057     18059     18060     18057     18059     18061
     18057     18059     18071     18060     18059     18061     18060     18059     18071
     18061     18059     18071     18054     18062     18063     18054     18062     18064
     18054     18062     18065     18063     18062     18064     18063     18062     18065
     18064     18062     18065     18062     18065     18066     18065     18066     18067
     18065     18066     18068     18067     18066     18068     18066     18068     18069
     18066     18068     18070     18066     18068     18118     18069     18068     18070
     18069     18068     18118     18070     18068     18118     18059     18071     18072
     18059     18071     18073     18059     18071     18074     18072     18071     18073
     18072     18071     18074     18073     18071     18074     18071     18074     18075
     18071     18074     18076     18071     18074     18077     18075     18074     18076
     18075     18074     18077     18076     18074     18077     18074     18077     18078
     18074     18077     18079     18074     18077     18080     18078     18077     18079
     18078     18077     18080     18079     18077     18080     18077     18080     18081
     18077     18080     18082     18077     18080     18083     18081     18080     18082
     18081     18080     18083     18082     18080     18083     18080     18083     18084
     18080     18083     18085     18080     18083     18086     18084     18083     18085
     18084     18083     18086     18085     18083     18086     18083     18086     18087
     18083     18086     18088     18083     18086     18089     18087     18086     18088
     18087     18086     18089     18088     18086     18089     18086     18089     18090
     18086     18089     18091     18090     18089     18091     18089     18091     18092
     18089     18091     18093     18092     18091     18093     18091     18093     18094
     18091     18093     18095     18091     18093     18096     18094     18093     18095
     18094     18093     18096     18095     18093     18096     18093     18096     18097
     18093     18096     18098     18093     18096     18099     18097     18096     18098
     18097     18096     18099     18098     18096     18099     18096     18099     18100
     18096     18099     18101     18096     18099     18102     18100     18099     18101
     18100     18099     18102     18101     18099     18102     18099     18102     18103
     18099     18102     18104     18099     18102     18105     18103     18102     18104
     18103     18102     18105     18104     18102     18105     18102     18105     18106
     18102     18105     18107     18102     18105     18108     18106     18105     18107
     18106     18105     18108     18107     18105     18108     18105     18108     18109
     18105     18108     18110     18105     18108     18111     18109     18108     18110
     18109     18108     18111     18110     18108     18111     18108     18111     18112
     18108     18111     18113     18108     18111     18114     18112     18111     18113
     18112     18111     18114     18113     18111     18114     18111     18114     18115
     18111     18114     18116     18111     18114     18117     18115     18114     18116
     18115     18114     18117     18116     18114     18117     18068     18118     18119
     18068     18118     18120     18068     18118     18121     18119     18118     18120
     18119     18118     18121     18120     18118     18121     18118     18121     18122
     18118     18121     18123     18118     18121     18124     18122     18121     18123
     18122     18121     18124     18123     18121     18124     18121     18124     18125
     18121     18124     18126     18121     18124     18127     18125     18124     18126
     18125     18124     18127     18126     18124     18127     18124     18127     18128
     18124     18127     18129     18124     18127     18130     18128     18127     18129
     18128     18127     18130     18129     18127     18130     18127     18130     18131
     18127     18130     18132     18127     18130     18133     18131     18130     18132
     18131     18130     18133     18132     18130     18133     18130     18133     18134
     18130     18133     18135     18130     18133     18136     18134     18133     18135
     18134     18133     18136     18135     18133     18136     18133     18136     18137
     18133     18136     18138     18137     18136     18138     18136     18138     18139
     18136     18138     18140     18139     18138     18140     18138     18140     18141
     18138     18140     18142     18138     18140     18143     18141     18140     18142
     18141     18140     18143     18142     18140     18143     18140     18143     18144
     18140     18143     18145     18140     18143     18146     18144     18143     18145
     18144     18143     18146     18145     18143     18146     18143     18146     18147
     18143     18146     18148     18143     18146     18149     18147     18146     18148
     18147     18146     18149     18148     18146     18149     18146     18149     18150
     18146     18149     18151     18146     18149     18152     18150     18149     18151
     18150     18149     18152     18151     18149     18152     18149     18152     18153
     18149     18152     18154     18149     18152     18155     18153     18152     18154
     18153     18152     18155     18154     18152     18155     18152     18155     18156
     18152     18155     18157     18152     18155     18158     18156     18155     18157
     18156     18155     18158     18157     18155     18158     18155     18158     18159
     18155     18158     18160     18155     18158     18161     18159     18158     18160
     18159     18158     18161     18160     18158     18161     18158     18161     18162
     18158     18161     18163     18158     18161     18164     18162     18161     18163
     18162     18161     18164     18163     18161     18164     18166     18165     18169
     18166     18165     18173     18166     18165     18177     18169     18165     18173
     18169     18165     18177     18173     18165     18177     18165     18166     18167
     18165     18166     18168     18165     18166     18181     18167     18166     18168
     18167     18166     18181     18168     18166     18181     18165     18169     18170
     18165     18169     18171     18165     18169     18172     18170     18169     18171
     18170     18169     18172     18171     18169     18172     18165     18173     18174
     18165     18173     18175     18165     18173     18176     18174     18173     18175
     18174     18173     18176     18175     18173     18176     18165     18177     18178
     18165     18177     18179     18165     18177     18180     18178     18177     18179
     18178     18177     18180     18179     18177     18180     18166     18181     18182
     18166     18181     18183     18166     18181     18187     18182     18181     18183
     18182     18181     18187     18183     18181     18187     18185     18184     18186
     18185     18184     18187     18185     18184     18188     18186     18184     18187
     18186     18184     18188     18187     18184     18188     18181     18187     18184
     18184     18188     18189     18188     18189     18190     18188     18189     18191
     18188     18189     18192     18190     18189     18191     18190     18189     18192
     18191     18189     18192     18189     18192     18193     18189     18192     18194
     18189     18192     18200     18193     18192     18194     18193     18192     18200
     18194     18192     18200     18192     18194     18195     18194     18195     18196
     18194     18195     18197     18196     18195     18197     18195     18197     18198
     18195     18197     18199     18195     18197     18209     18198     18197     18199
     18198     18197     18209     18199     18197     18209     18192     18200     18201
     18192     18200     18202     18192     18200     18203     18201     18200     18202
     18201     18200     18203     18202     18200     18203     18200     18203     18204
     18203     18204     18205     18203     18204     18206     18205     18204     18206
     18204     18206     18207     18204     18206     18208     18204     18206     18256
     18207     18206     18208     18207     18206     18256     18208     18206     18256
     18197     18209     18210     18197     18209     18211     18197     18209     18212
     18210     18209     18211     18210     18209     18212     18211     18209     18212
     18209     18212     18213     18209     18212     18214     18209     18212     18215
     18213     18212     18214     18213     18212     18215     18214     18212     18215
     18212     18215     18216     18212     18215     18217     18212     18215     18218
     18216     18215     18217     18216     18215     18218     18217     18215     18218
     18215     18218     18219     18215     18218     18220     18215     18218     18221
     18219     18218     18220     18219     18218     18221     18220     18218     18221
     18218     18221     18222     18218     18221     18223     18218     18221     18224
     18222     18221     18223     18222     18221     18224     18223     18221     18224
     18221     18224     18225     18221     18224     18226     18221     18224     18227
     18225     18224     18226     18225     18224     18227     18226     18224     18227
     18224     18227     18228     18224     18227     18229     18228     18227     18229
     18227     18229     18230     18227     18229     18231     18230     18229     18231
     18229     18231     18232     18229     18231     18233     18229     18231     18234
     18232     18231     18233     18232     18231     18234     18233     18231     18234
     18231     18234     18235     18231     18234     18236     18231     18234     18237
     18235     18234     18236     18235     18234     18237     18236     18234     18237
     18234     18237     18238     18234     18237     18239     18234     18237     18240
     18238     18237     18239     18238     18237     18240     18239     18237     18240
     18237     18240     18241     18237     18240     18242     18237     18240     18243
     18241     18240     18242     18241     18240     18243     18242     18240     18243
     18240     18243     18244     18240     18243     18245     18240     18243     18246
     18244     18243     18245     18244     18243     18246     18245     18243     18246
     18243     18246     18247     18243     18246     18248     18243     18246     18249
     18247     18246     18248     18247     18246     18249     18248     18246     18249
     18246     18249     18250     18246     18249     18251     18246     18249     18252
     18250     18249     18251     18250     18249     18252     18251     18249     18252
     18249     18252     18253     18249     18252     18254     18249     18252     18255
     18253     18252     18254     18253     18252     18255     18254     18252     18255
     18206     18256     18257     18206     18256     18258     18206     18256     18259
     18257     18256     18258     18257     18256     18259     18258     18256     18259
     18256     18259     18260     18256     18259     18261     18256     18259     18262
     18260     18259     18261     18260     18259     18262     18261     18259     18262
     18259     18262     18263     18259     18262     18264     18259     18262     18265
     18263     18262     18264     18263     18262     18265     18264     18262     18265
     18262     18265     18266     18262     18265     18267     18262     18265     18268
     18266     18265     18267     18266     18265     18268     18267     18265     18268
     18265     18268     18269     18265     18268     18270     18265     18268     18271
     18269     18268     18270     18269     18268     18271     18270     18268     18271
     18268     18271     18272     18268     18271     18273     18268     18271     18274
     18272     18271     18273     18272     18271     18274     18273     18271     18274
     18271     18274     18275     18271     18274     18276     18275     18274     18276
     18274     18276     18277     18274     18276     18278     18277     18276     18278
     18276     18278     18279     18276     18278     18280     18276     18278     18281
     18279     18278     18280     18279     18278     18281     18280     18278     18281
     18278     18281     18282     18278     18281     18283     18278     18281     18284
     18282     18281     18283     18282     18281     18284     18283     18281     18284
     18281     18284     18285     18281     18284     18286     18281     18284     18287
     18285     18284     18286     18285     18284     18287     18286     18284     18287
     18284     18287     18288     18284     18287     18289     18284     18287     18290
     18288     18287     18289     18288     18287     18290     18289     18287     18290
     18287     18290     18291     18287     18290     18292     18287     18290     18293
     18291     18290     18292     18291     18290     18293     18292     18290     18293
     18290     18293     18294     18290     18293     18295     18290     18293     18296
     18294     18293     18295     18294     18293     18296     18295     18293     18296
     18293     18296     18297     18293     18296     18298     18293     18296     18299
     18297     18296     18298     18297     18296     18299     18298     18296     18299
     18296     18299     18300     18296     18299     18301     18296     18299     18302
     18300     18299     18301     18300     18299     18302     18301     18299     18302
     18304     18303     18307     18304     18303     18311     18304     18303     18315
     18307     18303     18311     18307     18303     18315     18311     18303     18315
     18303     18304     18305     18303     18304     18306     18303     18304     18319
     18305     18304     18306     18305     18304     18319     18306     18304     18319
     18303     18307     18308     18303     18307     18309     18303     18307     18310
     18308     18307     18309     18308     18307     18310     18309     18307     18310
     18303     18311     18312     18303     18311     18313     18303     18311     18314
     18312     18311     18313     18312     18311     18314     18313     18311     18314
     18303     18315     18316     18303     18315     18317     18303     18315     18318
     18316     18315     18317     18316     18315     18318     18317     18315     18318
     18304     18319     18320     18304     18319     18321     18304     18319     18325
     18320     18319     18321     18320     18319     18325     18321     18319     18325
     18323     18322     18324     18323     18322     18325     18323     18322     18326
     18324     18322     18325     18324     18322     18326     18325     18322     18326
     18319     18325     18322     18322     18326     18327     18326     18327     18328
     18326     18327     18329     18326     18327     18330     18328     18327     18329
     18328     18327     18330     18329     18327     18330     18327     18330     18331
     18327     18330     18332     18327     18330     18338     18331     18330     18332
     18331     18330     18338     18332     18330     18338     18330     18332     18333
     18332     18333     18334     18332     18333     18335     18334     18333     18335
     18333     18335     18336     18333     18335     18337     18333     18335     18347
     18336     18335     18337     18336     18335     18347     18337     18335     18347
     18330     18338     18339     18330     18338     18340     18330     18338     18341
     18339     18338     18340     18339     18338     18341     18340     18338     18341
     18338     18341     18342     18341     18342     18343     18341     18342     18344
     18343     18342     18344     18342     18344     18345     18342     18344     18346
     18342     18344     18394     18345     18344     18346     18345     18344     18394
     18346     18344     18394     18335     18347     18348     18335     18347     18349
     18335     18347     18350     18348     18347     18349     18348     18347     18350
     18349     18347     18350     18347     18350     18351     18347     18350     18352
     18347     18350     18353     18351     18350     18352     18351     18350     18353
     18352     18350     18353     18350     18353     18354     18350     18353     18355
     18350     18353     18356     18354     18353     18355     18354     18353     18356
     18355     18353     18356     18353     18356     18357     18353     18356     18358
     18353     18356     18359     18357     18356     18358     18357     18356     18359
     18358     18356     18359     18356     18359     18360     18356     18359     18361
     18356     18359     18362     18360     18359     18361     18360     18359     18362
     18361     18359     18362     18359     18362     18363     18359     18362     18364
     18359     18362     18365     18363     18362     18364     18363     18362     18365
     18364     18362     18365     18362     18365     18366     18362     18365     18367
     18366     18365     18367     18365     18367     18368     18365     18367     18369
     18368     18367     18369     18367     18369     18370     18367     18369     18371
     18367     18369     18372     18370     18369     18371     18370     18369     18372
     18371     18369     18372     18369     18372     18373     18369     18372     18374
     18369     18372     18375     18373     18372     18374     18373     18372     18375
     18374     18372     18375     18372     18375     18376     18372     18375     18377
     18372     18375     18378     18376     18375     18377     18376     18375     18378
     18377     18375     18378     18375     18378     18379     18375     18378     18380
     18375     18378     18381     18379     18378     18380     18379     18378     18381
     18380     18378     18381     18378     18381     18382     18378     18381     18383
     18378     18381     18384     18382     18381     18383     18382     18381     18384
     18383     18381     18384     18381     18384     18385     18381     18384     18386
     18381     18384     18387     18385     18384     18386     18385     18384     18387
     18386     18384     18387     18384     18387     18388     18384     18387     18389
     18384     18387     18390     18388     18387     18389     18388     18387     18390
     18389     18387     18390     18387     18390     18391     18387     18390     18392
     18387     18390     18393     18391     18390     18392     18391     18390     18393
     18392     18390     18393     18344     18394     18395     18344     18394     18396
     18344     18394     18397     18395     18394     18396     18395     18394     18397
     18396     18394     18397     18394     18397     18398     18394     18397     18399
     18394     18397     18400     18398     18397     18399     18398     18397     18400
     18399     18397     18400     18397     18400     18401     18397     18400     18402
     18397     18400     18403     18401     18400     18402     18401     18400     18403
     18402     18400     18403     18400     18403     18404     18400     18403     18405
     18400     18403     18406     18404     18403     18405     18404     18403     18406
     18405     18403     18406     18403     18406     18407     18403     18406     18408
     18403     18406     18409     18407     18406     18408     18407     18406     18409
     18408     18406     18409     18406     18409     18410     18406     18409     18411
     18406     18409     18412     18410     18409     18411     18410     18409     18412
     18411     18409     18412     18409     18412     18413     18409     18412     18414
     18413     18412     18414     18412     18414     18415     18412     18414     18416
     18415     18414     18416     18414     18416     18417     18414     18416     18418
     18414     18416     18419     18417     18416     18418     18417     18416     18419
     18418     18416     18419     18416     18419     18420     18416     18419     18421
     18416     18419     18422     18420     18419     18421     18420     18419     18422
     18421     18419     18422     18419     18422     18423     18419     18422     18424
     18419     18422     18425     18423     18422     18424     18423     18422     18425
     18424     18422     18425     18422     18425     18426     18422     18425     18427
     18422     18425     18428     18426     18425     18427     18426     18425     18428
     18427     18425     18428     18425     18428     18429     18425     18428     18430
     18425     18428     18431     18429     18428     18430     18429     18428     18431
     18430     18428     18431     18428     18431     18432     18428     18431     18433
     18428     18431     18434     18432     18431     18433     18432     18431     18434
     18433     18431     18434     18431     18434     18435     18431     18434     18436
     18431     18434     18437     18435     18434     18436     18435     18434     18437
     18436     18434     18437     18434     18437     18438     18434     18437     18439
     18434     18437     18440     18438     18437     18439     18438     18437     18440
     18439     18437     18440     18442     18441     18445     18442     18441     18449
     18442     18441     18453     18445     18441     18449     18445     18441     18453
     18449     18441     18453     18441     18442     18443     18441     18442     18444
     18441     18442     18457     18443     18442     18444     18443     18442     18457
     18444     18442     18457     18441     18445     18446     18441     18445     18447
     18441     18445     18448     18446     18445     18447     18446     18445     18448
     18447     18445     18448     18441     18449     18450     18441     18449     18451
     18441     18449     18452     18450     18449     18451     18450     18449     18452
     18451     18449     18452     18441     18453     18454     18441     18453     18455
     18441     18453     18456     18454     18453     18455     18454     18453     18456
     18455     18453     18456     18442     18457     18458     18442     18457     18459
     18442     18457     18463     18458     18457     18459     18458     18457     18463
     18459     18457     18463     18461     18460     18462     18461     18460     18463
     18461     18460     18464     18462     18460     18463     18462     18460     18464
     18463     18460     18464     18457     18463     18460     18460     18464     18465
     18464     18465     18466     18464     18465     18467     18464     18465     18468
     18466     18465     18467     18466     18465     18468     18467     18465     18468
     18465     18468     18469     18465     18468     18470     18465     18468     18476
     18469     18468     18470     18469     18468     18476     18470     18468     18476
     18468     18470     18471     18470     18471     18472     18470     18471     18473
     18472     18471     18473     18471     18473     18474     18471     18473     18475
     18471     18473     18485     18474     18473     18475     18474     18473     18485
     18475     18473     18485     18468     18476     18477     18468     18476     18478
     18468     18476     18479     18477     18476     18478     18477     18476     18479
     18478     18476     18479     18476     18479     18480     18479     18480     18481
     18479     18480     18482     18481     18480     18482     18480     18482     18483
     18480     18482     18484     18480     18482     18532     18483     18482     18484
     18483     18482     18532     18484     18482     18532     18473     18485     18486
     18473     18485     18487     18473     18485     18488     18486     18485     18487
     18486     18485     18488     18487     18485     18488     18485     18488     18489
     18485     18488     18490     18485     18488     18491     18489     18488     18490
     18489     18488     18491     18490     18488     18491     18488     18491     18492
     18488     18491     18493     18488     18491     18494     18492     18491     18493
     18492     18491     18494     18493     18491     18494     18491     18494     18495
     18491     18494     18496     18491     18494     18497     18495     18494     18496
     18495     18494     18497     18496     18494     18497     18494     18497     18498
     18494     18497     18499     18494     18497     18500     18498     18497     18499
     18498     18497     18500     18499     18497     18500     18497     18500     18501
     18497     18500     18502     18497     18500     18503     18501     18500     18502
     18501     18500     18503     18502     18500     18503     18500     18503     18504
     18500     18503     18505     18504     18503     18505     18503     18505     18506
     18503     18505     18507     18506     18505     18507     18505     18507     18508
     18505     18507     18509     18505     18507     18510     18508     18507     18509
     18508     18507     18510     18509     18507     18510     18507     18510     18511
     18507     18510     18512     18507     18510     18513     18511     18510     18512
     18511     18510     18513     18512     18510     18513     18510     18513     18514
     18510     18513     18515     18510     18513     18516     18514     18513     18515
     18514     18513     18516     18515     18513     18516     18513     18516     18517
     18513     18516     18518     18513     18516     18519     18517     18516     18518
     18517     18516     18519     18518     18516     18519     18516     18519     18520
     18516     18519     18521     18516     18519     18522     18520     18519     18521
     18520     18519     18522     18521     18519     18522     18519     18522     18523
     18519     18522     18524     18519     18522     18525     18523     18522     18524
     18523     18522     18525     18524     18522     18525     18522     18525     18526
     18522     18525     18527     18522     18525     18528     18526     18525     18527
     18526     18525     18528     18527     18525     18528     18525     18528     18529
     18525     18528     18530     18525     18528     18531     18529     18528     18530
     18529     18528     18531     18530     18528     18531     18482     18532     18533
     18482     18532     18534     18482     18532     18535     18533     18532     18534
     18533     18532     18535     18534     18532     18535     18532     18535     18536
     18532     18535     18537     18532     18535     18538     18536     18535     18537
     18536     18535     18538     18537     18535     18538     18535     18538     18539
     18535     18538     18540     18535     18538     18541     18539     18538     18540
     18539     18538     18541     18540     18538     18541     18538     18541     18542
     18538     18541     18543     18538     18541     18544     18542     18541     18543
     18542     18541     18544     18543     18541     18544     18541     18544     18545
     18541     18544     18546     18541     18544     18547     18545     18544     18546
     18545     18544     18547     18546     18544     18547     18544     18547     18548
     18544     18547     18549     18544     18547     18550     18548     18547     18549
     18548     18547     18550     18549     18547     18550     18547     18550     18551
     18547     18550     18552     18551     18550     18552     18550     18552     18553
     18550     18552     18554     18553     18552     18554     18552     18554     18555
     18552     18554     18556     18552     18554     18557     18555     18554     18556
     18555     18554     18557     18556     18554     18557     18554     18557     18558
     18554     18557     18559     18554     18557     18560     18558     18557     18559
     18558     18557     18560     18559     18557     18560     18557     18560     18561
     18557     18560     18562     18557     18560     18563     18561     18560     18562
     18561     18560     18563     18562     18560     18563     18560     18563     18564
     18560     18563     18565     18560     18563     18566     18564     18563     18565
     18564     18563     18566     18565     18563     18566     18563     18566     18567
     18563     18566     18568     18563     18566     18569     18567     18566     18568
     18567     18566     18569     18568     18566     18569     18566     18569     18570
     18566     18569     18571     18566     18569     18572     18570     18569     18571
     18570     18569     18572     18571     18569     18572     18569     18572     18573
     18569     18572     18574     18569     18572     18575     18573     18572     18574
     18573     18572     18575     18574     18572     18575     18572     18575     18576
     18572     18575     18577     18572     18575     18578     18576     18575     18577
     18576     18575     18578     18577     18575     18578     18580     18579     18583
     18580     18579     18587     18580     18579     18591     18583     18579     18587
     18583     18579     18591     18587     18579     18591     18579     18580     18581
     18579     18580     18582     18579     18580     18595     18581     18580     18582
     18581     18580     18595     18582     18580     18595     18579     18583     18584
     18579     18583     18585     18579     18583     18586     18584     18583     18585
     18584     18583     18586     18585     18583     18586     18579     18587     18588
     18579     18587     18589     18579     18587     18590     18588     18587     18589
     18588     18587     18590     18589     18587     18590     18579     18591     18592
     18579     18591     18593     18579     18591     18594     18592     18591     18593
     18592     18591     18594     18593     18591     18594     18580     18595     18596
     18580     18595     18597     18580     18595     18601     18596     18595     18597
     18596     18595     18601     18597     18595     18601     18599     18598     18600
     18599     18598     18601     18599     18598     18602     18600     18598     18601
     18600     18598     18602     18601     18598     18602     18595     18601     18598
     18598     18602     18603     18602     18603     18604     18602     18603     18605
     18602     18603     18606     18604     18603     18605     18604     18603     18606
     18605     18603     18606     18603     18606     18607     18603     18606     18608
     18603     18606     18614     18607     18606     18608     18607     18606     18614
     18608     18606     18614     18606     18608     18609     18608     18609     18610
     18608     18609     18611     18610     18609     18611     18609     18611     18612
     18609     18611     18613     18609     18611     18623     18612     18611     18613
     18612     18611     18623     18613     18611     18623     18606     18614     18615
     18606     18614     18616     18606     18614     18617     18615     18614     18616
     18615     18614     18617     18616     18614     18617     18614     18617     18618
     18617     18618     18619     18617     18618     18620     18619     18618     18620
     18618     18620     18621     18618     18620     18622     18618     18620     18670
     18621     18620     18622     18621     18620     18670     18622     18620     18670
     18611     18623     18624     18611     18623     18625     18611     18623     18626
     18624     18623     18625     18624     18623     18626     18625     18623     18626
     18623     18626     18627     18623     18626     18628     18623     18626     18629
     18627     18626     18628     18627     18626     18629     18628     18626     18629
     18626     18629     18630     18626     18629     18631     18626     18629     18632
     18630     18629     18631     18630     18629     18632     18631     18629     18632
     18629     18632     18633     18629     18632     18634     18629     18632     18635
     18633     18632     18634     18633     18632     18635     18634     18632     18635
     18632     18635     18636     18632     18635     18637     18632     18635     18638
     18636     18635     18637     18636     18635     18638     18637     18635     18638
     18635     18638     18639     18635     18638     18640     18635     18638     18641
     18639     18638     18640     18639     18638     18641     18640     18638     18641
     18638     18641     18642     18638     18641     18643     18642     18641     18643
     18641     18643     18644     18641     18643     18645     18644     18643     18645
     18643     18645     18646     18643     18645     18647     18643     18645     18648
     18646     18645     18647     18646     18645     18648     18647     18645     18648
     18645     18648     18649     18645     18648     18650     18645     18648     18651
     18649     18648     18650     18649     18648     18651     18650     18648     18651
     18648     18651     18652     18648     18651     18653     18648     18651     18654
     18652     18651     18653     18652     18651     18654     18653     18651     18654
     18651     18654     18655     18651     18654     18656     18651     18654     18657
     18655     18654     18656     18655     18654     18657     18656     18654     18657
     18654     18657     18658     18654     18657     18659     18654     18657     18660
     18658     18657     18659     18658     18657     18660     18659     18657     18660
     18657     18660     18661     18657     18660     18662     18657     18660     18663
     18661     18660     18662     18661     18660     18663     18662     18660     18663
     18660     18663     18664     18660     18663     18665     18660     18663     18666
     18664     18663     18665     18664     18663     18666     18665     18663     18666
     18663     18666     18667     18663     18666     18668     18663     18666     18669
     18667     18666     18668     18667     18666     18669     18668     18666     18669
     18620     18670     18671     18620     18670     18672     18620     18670     18673
     18671     18670     18672     18671     18670     18673     18672     18670     18673
     18670     18673     18674     18670     18673     18675     18670     18673     18676
     18674     18673     18675     18674     18673     18676     18675     18673     18676
     18673     18676     18677     18673     18676     18678     18673     18676     18679
     18677     18676     18678     18677     18676     18679     18678     18676     18679
     18676     18679     18680     18676     18679     18681     18676     18679     18682
     18680     18679     18681     18680     18679     18682     18681     18679     18682
     18679     18682     18683     18679     18682     18684     18679     18682     18685
     18683     18682     18684     18683     18682     18685     18684     18682     18685
     18682     18685     18686     18682     18685     18687     18682     18685     18688
     18686     18685     18687     18686     18685     18688     18687     18685     18688
     18685     18688     18689     18685     18688     18690     18689     18688     18690
     18688     18690     18691     18688     18690     18692     18691     18690     18692
     18690     18692     18693     18690     18692     18694     18690     18692     18695
     18693     18692     18694     18693     18692     18695     18694     18692     18695
     18692     18695     18696     18692     18695     18697     18692     18695     18698
     18696     18695     18697     18696     18695     18698     18697     18695     18698
     18695     18698     18699     18695     18698     18700     18695     18698     18701
     18699     18698     18700     18699     18698     18701     18700     18698     18701
     18698     18701     18702     18698     18701     18703     18698     18701     18704
     18702     18701     18703     18702     18701     18704     18703     18701     18704
     18701     18704     18705     18701     18704     18706     18701     18704     18707
     18705     18704     18706     18705     18704     18707     18706     18704     18707
     18704     18707     18708     18704     18707     18709     18704     18707     18710
     18708     18707     18709     18708     18707     18710     18709     18707     18710
     18707     18710     18711     18707     18710     18712     18707     18710     18713
     18711     18710     18712     18711     18710     18713     18712     18710     18713
     18710     18713     18714     18710     18713     18715     18710     18713     18716
     18714     18713     18715     18714     18713     18716     18715     18713     18716
     18718     18717     18719     18721     18720     18722     18724     18723     18725
     18727     18726     18728     18730     18729     18731     18733     18732     18734
     18736     18735     18737     18739     18738     18740     18742     18741     18743
     18745     18744     18746     18748     18747     18749     18751     18750     18752
     18754     18753     18755     18757     18756     18758     18760     18759     18761
     18763     18762     18764     18766     18765     18767     18769     18768     18770
     18772     18771     18773     18775     18774     18776     18778     18777     18779
     18781     18780     18782     18784     18783     18785     18787     18786     18788
     18790     18789     18791     18793     18792     18794     18796     18795     18797
     18799     18798     18800     18802     18801     18803     18805     18804     18806
     18808     18807     18809     18811     18810     18812     18814     18813     18815
     18817     18816     18818     18820     18819     18821     18823     18822     18824
     18826     18825     18827     18829     18828     18830     18832     18831     18833
     18835     18834     18836     18838     18837     18839     18841     18840     18842
     18844     18843     18845     18847     18846     18848     18850     18849     18851
     18853     18852     18854     18856     18855     18857     18859     18858     18860
     18862     18861     18863     18865     18864     18866     18868     18867     18869
     18871     18870     18872     18874     18873     18875     18877     18876     18878
     18880     18879     18881     18883     18882     18884     18886     18885     18887
     18889     18888     18890     18892     18891     18893     18895     18894     18896
     18898     18897     18899     18901     18900     18902     18904     18903     18905
     18907     18906     18908     18910     18909     18911     18913     18912     18914
     18916     18915     18917     18919     18918     18920     18922     18921     18923
     18925     18924     18926     18928     18927     18929     18931     18930     18932
     18934     18933     18935     18937     18936     18938     18940     18939     18941
     18943     18942     18944     18946     18945     18947     18949     18948     18950
     18952     18951     18953     18955     18954     18956     18958     18957     18959
     18961     18960     18962     18964     18963     18965     18967     18966     18968
     18970     18969     18971     18973     18972     18974     18976     18975     18977
     18979     18978     18980     18982     18981     18983     18985     18984     18986
     18988     18987     18989     18991     18990     18992     18994     18993     18995
     18997     18996     18998     19000     18999     19001     19003     19002     19004
     19006     19005     19007     19009     19008     19010     19012     19011     19013
     19015     19014     19016     19018     19017     19019     19021     19020     19022
     19024     19023     19025     19027     19026     19028     19030     19029     19031
     19033     19032     19034     19036     19035     19037     19039     19038     19040
     19042     19041     19043     19045     19044     19046     19048     19047     19049
     19051     19050     19052     19054     19053     19055     19057     19056     19058
     19060     19059     19061     19063     19062     19064     19066     19065     19067
     19069     19068     19070     19072     19071     19073     19075     19074     19076
     19078     19077     19079     19081     19080     19082     19084     19083     19085
     19087     19086     19088     19090     19089     19091     19093     19092     19094
     19096     19095     19097     19099     19098     19100     19102     19101     19103
     19105     19104     19106     19108     19107     19109     19111     19110     19112
     19114     19113     19115     19117     19116     19118     19120     19119     19121
     19123     19122     19124     19126     19125     19127     19129     19128     19130
     19132     19131     19133     19135     19134     19136     19138     19137     19139
     19141     19140     19142     19144     19143     19145     19147     19146     19148
     19150     19149     19151     19153     19152     19154     19156     19155     19157
     19159     19158     19160     19162     19161     19163     19165     19164     19166
     19168     19167     19169     19171     19170     19172     19174     19173     19175
     19177     19176     19178     19180     19179     19181     19183     19182     19184
     19186     19185     19187     19189     19188     19190     19192     19191     19193
     19195     19194     19196     19198     19197     19199     19201     19200     19202
     19204     19203     19205     19207     19206     19208     19210     19209     19211
     19213     19212     19214     19216     19215     19217     19219     19218     19220
     19222     19221     19223     19225     19224     19226     19228     19227     19229
     19231     19230     19232     19234     19233     19235     19237     19236     19238
     19240     19239     19241     19243     19242     19244     19246     19245     19247
     19249     19248     19250     19252     19251     19253     19255     19254     19256
     19258     19257     19259     19261     19260     19262     19264     19263     19265
     19267     19266     19268     19270     19269     19271     19273     19272     19274
     19276     19275     19277     19279     19278     19280     19282     19281     19283
     19285     19284     19286     19288     19287     19289     19291     19290     19292
     19294     19293     19295     19297     19296     19298     19300     19299     19301
     19303     19302     19304     19306     19305     19307     19309     19308     19310
     19312     19311     19313     19315     19314     19316     19318     19317     19319
     19321     19320     19322     19324     19323     19325     19327     19326     19328
     19330     19329     19331     19333     19332     19334     19336     19335     19337
     19339     19338     19340     19342     19341     19343     19345     19344     19346
     19348     19347     19349     19351     19350     19352     19354     19353     19355
     19357     19356     19358     19360     19359     19361     19363     19362     19364
     19366     19365     19367     19369     19368     19370     19372     19371     19373
     19375     19374     19376     19378     19377     19379     19381     19380     19382
     19384     19383     19385     19387     19386     19388     19390     19389     19391
     19393     19392     19394     19396     19395     19397     19399     19398     19400
     19402     19401     19403     19405     19404     19406     19408     19407     19409
     19411     19410     19412     19414     19413     19415     19417     19416     19418
     19420     19419     19421     19423     19422     19424     19426     19425     19427
     19429     19428     19430     19432     19431     19433     19435     19434     19436
     19438     19437     19439     19441     19440     19442     19444     19443     19445
     19447     19446     19448     19450     19449     19451     19453     19452     19454
     19456     19455     19457     19459     19458     19460     19462     19461     19463
     19465     19464     19466     19468     19467     19469     19471     19470     19472
     19474     19473     19475     19477     19476     19478     19480     19479     19481
     19483     19482     19484     19486     19485     19487     19489     19488     19490
     19492     19491     19493     19495     19494     19496     19498     19497     19499
     19501     19500     19502     19504     19503     19505     19507     19506     19508
     19510     19509     19511     19513     19512     19514     19516     19515     19517
     19519     19518     19520     19522     19521     19523     19525     19524     19526
     19528     19527     19529     19531     19530     19532     19534     19533     19535
     19537     19536     19538     19540     19539     19541     19543     19542     19544
     19546     19545     19547     19549     19548     19550     19552     19551     19553
     19555     19554     19556     19558     19557     19559     19561     19560     19562
     19564     19563     19565     19567     19566     19568     19570     19569     19571
     19573     19572     19574     19576     19575     19577     19579     19578     19580
     19582     19581     19583     19585     19584     19586     19588     19587     19589
     19591     19590     19592     19594     19593     19595     19597     19596     19598
     19600     19599     19601     19603     19602     19604     19606     19605     19607
     19609     19608     19610     19612     19611     19613     19615     19614     19616
     19618     19617     19619     19621     19620     19622     19624     19623     19625
     19627     19626     19628     19630     19629     19631     19633     19632     19634
     19636     19635     19637     19639     19638     19640     19642     19641     19643
     19645     19644     19646     19648     19647     19649     19651     19650     19652
     19654     19653     19655     19657     19656     19658     19660     19659     19661
     19663     19662     19664     19666     19665     19667     19669     19668     19670
     19672     19671     19673     19675     19674     19676     19678     19677     19679
     19681     19680     19682     19684     19683     19685     19687     19686     19688
     19690     19689     19691     19693     19692     19694     19696     19695     19697
     19699     19698     19700     19702     19701     19703     19705     19704     19706
     19708     19707     19709     19711     19710     19712     19714     19713     19715
     19717     19716     19718     19720     19719     19721     19723     19722     19724
     19726     19725     19727     19729     19728     19730     19732     19731     19733
     19735     19734     19736     19738     19737     19739     19741     19740     19742
     19744     19743     19745     19747     19746     19748     19750     19749     19751
     19753     19752     19754     19756     19755     19757     19759     19758     19760
     19762     19761     19763     19765     19764     19766     19768     19767     19769
     19771     19770     19772     19774     19773     19775     19777     19776     19778
     19780     19779     19781     19783     19782     19784     19786     19785     19787
     19789     19788     19790     19792     19791     19793     19795     19794     19796
     19798     19797     19799     19801     19800     19802     19804     19803     19805
     19807     19806     19808     19810     19809     19811     19813     19812     19814
     19816     19815     19817     19819     19818     19820     19822     19821     19823
     19825     19824     19826     19828     19827     19829     19831     19830     19832
     19834     19833     19835     19837     19836     19838     19840     19839     19841
     19843     19842     19844     19846     19845     19847     19849     19848     19850
     19852     19851     19853     19855     19854     19856     19858     19857     19859
     19861     19860     19862     19864     19863     19865     19867     19866     19868
     19870     19869     19871     19873     19872     19874     19876     19875     19877
     19879     19878     19880     19882     19881     19883     19885     19884     19886
     19888     19887     19889     19891     19890     19892     19894     19893     19895
     19897     19896     19898     19900     19899     19901     19903     19902     19904
     19906     19905     19907     19909     19908     19910     19912     19911     19913
     19915     19914     19916     19918     19917     19919     19921     19920     19922
     19924     19923     19925     19927     19926     19928     19930     19929     19931
     19933     19932     19934     19936     19935     19937     19939     19938     19940
     19942     19941     19943     19945     19944     19946     19948     19947     19949
     19951     19950     19952     19954     19953     19955     19957     19956     19958
     19960     19959     19961     19963     19962     19964     19966     19965     19967
     19969     19968     19970     19972     19971     19973     19975     19974     19976
     19978     19977     19979     19981     19980     19982     19984     19983     19985
     19987     19986     19988     19990     19989     19991     19993     19992     19994
     19996     19995     19997     19999     19998     20000     20002     20001     20003
     20005     20004     20006     20008     20007     20009     20011     20010     20012
     20014     20013     20015     20017     20016     20018     20020     20019     20021
     20023     20022     20024     20026     20025     20027     20029     20028     20030
     20032     20031     20033     20035     20034     20036     20038     20037     20039
     20041     20040     20042     20044     20043     20045     20047     20046     20048
     20050     20049     20051     20053     20052     20054     20056     20055     20057
     20059     20058     20060     20062     20061     20063     20065     20064     20066
     20068     20067     20069     20071     20070     20072     20074     20073     20075
     20077     20076     20078     20080     20079     20081     20083     20082     20084
     20086     20085     20087     20089     20088     20090     20092     20091     20093
     20095     20094     20096     20098     20097     20099     20101     20100     20102
     20104     20103     20105     20107     20106     20108     20110     20109     20111
     20113     20112     20114     20116     20115     20117     20119     20118     20120
     20122     20121     20123     20125     20124     20126     20128     20127     20129
     20131     20130     20132     20134     20133     20135     20137     20136     20138
     20140     20139     20141     20143     20142     20144     20146     20145     20147
     20149     20148     20150     20152     20151     20153     20155     20154     20156
     20158     20157     20159     20161     20160     20162     20164     20163     20165
     20167     20166     20168     20170     20169     20171     20173     20172     20174
     20176     20175     20177     20179     20178     20180     20182     20181     20183
     20185     20184     20186     20188     20187     20189     20191     20190     20192
     20194     20193     20195     20197     20196     20198     20200     20199     20201
     20203     20202     20204     20206     20205     20207     20209     20208     20210
     20212     20211     20213     20215     20214     20216     20218     20217     20219
     20221     20220     20222     20224     20223     20225     20227     20226     20228
     20230     20229     20231     20233     20232     20234     20236     20235     20237
     20239     20238     20240     20242     20241     20243     20245     20244     20246
     20248     20247     20249     20251     20250     20252     20254     20253     20255
     20257     20256     20258     20260     20259     20261     20263     20262     20264
     20266     20265     20267     20269     20268     20270     20272     20271     20273
     20275     20274     20276     20278     20277     20279     20281     20280     20282
     20284     20283     20285     20287     20286     20288     20290     20289     20291
     20293     20292     20294     20296     20295     20297     20299     20298     20300
     20302     20301     20303     20305     20304     20306     20308     20307     20309
     20311     20310     20312     20314     20313     20315     20317     20316     20318
     20320     20319     20321     20323     20322     20324     20326     20325     20327
     20329     20328     20330     20332     20331     20333     20335     20334     20336
     20338     20337     20339     20341     20340     20342     20344     20343     20345
     20347     20346     20348     20350     20349     20351     20353     20352     20354
     20356     20355     20357     20359     20358     20360     20362     20361     20363
     20365     20364     20366     20368     20367     20369     20371     20370     20372
     20374     20373     20375     20377     20376     20378     20380     20379     20381
     20383     20382     20384     20386     20385     20387     20389     20388     20390
     20392     20391     20393     20395     20394     20396     20398     20397     20399
     20401     20400     20402     20404     20403     20405     20407     20406     20408
     20410     20409     20411     20413     20412     20414     20416     20415     20417
     20419     20418     20420     20422     20421     20423     20425     20424     20426
     20428     20427     20429     20431     20430     20432     20434     20433     20435
     20437     20436     20438     20440     20439     20441     20443     20442     20444
     20446     20445     20447     20449     20448     20450     20452     20451     20453
     20455     20454     20456     20458     20457     20459     20461     20460     20462
     20464     20463     20465     20467     20466     20468     20470     20469     20471
     20473     20472     20474     20476     20475     20477     20479     20478     20480
     20482     20481     20483     20485     20484     20486     20488     20487     20489
     20491     20490     20492     20494     20493     20495     20497     20496     20498
     20500     20499     20501     20503     20502     20504     20506     20505     20507
     20509     20508     20510     20512     20511     20513     20515     20514     20516
     20518     20517     20519     20521     20520     20522     20524     20523     20525
     20527     20526     20528     20530     20529     20531     20533     20532     20534
     20536     20535     20537     20539     20538     20540     20542     20541     20543
     20545     20544     20546     20548     20547     20549     20551     20550     20552
     20554     20553     20555     20557     20556     20558     20560     20559     20561
     20563     20562     20564     20566     20565     20567     20569     20568     20570
     20572     20571     20573     20575     20574     20576     20578     20577     20579
     20581     20580     20582     20584     20583     20585     20587     20586     20588
     20590     20589     20591     20593     20592     20594     20596     20595     20597
     20599     20598     20600     20602     20601     20603     20605     20604     20606
     20608     20607     20609     20611     20610     20612     20614     20613     20615
     20617     20616     20618     20620     20619     20621     20623     20622     20624
     20626     20625     20627     20629     20628     20630     20632     20631     20633
     20635     20634     20636     20638     20637     20639     20641     20640     20642
     20644     20643     20645     20647     20646     20648     20650     20649     20651
     20653     20652     20654     20656     20655     20657     20659     20658     20660
     20662     20661     20663     20665     20664     20666     20668     20667     20669
     20671     20670     20672     20674     20673     20675     20677     20676     20678
     20680     20679     20681     20683     20682     20684     20686     20685     20687
     20689     20688     20690     20692     20691     20693     20695     20694     20696
     20698     20697     20699     20701     20700     20702     20704     20703     20705
     20707     20706     20708     20710     20709     20711     20713     20712     20714
     20716     20715     20717     20719     20718     20720     20722     20721     20723
     20725     20724     20726     20728     20727     20729     20731     20730     20732
     20734     20733     20735     20737     20736     20738     20740     20739     20741
     20743     20742     20744     20746     20745     20747     20749     20748     20750
     20752     20751     20753     20755     20754     20756     20758     20757     20759
     20761     20760     20762     20764     20763     20765     20767     20766     20768
     20770     20769     20771     20773     20772     20774     20776     20775     20777
     20779     20778     20780     20782     20781     20783     20785     20784     20786
     20788     20787     20789     20791     20790     20792     20794     20793     20795
     20797     20796     20798     20800     20799     20801     20803     20802     20804
     20806     20805     20807     20809     20808     20810     20812     20811     20813
     20815     20814     20816     20818     20817     20819     20821     20820     20822
     20824     20823     20825     20827     20826     20828     20830     20829     20831
     20833     20832     20834     20836     20835     20837     20839     20838     20840
     20842     20841     20843     20845     20844     20846     20848     20847     20849
     20851     20850     20852     20854     20853     20855     20857     20856     20858
     20860     20859     20861     20863     20862     20864     20866     20865     20867
     20869     20868     20870     20872     20871     20873     20875     20874     20876
     20878     20877     20879     20881     20880     20882     20884     20883     20885
     20887     20886     20888     20890     20889     20891     20893     20892     20894
     20896     20895     20897     20899     20898     20900     20902     20901     20903
     20905     20904     20906     20908     20907     20909     20911     20910     20912
     20914     20913     20915     20917     20916     20918     20920     20919     20921
     20923     20922     20924     20926     20925     20927     20929     20928     20930
     20932     20931     20933     20935     20934     20936     20938     20937     20939
     20941     20940     20942     20944     20943     20945     20947     20946     20948
     20950     20949     20951     20953     20952     20954     20956     20955     20957
     20959     20958     20960     20962     20961     20963     20965     20964     20966
     20968     20967     20969     20971     20970     20972     20974     20973     20975
     20977     20976     20978     20980     20979     20981     20983     20982     20984
     20986     20985     20987     20989     20988     20990     20992     20991     20993
     20995     20994     20996     20998     20997     20999     21001     21000     21002
     21004     21003     21005     21007     21006     21008     21010     21009     21011
     21013     21012     21014     21016     21015     21017     21019     21018     21020
     21022     21021     21023     21025     21024     21026     21028     21027     21029
     21031     21030     21032     21034     21033     21035     21037     21036     21038
     21040     21039     21041     21043     21042     21044     21046     21045     21047
     21049     21048     21050     21052     21051     21053     21055     21054     21056
     21058     21057     21059     21061     21060     21062     21064     21063     21065
     21067     21066     21068     21070     21069     21071     21073     21072     21074
     21076     21075     21077     21079     21078     21080     21082     21081     21083
     21085     21084     21086     21088     21087     21089     21091     21090     21092
     21094     21093     21095     21097     21096     21098     21100     21099     21101
     21103     21102     21104     21106     21105     21107     21109     21108     21110
     21112     21111     21113     21115     21114     21116     21118     21117     21119
     21121     21120     21122     21124     21123     21125     21127     21126     21128
     21130     21129     21131     21133     21132     21134     21136     21135     21137
     21139     21138     21140     21142     21141     21143     21145     21144     21146
     21148     21147     21149     21151     21150     21152     21154     21153     21155
     21157     21156     21158     21160     21159     21161     21163     21162     21164
     21166     21165     21167     21169     21168     21170     21172     21171     21173
     21175     21174     21176     21178     21177     21179     21181     21180     21182
     21184     21183     21185     21187     21186     21188     21190     21189     21191
     21193     21192     21194     21196     21195     21197     21199     21198     21200
     21202     21201     21203     21205     21204     21206     21208     21207     21209
     21211     21210     21212     21214     21213     21215     21217     21216     21218
     21220     21219     21221     21223     21222     21224     21226     21225     21227
     21229     21228     21230     21232     21231     21233     21235     21234     21236
     21238     21237     21239     21241     21240     21242     21244     21243     21245
     21247     21246     21248     21250     21249     21251     21253     21252     21254
     21256     21255     21257     21259     21258     21260     21262     21261     21263
     21265     21264     21266     21268     21267     21269     21271     21270     21272
     21274     21273     21275     21277     21276     21278     21280     21279     21281
     21283     21282     21284     21286     21285     21287     21289     21288     21290
     21292     21291     21293     21295     21294     21296     21298     21297     21299
     21301     21300     21302     21304     21303     21305     21307     21306     21308
     21310     21309     21311     21313     21312     21314     21316     21315     21317
     21319     21318     21320     21322     21321     21323     21325     21324     21326
     21328     21327     21329     21331     21330     21332     21334     21333     21335
     21337     21336     21338     21340     21339     21341     21343     21342     21344
     21346     21345     21347     21349     21348     21350     21352     21351     21353
     21355     21354     21356     21358     21357     21359     21361     21360     21362
     21364     21363     21365     21367     21366     21368     21370     21369     21371
     21373     21372     21374     21376     21375     21377     21379     21378     21380
     21382     21381     21383     21385     21384     21386     21388     21387     21389
     21391     21390     21392     21394     21393     21395     21397     21396     21398
     21400     21399     21401     21403     21402     21404     21406     21405     21407
     21409     21408     21410     21412     21411     21413     21415     21414     21416
     21418     21417     21419     21421     21420     21422     21424     21423     21425
     21427     21426     21428     21430     21429     21431     21433     21432     21434
     21436     21435     21437     21439     21438     21440     21442     21441     21443
     21445     21444     21446     21448     21447     21449     21451     21450     21452
     21454     21453     21455     21457     21456     21458     21460     21459     21461
     21463     21462     21464     21466     21465     21467     21469     21468     21470
     21472     21471     21473     21475     21474     21476     21478     21477     21479
     21481     21480     21482     21484     21483     21485     21487     21486     21488
     21490     21489     21491     21493     21492     21494     21496     21495     21497
     21499     21498     21500     21502     21501     21503     21505     21504     21506
     21508     21507     21509     21511     21510     21512     21514     21513     21515
     21517     21516     21518     21520     21519     21521     21523     21522     21524
     21526     21525     21527     21529     21528     21530     21532     21531     21533
     21535     21534     21536     21538     21537     21539     21541     21540     21542
     21544     21543     21545     21547     21546     21548     21550     21549     21551
     21553     21552     21554     21556     21555     21557     21559     21558     21560
     21562     21561     21563     21565     21564     21566     21568     21567     21569
     21571     21570     21572     21574     21573     21575     21577     21576     21578
     21580     21579     21581     21583     21582     21584     21586     21585     21587
     21589     21588     21590     21592     21591     21593     21595     21594     21596
     21598     21597     21599     21601     21600     21602     21604     21603     21605
     21607     21606     21608     21610     21609     21611     21613     21612     21614
     21616     21615     21617     21619     21618     21620     21622     21621     21623
     21625     21624     21626     21628     21627     21629     21631     21630     21632
     21634     21633     21635     21637     21636     21638     21640     21639     21641
     21643     21642     21644     21646     21645     21647     21649     21648     21650
     21652     21651     21653     21655     21654     21656     21658     21657     21659
     21661     21660     21662     21664     21663     21665     21667     21666     21668
     21670     21669     21671     21673     21672     21674     21676     21675     21677
     21679     21678     21680     21682     21681     21683     21685     21684     21686
     21688     21687     21689     21691     21690     21692     21694     21693     21695
     21697     21696     21698     21700     21699     21701     21703     21702     21704
     21706     21705     21707     21709     21708     21710     21712     21711     21713
     21715     21714     21716     21718     21717     21719     21721     21720     21722
     21724     21723     21725     21727     21726     21728     21730     21729     21731
     21733     21732     21734     21736     21735     21737     21739     21738     21740
     21742     21741     21743     21745     21744     21746     21748     21747     21749
     21751     21750     21752     21754     21753     21755     21757     21756     21758
     21760     21759     21761     21763     21762     21764     21766     21765     21767
     21769     21768     21770     21772     21771     21773     21775     21774     21776
     21778     21777     21779     21781     21780     21782     21784     21783     21785
     21787     21786     21788     21790     21789     21791     21793     21792     21794
     21796     21795     21797     21799     21798     21800     21802     21801     21803
     21805     21804     21806     21808     21807     21809     21811     21810     21812
     21814     21813     21815     21817     21816     21818     21820     21819     21821
     21823     21822     21824     21826     21825     21827     21829     21828     21830
     21832     21831     21833     21835     21834     21836     21838     21837     21839
     21841     21840     21842     21844     21843     21845     21847     21846     21848
     21850     21849     21851     21853     21852     21854     21856     21855     21857
     21859     21858     21860     21862     21861     21863     21865     21864     21866
     21868     21867     21869     21871     21870     21872     21874     21873     21875
     21877     21876     21878     21880     21879     21881     21883     21882     21884
     21886     21885     21887     21889     21888     21890     21892     21891     21893
     21895     21894     21896     21898     21897     21899     21901     21900     21902
     21904     21903     21905     21907     21906     21908     21910     21909     21911
     21913     21912     21914     21916     21915     21917     21919     21918     21920
     21922     21921     21923     21925     21924     21926     21928     21927     21929
     21931     21930     21932     21934     21933     21935     21937     21936     21938
     21940     21939     21941     21943     21942     21944     21946     21945     21947
     21949     21948     21950     21952     21951     21953     21955     21954     21956
     21958     21957     21959     21961     21960     21962     21964     21963     21965
     21967     21966     21968     21970     21969     21971     21973     21972     21974
     21976     21975     21977     21979     21978     21980     21982     21981     21983
     21985     21984     21986     21988     21987     21989     21991     21990     21992
     21994     21993     21995     21997     21996     21998     22000     21999     22001
     22003     22002     22004     22006     22005     22007     22009     22008     22010
     22012     22011     22013     22015     22014     22016     22018     22017     22019
     22021     22020     22022     22024     22023     22025     22027     22026     22028
     22030     22029     22031     22033     22032     22034     22036     22035     22037
     22039     22038     22040     22042     22041     22043     22045     22044     22046
     22048     22047     22049     22051     22050     22052     22054     22053     22055
     22057     22056     22058     22060     22059     22061     22063     22062     22064
     22066     22065     22067     22069     22068     22070     22072     22071     22073
     22075     22074     22076     22078     22077     22079     22081     22080     22082
     22084     22083     22085     22087     22086     22088     22090     22089     22091
     22093     22092     22094     22096     22095     22097     22099     22098     22100
     22102     22101     22103     22105     22104     22106     22108     22107     22109
     22111     22110     22112     22114     22113     22115     22117     22116     22118
     22120     22119     22121     22123     22122     22124     22126     22125     22127
     22129     22128     22130     22132     22131     22133     22135     22134     22136
     22138     22137     22139     22141     22140     22142     22144     22143     22145
     22147     22146     22148     22150     22149     22151     22153     22152     22154
     22156     22155     22157     22159     22158     22160     22162     22161     22163
     22165     22164     22166     22168     22167     22169     22171     22170     22172
     22174     22173     22175     22177     22176     22178     22180     22179     22181
     22183     22182     22184     22186     22185     22187     22189     22188     22190
     22192     22191     22193     22195     22194     22196     22198     22197     22199
     22201     22200     22202     22204     22203     22205     22207     22206     22208
     22210     22209     22211     22213     22212     22214     22216     22215     22217
     22219     22218     22220     22222     22221     22223     22225     22224     22226
     22228     22227     22229     22231     22230     22232     22234     22233     22235
     22237     22236     22238     22240     22239     22241     22243     22242     22244
     22246     22245     22247     22249     22248     22250     22252     22251     22253
     22255     22254     22256     22258     22257     22259     22261     22260     22262
     22264     22263     22265     22267     22266     22268     22270     22269     22271
     22273     22272     22274     22276     22275     22277     22279     22278     22280
     22282     22281     22283     22285     22284     22286     22288     22287     22289
     22291     22290     22292     22294     22293     22295     22297     22296     22298
     22300     22299     22301     22303     22302     22304     22306     22305     22307
     22309     22308     22310     22312     22311     22313     22315     22314     22316
     22318     22317     22319     22321     22320     22322     22324     22323     22325
     22327     22326     22328     22330     22329     22331     22333     22332     22334
     22336     22335     22337     22339     22338     22340     22342     22341     22343
     22345     22344     22346     22348     22347     22349     22351     22350     22352
     22354     22353     22355     22357     22356     22358     22360     22359     22361
     22363     22362     22364     22366     22365     22367     22369     22368     22370
     22372     22371     22373     22375     22374     22376     22378     22377     22379
     22381     22380     22382     22384     22383     22385     22387     22386     22388
     22390     22389     22391     22393     22392     22394     22396     22395     22397
     22399     22398     22400     22402     22401     22403     22405     22404     22406
     22408     22407     22409     22411     22410     22412     22414     22413     22415
     22417     22416     22418     22420     22419     22421     22423     22422     22424
     22426     22425     22427     22429     22428     22430     22432     22431     22433
     22435     22434     22436     22438     22437     22439     22441     22440     22442
     22444     22443     22445     22447     22446     22448     22450     22449     22451
     22453     22452     22454     22456     22455     22457     22459     22458     22460
     22462     22461     22463     22465     22464     22466     22468     22467     22469
     22471     22470     22472     22474     22473     22475     22477     22476     22478
     22480     22479     22481     22483     22482     22484     22486     22485     22487
     22489     22488     22490     22492     22491     22493     22495     22494     22496
     22498     22497     22499     22501     22500     22502     22504     22503     22505
     22507     22506     22508     22510     22509     22511     22513     22512     22514
     22516     22515     22517     22519     22518     22520     22522     22521     22523
     22525     22524     22526     22528     22527     22529     22531     22530     22532
     22534     22533     22535     22537     22536     22538     22540     22539     22541
     22543     22542     22544     22546     22545     22547     22549     22548     22550
     22552     22551     22553     22555     22554     22556     22558     22557     22559
     22561     22560     22562     22564     22563     22565     22567     22566     22568
     22570     22569     22571     22573     22572     22574     22576     22575     22577
     22579     22578     22580     22582     22581     22583     22585     22584     22586
     22588     22587     22589     22591     22590     22592     22594     22593     22595
     22597     22596     22598     22600     22599     22601     22603     22602     22604
     22606     22605     22607     22609     22608     22610     22612     22611     22613
     22615     22614     22616     22618     22617     22619     22621     22620     22622
     22624     22623     22625     22627     22626     22628     22630     22629     22631
     22633     22632     22634     22636     22635     22637     22639     22638     22640
     22642     22641     22643     22645     22644     22646     22648     22647     22649
     22651     22650     22652     22654     22653     22655     22657     22656     22658
     22660     22659     22661     22663     22662     22664     22666     22665     22667
     22669     22668     22670     22672     22671     22673     22675     22674     22676
     22678     22677     22679     22681     22680     22682     22684     22683     22685
     22687     22686     22688     22690     22689     22691     22693     22692     22694
     22696     22695     22697     22699     22698     22700     22702     22701     22703
     22705     22704     22706     22708     22707     22709     22711     22710     22712
     22714     22713     22715     22717     22716     22718     22720     22719     22721
     22723     22722     22724     22726     22725     22727     22729     22728     22730
     22732     22731     22733     22735     22734     22736     22738     22737     22739
     22741     22740     22742     22744     22743     22745     22747     22746     22748
     22750     22749     22751     22753     22752     22754     22756     22755     22757
     22759     22758     22760     22762     22761     22763     22765     22764     22766
     22768     22767     22769     22771     22770     22772     22774     22773     22775
     22777     22776     22778     22780     22779     22781     22783     22782     22784
     22786     22785     22787     22789     22788     22790     22792     22791     22793
     22795     22794     22796     22798     22797     22799     22801     22800     22802
     22804     22803     22805     22807     22806     22808     22810     22809     22811
     22813     22812     22814     22816     22815     22817     22819     22818     22820
     22822     22821     22823     22825     22824     22826     22828     22827     22829
     22831     22830     22832     22834     22833     22835     22837     22836     22838
     22840     22839     22841     22843     22842     22844     22846     22845     22847
     22849     22848     22850     22852     22851     22853     22855     22854     22856
     22858     22857     22859     22861     22860     22862     22864     22863     22865
     22867     22866     22868     22870     22869     22871     22873     22872     22874
     22876     22875     22877     22879     22878     22880     22882     22881     22883
     22885     22884     22886     22888     22887     22889     22891     22890     22892
     22894     22893     22895     22897     22896     22898     22900     22899     22901
     22903     22902     22904     22906     22905     22907     22909     22908     22910
     22912     22911     22913     22915     22914     22916     22918     22917     22919
     22921     22920     22922     22924     22923     22925     22927     22926     22928
     22930     22929     22931     22933     22932     22934     22936     22935     22937
     22939     22938     22940     22942     22941     22943     22945     22944     22946
     22948     22947     22949     22951     22950     22952     22954     22953     22955
     22957     22956     22958     22960     22959     22961     22963     22962     22964
     22966     22965     22967     22969     22968     22970     22972     22971     22973
     22975     22974     22976     22978     22977     22979     22981     22980     22982
     22984     22983     22985     22987     22986     22988     22990     22989     22991
     22993     22992     22994     22996     22995     22997     22999     22998     23000
     23002     23001     23003     23005     23004     23006     23008     23007     23009
     23011     23010     23012     23014     23013     23015     23017     23016     23018
     23020     23019     23021     23023     23022     23024     23026     23025     23027
     23029     23028     23030     23032     23031     23033     23035     23034     23036
     23038     23037     23039     23041     23040     23042     23044     23043     23045
     23047     23046     23048     23050     23049     23051     23053     23052     23054
     23056     23055     23057     23059     23058     23060     23062     23061     23063
     23065     23064     23066     23068     23067     23069     23071     23070     23072
     23074     23073     23075     23077     23076     23078     23080     23079     23081
     23083     23082     23084     23086     23085     23087     23089     23088     23090
     23092     23091     23093     23095     23094     23096     23098     23097     23099
     23101     23100     23102     23104     23103     23105     23107     23106     23108
     23110     23109     23111     23113     23112     23114     23116     23115     23117
     23119     23118     23120     23122     23121     23123     23125     23124     23126
     23128     23127     23129     23131     23130     23132     23134     23133     23135
     23137     23136     23138     23140     23139     23141     23143     23142     23144
     23146     23145     23147     23149     23148     23150     23152     23151     23153
     23155     23154     23156     23158     23157     23159     23161     23160     23162
     23164     23163     23165     23167     23166     23168     23170     23169     23171
     23173     23172     23174     23176     23175     23177     23179     23178     23180
     23182     23181     23183     23185     23184     23186     23188     23187     23189
     23191     23190     23192     23194     23193     23195     23197     23196     23198
     23200     23199     23201     23203     23202     23204     23206     23205     23207
     23209     23208     23210     23212     23211     23213     23215     23214     23216
     23218     23217     23219     23221     23220     23222     23224     23223     23225
     23227     23226     23228     23230     23229     23231     23233     23232     23234
     23236     23235     23237     23239     23238     23240     23242     23241     23243
     23245     23244     23246     23248     23247     23249     23251     23250     23252
     23254     23253     23255     23257     23256     23258     23260     23259     23261
     23263     23262     23264     23266     23265     23267     23269     23268     23270
     23272     23271     23273     23275     23274     23276     23278     23277     23279
     23281     23280     23282     23284     23283     23285     23287     23286     23288
     23290     23289     23291     23293     23292     23294     23296     23295     23297
     23299     23298     23300     23302     23301     23303     23305     23304     23306
     23308     23307     23309     23311     23310     23312     23314     23313     23315
     23317     23316     23318     23320     23319     23321     23323     23322     23324
     23326     23325     23327     23329     23328     23330     23332     23331     23333
     23335     23334     23336     23338     23337     23339     23341     23340     23342
     23344     23343     23345     23347     23346     23348     23350     23349     23351
     23353     23352     23354     23356     23355     23357     23359     23358     23360
     23362     23361     23363     23365     23364     23366     23368     23367     23369
     23371     23370     23372     23374     23373     23375     23377     23376     23378
     23380     23379     23381     23383     23382     23384     23386     23385     23387
     23389     23388     23390     23392     23391     23393     23395     23394     23396
     23398     23397     23399     23401     23400     23402     23404     23403     23405
     23407     23406     23408     23410     23409     23411     23413     23412     23414
     23416     23415     23417     23419     23418     23420     23422     23421     23423
     23425     23424     23426     23428     23427     23429     23431     23430     23432
     23434     23433     23435     23437     23436     23438     23440     23439     23441
     23443     23442     23444     23446     23445     23447     23449     23448     23450
     23452     23451     23453     23455     23454     23456     23458     23457     23459
     23461     23460     23462     23464     23463     23465     23467     23466     23468
     23470     23469     23471     23473     23472     23474     23476     23475     23477
     23479     23478     23480     23482     23481     23483     23485     23484     23486
     23488     23487     23489     23491     23490     23492     23494     23493     23495
     23497     23496     23498     23500     23499     23501     23503     23502     23504
     23506     23505     23507     23509     23508     23510     23512     23511     23513
     23515     23514     23516     23518     23517     23519     23521     23520     23522
     23524     23523     23525     23527     23526     23528     23530     23529     23531
     23533     23532     23534     23536     23535     23537     23539     23538     23540
     23542     23541     23543     23545     23544     23546     23548     23547     23549
     23551     23550     23552     23554     23553     23555     23557     23556     23558
     23560     23559     23561     23563     23562     23564     23566     23565     23567
     23569     23568     23570     23572     23571     23573     23575     23574     23576
     23578     23577     23579     23581     23580     23582     23584     23583     23585
     23587     23586     23588     23590     23589     23591     23593     23592     23594
     23596     23595     23597     23599     23598     23600     23602     23601     23603
     23605     23604     23606     23608     23607     23609     23611     23610     23612
     23614     23613     23615     23617     23616     23618     23620     23619     23621
     23623     23622     23624     23626     23625     23627     23629     23628     23630
     23632     23631     23633     23635     23634     23636     23638     23637     23639
     23641     23640     23642     23644     23643     23645     23647     23646     23648
     23650     23649     23651     23653     23652     23654     23656     23655     23657
     23659     23658     23660     23662     23661     23663     23665     23664     23666
     23668     23667     23669     23671     23670     23672     23674     23673     23675
     23677     23676     23678     23680     23679     23681     23683     23682     23684
     23686     23685     23687     23689     23688     23690     23692     23691     23693
     23695     23694     23696     23698     23697     23699     23701     23700     23702
     23704     23703     23705     23707     23706     23708     23710     23709     23711
     23713     23712     23714     23716     23715     23717     23719     23718     23720
     23722     23721     23723     23725     23724     23726     23728     23727     23729
     23731     23730     23732     23734     23733     23735     23737     23736     23738
     23740     23739     23741     23743     23742     23744     23746     23745     23747
     23749     23748     23750     23752     23751     23753     23755     23754     23756
     23758     23757     23759     23761     23760     23762     23764     23763     23765
     23767     23766     23768     23770     23769     23771     23773     23772     23774
     23776     23775     23777     23779     23778     23780     23782     23781     23783
     23785     23784     23786     23788     23787     23789     23791     23790     23792
     23794     23793     23795     23797     23796     23798     23800     23799     23801
     23803     23802     23804     23806     23805     23807     23809     23808     23810
     23812     23811     23813     23815     23814     23816     23818     23817     23819
     23821     23820     23822     23824     23823     23825     23827     23826     23828
     23830     23829     23831     23833     23832     23834     23836     23835     23837
     23839     23838     23840     23842     23841     23843     23845     23844     23846
     23848     23847     23849     23851     23850     23852     23854     23853     23855
     23857     23856     23858     23860     23859     23861     23863     23862     23864
     23866     23865     23867     23869     23868     23870     23872     23871     23873
     23875     23874     23876     23878     23877     23879     23881     23880     23882
     23884     23883     23885     23887     23886     23888     23890     23889     23891
     23893     23892     23894     23896     23895     23897     23899     23898     23900
     23902     23901     23903     23905     23904     23906     23908     23907     23909
     23911     23910     23912     23914     23913     23915     23917     23916     23918
     23920     23919     23921     23923     23922     23924     23926     23925     23927
     23929     23928     23930     23932     23931     23933     23935     23934     23936
     23938     23937     23939     23941     23940     23942     23944     23943     23945
     23947     23946     23948     23950     23949     23951     23953     23952     23954
     23956     23955     23957     23959     23958     23960     23962     23961     23963
     23965     23964     23966     23968     23967     23969     23971     23970     23972
     23974     23973     23975     23977     23976     23978     23980     23979     23981
     23983     23982     23984     23986     23985     23987     23989     23988     23990
     23992     23991     23993     23995     23994     23996     23998     23997     23999
     24001     24000     24002     24004     24003     24005     24007     24006     24008
     24010     24009     24011     24013     24012     24014     24016     24015     24017
     24019     24018     24020     24022     24021     24023     24025     24024     24026
     24028     24027     24029     24031     24030     24032     24034     24033     24035
     24037     24036     24038     24040     24039     24041     24043     24042     24044
     24046     24045     24047     24049     24048     24050     24052     24051     24053
     24055     24054     24056     24058     24057     24059     24061     24060     24062
     24064     24063     24065     24067     24066     24068     24070     24069     24071
     24073     24072     24074     24076     24075     24077     24079     24078     24080
     24082     24081     24083     24085     24084     24086     24088     24087     24089
     24091     24090     24092     24094     24093     24095     24097     24096     24098
     24100     24099     24101     24103     24102     24104     24106     24105     24107
     24109     24108     24110     24112     24111     24113     24115     24114     24116
     24118     24117     24119     24121     24120     24122     24124     24123     24125
     24127     24126     24128     24130     24129     24131     24133     24132     24134
     24136     24135     24137     24139     24138     24140     24142     24141     24143
     24145     24144     24146     24148     24147     24149     24151     24150     24152
     24154     24153     24155     24157     24156     24158     24160     24159     24161
     24163     24162     24164     24166     24165     24167     24169     24168     24170
     24172     24171     24173     24175     24174     24176     24178     24177     24179
     24181     24180     24182     24184     24183     24185     24187     24186     24188
     24190     24189     24191     24193     24192     24194     24196     24195     24197
     24199     24198     24200     24202     24201     24203     24205     24204     24206
     24208     24207     24209     24211     24210     24212     24214     24213     24215
     24217     24216     24218     24220     24219     24221     24223     24222     24224
     24226     24225     24227     24229     24228     24230     24232     24231     24233
     24235     24234     24236     24238     24237     24239     24241     24240     24242
     24244     24243     24245     24247     24246     24248     24250     24249     24251
     24253     24252     24254     24256     24255     24257     24259     24258     24260
     24262     24261     24263     24265     24264     24266     24268     24267     24269
     24271     24270     24272     24274     24273     24275     24277     24276     24278
     24280     24279     24281     24283     24282     24284     24286     24285     24287
     24289     24288     24290     24292     24291     24293     24295     24294     24296
     24298     24297     24299     24301     24300     24302     24304     24303     24305
     24307     24306     24308     24310     24309     24311     24313     24312     24314
     24316     24315     24317     24319     24318     24320     24322     24321     24323
     24325     24324     24326     24328     24327     24329     24331     24330     24332
     24334     24333     24335     24337     24336     24338     24340     24339     24341
     24343     24342     24344     24346     24345     24347     24349     24348     24350
     24352     24351     24353     24355     24354     24356     24358     24357     24359
     24361     24360     24362     24364     24363     24365     24367     24366     24368
     24370     24369     24371     24373     24372     24374     24376     24375     24377
     24379     24378     24380     24382     24381     24383     24385     24384     24386
     24388     24387     24389     24391     24390     24392     24394     24393     24395
     24397     24396     24398     24400     24399     24401     24403     24402     24404
     24406     24405     24407     24409     24408     24410     24412     24411     24413
     24415     24414     24416     24418     24417     24419     24421     24420     24422
     24424     24423     24425     24427     24426     24428     24430     24429     24431
     24433     24432     24434     24436     24435     24437     24439     24438     24440
     24442     24441     24443     24445     24444     24446     24448     24447     24449
     24451     24450     24452     24454     24453     24455     24457     24456     24458
     24460     24459     24461     24463     24462     24464     24466     24465     24467
     24469     24468     24470     24472     24471     24473     24475     24474     24476
     24478     24477     24479     24481     24480     24482     24484     24483     24485
     24487     24486     24488     24490     24489     24491     24493     24492     24494
     24496     24495     24497     24499     24498     24500     24502     24501     24503
     24505     24504     24506     24508     24507     24509     24511     24510     24512
     24514     24513     24515     24517     24516     24518     24520     24519     24521
     24523     24522     24524     24526     24525     24527     24529     24528     24530
     24532     24531     24533     24535     24534     24536     24538     24537     24539
     24541     24540     24542     24544     24543     24545     24547     24546     24548
     24550     24549     24551     24553     24552     24554     24556     24555     24557
     24559     24558     24560     24562     24561     24563     24565     24564     24566
     24568     24567     24569     24571     24570     24572     24574     24573     24575
     24577     24576     24578     24580     24579     24581     24583     24582     24584
     24586     24585     24587     24589     24588     24590     24592     24591     24593
     24595     24594     24596     24598     24597     24599     24601     24600     24602
     24604     24603     24605     24607     24606     24608     24610     24609     24611
     24613     24612     24614     24616     24615     24617     24619     24618     24620
     24622     24621     24623     24625     24624     24626     24628     24627     24629
     24631     24630     24632     24634     24633     24635     24637     24636     24638
     24640     24639     24641     24643     24642     24644     24646     24645     24647
     24649     24648     24650     24652     24651     24653     24655     24654     24656
     24658     24657     24659     24661     24660     24662     24664     24663     24665
     24667     24666     24668     24670     24669     24671     24673     24672     24674
     24676     24675     24677     24679     24678     24680     24682     24681     24683
     24685     24684     24686     24688     24687     24689     24691     24690     24692
     24694     24693     24695     24697     24696     24698     24700     24699     24701
     24703     24702     24704     24706     24705     24707     24709     24708     24710
     24712     24711     24713     24715     24714     24716     24718     24717     24719
     24721     24720     24722     24724     24723     24725     24727     24726     24728
     24730     24729     24731     24733     24732     24734     24736     24735     24737
     24739     24738     24740     24742     24741     24743     24745     24744     24746
     24748     24747     24749     24751     24750     24752     24754     24753     24755
     24757     24756     24758     24760     24759     24761     24763     24762     24764
     24766     24765     24767     24769     24768     24770     24772     24771     24773
     24775     24774     24776     24778     24777     24779     24781     24780     24782
     24784     24783     24785     24787     24786     24788     24790     24789     24791
     24793     24792     24794     24796     24795     24797     24799     24798     24800
     24802     24801     24803     24805     24804     24806     24808     24807     24809
     24811     24810     24812     24814     24813     24815     24817     24816     24818
     24820     24819     24821     24823     24822     24824     24826     24825     24827
     24829     24828     24830     24832     24831     24833     24835     24834     24836
     24838     24837     24839     24841     24840     24842     24844     24843     24845
     24847     24846     24848     24850     24849     24851     24853     24852     24854
     24856     24855     24857     24859     24858     24860     24862     24861     24863
     24865     24864     24866     24868     24867     24869     24871     24870     24872
     24874     24873     24875     24877     24876     24878     24880     24879     24881
     24883     24882     24884     24886     24885     24887     24889     24888     24890
     24892     24891     24893     24895     24894     24896     24898     24897     24899
     24901     24900     24902     24904     24903     24905     24907     24906     24908
     24910     24909     24911     24913     24912     24914     24916     24915     24917
     24919     24918     24920     24922     24921     24923     24925     24924     24926
     24928     24927     24929     24931     24930     24932     24934     24933     24935
     24937     24936     24938     24940     24939     24941     24943     24942     24944
     24946     24945     24947     24949     24948     24950     24952     24951     24953
     24955     24954     24956     24958     24957     24959     24961     24960     24962
     24964     24963     24965     24967     24966     24968     24970     24969     24971
     24973     24972     24974     24976     24975     24977     24979     24978     24980
     24982     24981     24983     24985     24984     24986     24988     24987     24989
     24991     24990     24992     24994     24993     24995     24997     24996     24998
     25000     24999     25001     25003     25002     25004     25006     25005     25007
     25009     25008     25010     25012     25011     25013     25015     25014     25016
     25018     25017     25019     25021     25020     25022     25024     25023     25025
     25027     25026     25028     25030     25029     25031     25033     25032     25034
     25036     25035     25037     25039     25038     25040     25042     25041     25043
     25045     25044     25046     25048     25047     25049     25051     25050     25052
     25054     25053     25055     25057     25056     25058     25060     25059     25061
     25063     25062     25064     25066     25065     25067     25069     25068     25070
     25072     25071     25073     25075     25074     25076     25078     25077     25079
     25081     25080     25082     25084     25083     25085     25087     25086     25088
     25090     25089     25091     25093     25092     25094     25096     25095     25097
     25099     25098     25100     25102     25101     25103     25105     25104     25106
     25108     25107     25109     25111     25110     25112     25114     25113     25115
     25117     25116     25118     25120     25119     25121     25123     25122     25124
     25126     25125     25127     25129     25128     25130     25132     25131     25133
     25135     25134     25136     25138     25137     25139     25141     25140     25142
     25144     25143     25145     25147     25146     25148     25150     25149     25151
     25153     25152     25154     25156     25155     25157     25159     25158     25160
     25162     25161     25163     25165     25164     25166     25168     25167     25169
     25171     25170     25172     25174     25173     25175     25177     25176     25178
     25180     25179     25181     25183     25182     25184     25186     25185     25187
     25189     25188     25190     25192     25191     25193     25195     25194     25196
     25198     25197     25199     25201     25200     25202     25204     25203     25205
     25207     25206     25208     25210     25209     25211     25213     25212     25214
     25216     25215     25217     25219     25218     25220     25222     25221     25223
     25225     25224     25226     25228     25227     25229     25231     25230     25232
     25234     25233     25235     25237     25236     25238     25240     25239     25241
     25243     25242     25244     25246     25245     25247     25249     25248     25250
     25252     25251     25253     25255     25254     25256     25258     25257     25259
     25261     25260     25262     25264     25263     25265     25267     25266     25268
     25270     25269     25271     25273     25272     25274     25276     25275     25277
     25279     25278     25280     25282     25281     25283     25285     25284     25286
     25288     25287     25289     25291     25290     25292     25294     25293     25295
     25297     25296     25298     25300     25299     25301     25303     25302     25304
     25306     25305     25307     25309     25308     25310     25312     25311     25313
     25315     25314     25316     25318     25317     25319     25321     25320     25322
     25324     25323     25325     25327     25326     25328     25330     25329     25331
     25333     25332     25334     25336     25335     25337     25339     25338     25340
     25342     25341     25343     25345     25344     25346     25348     25347     25349
     25351     25350     25352     25354     25353     25355     25357     25356     25358
     25360     25359     25361     25363     25362     25364     25366     25365     25367
     25369     25368     25370     25372     25371     25373     25375     25374     25376
     25378     25377     25379     25381     25380     25382     25384     25383     25385
     25387     25386     25388     25390     25389     25391     25393     25392     25394
     25396     25395     25397     25399     25398     25400     25402     25401     25403
     25405     25404     25406     25408     25407     25409     25411     25410     25412
     25414     25413     25415     25417     25416     25418     25420     25419     25421
     25423     25422     25424     25426     25425     25427     25429     25428     25430
     25432     25431     25433     25435     25434     25436     25438     25437     25439
     25441     25440     25442     25444     25443     25445     25447     25446     25448
     25450     25449     25451     25453     25452     25454     25456     25455     25457
     25459     25458     25460     25462     25461     25463     25465     25464     25466
     25468     25467     25469     25471     25470     25472     25474     25473     25475
     25477     25476     25478     25480     25479     25481     25483     25482     25484
     25486     25485     25487     25489     25488     25490     25492     25491     25493
     25495     25494     25496     25498     25497     25499     25501     25500     25502
     25504     25503     25505     25507     25506     25508     25510     25509     25511
     25513     25512     25514     25516     25515     25517     25519     25518     25520
     25522     25521     25523     25525     25524     25526     25528     25527     25529
     25531     25530     25532     25534     25533     25535     25537     25536     25538
     25540     25539     25541     25543     25542     25544     25546     25545     25547
     25549     25548     25550     25552     25551     25553     25555     25554     25556
     25558     25557     25559     25561     25560     25562     25564     25563     25565
     25567     25566     25568     25570     25569     25571     25573     25572     25574
     25576     25575     25577     25579     25578     25580     25582     25581     25583
     25585     25584     25586     25588     25587     25589     25591     25590     25592
     25594     25593     25595     25597     25596     25598     25600     25599     25601
     25603     25602     25604     25606     25605     25607     25609     25608     25610
     25612     25611     25613     25615     25614     25616     25618     25617     25619
     25621     25620     25622     25624     25623     25625     25627     25626     25628
     25630     25629     25631     25633     25632     25634     25636     25635     25637
     25639     25638     25640     25642     25641     25643     25645     25644     25646
     25648     25647     25649     25651     25650     25652     25654     25653     25655
     25657     25656     25658     25660     25659     25661     25663     25662     25664
     25666     25665     25667     25669     25668     25670     25672     25671     25673
     25675     25674     25676     25678     25677     25679     25681     25680     25682
     25684     25683     25685     25687     25686     25688     25690     25689     25691
     25693     25692     25694     25696     25695     25697     25699     25698     25700
     25702     25701     25703     25705     25704     25706     25708     25707     25709
     25711     25710     25712     25714     25713     25715     25717     25716     25718
     25720     25719     25721     25723     25722     25724     25726     25725     25727
     25729     25728     25730     25732     25731     25733     25735     25734     25736
     25738     25737     25739     25741     25740     25742     25744     25743     25745
     25747     25746     25748     25750     25749     25751     25753     25752     25754
     25756     25755     25757     25759     25758     25760     25762     25761     25763
     25765     25764     25766     25768     25767     25769     25771     25770     25772
     25774     25773     25775     25777     25776     25778     25780     25779     25781
     25783     25782     25784     25786     25785     25787     25789     25788     25790
     25792     25791     25793     25795     25794     25796     25798     25797     25799
     25801     25800     25802     25804     25803     25805     25807     25806     25808
     25810     25809     25811     25813     25812     25814     25816     25815     25817
     25819     25818     25820     25822     25821     25823     25825     25824     25826
     25828     25827     25829     25831     25830     25832     25834     25833     25835
     25837     25836     25838     25840     25839     25841     25843     25842     25844
     25846     25845     25847     25849     25848     25850     25852     25851     25853
     25855     25854     25856     25858     25857     25859     25861     25860     25862
     25864     25863     25865     25867     25866     25868     25870     25869     25871
     25873     25872     25874     25876     25875     25877     25879     25878     25880
     25882     25881     25883     25885     25884     25886     25888     25887     25889
     25891     25890     25892     25894     25893     25895     25897     25896     25898
     25900     25899     25901     25903     25902     25904     25906     25905     25907
     25909     25908     25910     25912     25911     25913     25915     25914     25916
     25918     25917     25919     25921     25920     25922     25924     25923     25925
     25927     25926     25928     25930     25929     25931     25933     25932     25934
     25936     25935     25937     25939     25938     25940     25942     25941     25943
     25945     25944     25946     25948     25947     25949     25951     25950     25952
     25954     25953     25955     25957     25956     25958     25960     25959     25961
     25963     25962     25964     25966     25965     25967     25969     25968     25970
     25972     25971     25973     25975     25974     25976     25978     25977     25979
     25981     25980     25982     25984     25983     25985     25987     25986     25988
     25990     25989     25991     25993     25992     25994     25996     25995     25997
     25999     25998     26000     26002     26001     26003     26005     26004     26006
     26008     26007     26009     26011     26010     26012     26014     26013     26015
     26017     26016     26018     26020     26019     26021     26023     26022     26024
     26026     26025     26027     26029     26028     26030     26032     26031     26033
     26035     26034     26036     26038     26037     26039     26041     26040     26042
     26044     26043     26045     26047     26046     26048     26050     26049     26051
     26053     26052     26054     26056     26055     26057     26059     26058     26060
     26062     26061     26063     26065     26064     26066     26068     26067     26069
     26071     26070     26072     26074     26073     26075     26077     26076     26078
     26080     26079     26081     26083     26082     26084     26086     26085     26087
     26089     26088     26090     26092     26091     26093     26095     26094     26096
     26098     26097     26099     26101     26100     26102     26104     26103     26105
     26107     26106     26108     26110     26109     26111     26113     26112     26114
     26116     26115     26117     26119     26118     26120     26122     26121     26123
     26125     26124     26126     26128     26127     26129     26131     26130     26132
     26134     26133     26135     26137     26136     26138     26140     26139     26141
     26143     26142     26144     26146     26145     26147     26149     26148     26150
     26152     26151     26153     26155     26154     26156     26158     26157     26159
     26161     26160     26162     26164     26163     26165     26167     26166     26168
     26170     26169     26171     26173     26172     26174     26176     26175     26177
     26179     26178     26180     26182     26181     26183     26185     26184     26186
     26188     26187     26189     26191     26190     26192     26194     26193     26195
     26197     26196     26198     26200     26199     26201     26203     26202     26204
     26206     26205     26207     26209     26208     26210     26212     26211     26213
     26215     26214     26216     26218     26217     26219     26221     26220     26222
     26224     26223     26225     26227     26226     26228     26230     26229     26231
     26233     26232     26234     26236     26235     26237     26239     26238     26240
     26242     26241     26243     26245     26244     26246     26248     26247     26249
     26251     26250     26252     26254     26253     26255     26257     26256     26258
     26260     26259     26261     26263     26262     26264     26266     26265     26267
     26269     26268     26270     26272     26271     26273     26275     26274     26276
     26278     26277     26279     26281     26280     26282     26284     26283     26285
     26287     26286     26288     26290     26289     26291     26293     26292     26294
     26296     26295     26297     26299     26298     26300     26302     26301     26303
     26305     26304     26306     26308     26307     26309     26311     26310     26312
     26314     26313     26315     26317     26316     26318     26320     26319     26321
     26323     26322     26324     26326     26325     26327     26329     26328     26330
     26332     26331     26333     26335     26334     26336     26338     26337     26339
     26341     26340     26342     26344     26343     26345     26347     26346     26348
     26350     26349     26351     26353     26352     26354     26356     26355     26357
     26359     26358     26360     26362     26361     26363     26365     26364     26366
     26368     26367     26369     26371     26370     26372     26374     26373     26375
     26377     26376     26378     26380     26379     26381     26383     26382     26384
     26386     26385     26387     26389     26388     26390     26392     26391     26393
     26395     26394     26396     26398     26397     26399     26401     26400     26402
     26404     26403     26405     26407     26406     26408     26410     26409     26411
     26413     26412     26414     26416     26415     26417     26419     26418     26420
     26422     26421     26423     26425     26424     26426     26428     26427     26429
     26431     26430     26432     26434     26433     26435     26437     26436     26438
     26440     26439     26441     26443     26442     26444     26446     26445     26447
     26449     26448     26450     26452     26451     26453     26455     26454     26456
     26458     26457     26459     26461     26460     26462     26464     26463     26465
     26467     26466     26468     26470     26469     26471     26473     26472     26474
     26476     26475     26477     26479     26478     26480     26482     26481     26483
     26485     26484     26486     26488     26487     26489     26491     26490     26492
     26494     26493     26495     26497     26496     26498     26500     26499     26501
     26503     26502     26504     26506     26505     26507     26509     26508     26510
     26512     26511     26513     26515     26514     26516     26518     26517     26519
     26521     26520     26522     26524     26523     26525     26527     26526     26528
     26530     26529     26531     26533     26532     26534     26536     26535     26537
     26539     26538     26540     26542     26541     26543     26545     26544     26546
     26548     26547     26549     26551     26550     26552     26554     26553     26555
     26557     26556     26558     26560     26559     26561     26563     26562     26564
     26566     26565     26567     26569     26568     26570     26572     26571     26573
     26575     26574     26576     26578     26577     26579     26581     26580     26582
     26584     26583     26585     26587     26586     26588     26590     26589     26591
     26593     26592     26594     26596     26595     26597     26599     26598     26600
     26602     26601     26603     26605     26604     26606     26608     26607     26609
     26611     26610     26612     26614     26613     26615     26617     26616     26618
     26620     26619     26621     26623     26622     26624     26626     26625     26627
     26629     26628     26630     26632     26631     26633     26635     26634     26636
     26638     26637     26639     26641     26640     26642     26644     26643     26645
     26647     26646     26648     26650     26649     26651     26653     26652     26654
     26656     26655     26657     26659     26658     26660     26662     26661     26663
     26665     26664     26666     26668     26667     26669     26671     26670     26672
     26674     26673     26675     26677     26676     26678     26680     26679     26681
     26683     26682     26684     26686     26685     26687     26689     26688     26690
     26692     26691     26693     26695     26694     26696     26698     26697     26699
     26701     26700     26702     26704     26703     26705     26707     26706     26708
     26710     26709     26711     26713     26712     26714     26716     26715     26717
     26719     26718     26720     26722     26721     26723     26725     26724     26726
     26728     26727     26729     26731     26730     26732     26734     26733     26735
     26737     26736     26738     26740     26739     26741     26743     26742     26744
     26746     26745     26747     26749     26748     26750     26752     26751     26753
     26755     26754     26756     26758     26757     26759     26761     26760     26762
     26764     26763     26765     26767     26766     26768     26770     26769     26771
     26773     26772     26774     26776     26775     26777     26779     26778     26780
     26782     26781     26783     26785     26784     26786     26788     26787     26789
     26791     26790     26792     26794     26793     26795     26797     26796     26798
     26800     26799     26801     26803     26802     26804     26806     26805     26807
     26809     26808     26810     26812     26811     26813     26815     26814     26816
     26818     26817     26819     26821     26820     26822     26824     26823     26825
     26827     26826     26828     26830     26829     26831     26833     26832     26834
     26836     26835     26837     26839     26838     26840     26842     26841     26843
     26845     26844     26846     26848     26847     26849     26851     26850     26852
     26854     26853     26855     26857     26856     26858     26860     26859     26861
     26863     26862     26864     26866     26865     26867     26869     26868     26870
     26872     26871     26873     26875     26874     26876     26878     26877     26879
     26881     26880     26882     26884     26883     26885     26887     26886     26888
     26890     26889     26891     26893     26892     26894     26896     26895     26897
     26899     26898     26900     26902     26901     26903     26905     26904     26906
     26908     26907     26909     26911     26910     26912     26914     26913     26915
     26917     26916     26918     26920     26919     26921     26923     26922     26924
     26926     26925     26927     26929     26928     26930     26932     26931     26933
     26935     26934     26936     26938     26937     26939     26941     26940     26942
     26944     26943     26945     26947     26946     26948     26950     26949     26951
     26953     26952     26954     26956     26955     26957     26959     26958     26960
     26962     26961     26963     26965     26964     26966     26968     26967     26969
     26971     26970     26972     26974     26973     26975     26977     26976     26978
     26980     26979     26981     26983     26982     26984     26986     26985     26987
     26989     26988     26990     26992     26991     26993     26995     26994     26996
     26998     26997     26999     27001     27000     27002     27004     27003     27005
     27007     27006     27008     27010     27009     27011     27013     27012     27014
     27016     27015     27017     27019     27018     27020     27022     27021     27023
     27025     27024     27026     27028     27027     27029     27031     27030     27032
     27034     27033     27035     27037     27036     27038     27040     27039     27041
     27043     27042     27044     27046     27045     27047     27049     27048     27050
     27052     27051     27053     27055     27054     27056     27058     27057     27059
     27061     27060     27062     27064     27063     27065     27067     27066     27068
     27070     27069     27071     27073     27072     27074     27076     27075     27077
     27079     27078     27080     27082     27081     27083     27085     27084     27086
     27088     27087     27089     27091     27090     27092     27094     27093     27095
     27097     27096     27098     27100     27099     27101     27103     27102     27104
     27106     27105     27107     27109     27108     27110     27112     27111     27113
     27115     27114     27116     27118     27117     27119     27121     27120     27122
     27124     27123     27125     27127     27126     27128     27130     27129     27131
     27133     27132     27134     27136     27135     27137     27139     27138     27140
     27142     27141     27143     27145     27144     27146     27148     27147     27149
     27151     27150     27152     27154     27153     27155     27157     27156     27158
     27160     27159     27161     27163     27162     27164     27166     27165     27167
     27169     27168     27170     27172     27171     27173     27175     27174     27176
     27178     27177     27179     27181     27180     27182     27184     27183     27185
     27187     27186     27188     27190     27189     27191     27193     27192     27194
     27196     27195     27197     27199     27198     27200     27202     27201     27203
     27205     27204     27206     27208     27207     27209     27211     27210     27212
     27214     27213     27215     27217     27216     27218     27220     27219     27221
     27223     27222     27224     27226     27225     27227     27229     27228     27230
     27232     27231     27233     27235     27234     27236     27238     27237     27239
     27241     27240     27242     27244     27243     27245     27247     27246     27248
     27250     27249     27251     27253     27252     27254     27256     27255     27257
     27259     27258     27260     27262     27261     27263     27265     27264     27266
     27268     27267     27269     27271     27270     27272     27274     27273     27275
     27277     27276     27278     27280     27279     27281     27283     27282     27284
     27286     27285     27287     27289     27288     27290     27292     27291     27293
     27295     27294     27296     27298     27297     27299     27301     27300     27302
     27304     27303     27305     27307     27306     27308     27310     27309     27311
     27313     27312     27314     27316     27315     27317     27319     27318     27320
     27322     27321     27323     27325     27324     27326     27328     27327     27329
     27331     27330     27332     27334     27333     27335     27337     27336     27338
     27340     27339     27341     27343     27342     27344     27346     27345     27347
     27349     27348     27350     27352     27351     27353     27355     27354     27356
     27358     27357     27359     27361     27360     27362     27364     27363     27365
     27367     27366     27368     27370     27369     27371     27373     27372     27374
     27376     27375     27377     27379     27378     27380     27382     27381     27383
     27385     27384     27386     27388     27387     27389     27391     27390     27392
     27394     27393     27395     27397     27396     27398     27400     27399     27401
     27403     27402     27404     27406     27405     27407     27409     27408     27410
     27412     27411     27413     27415     27414     27416     27418     27417     27419
     27421     27420     27422     27424     27423     27425     27427     27426     27428
     27430     27429     27431     27433     27432     27434     27436     27435     27437
     27439     27438     27440     27442     27441     27443     27445     27444     27446
     27448     27447     27449     27451     27450     27452     27454     27453     27455
     27457     27456     27458     27460     27459     27461     27463     27462     27464
     27466     27465     27467     27469     27468     27470     27472     27471     27473
     27475     27474     27476     27478     27477     27479     27481     27480     27482
     27484     27483     27485     27487     27486     27488     27490     27489     27491
     27493     27492     27494     27496     27495     27497     27499     27498     27500
     27502     27501     27503     27505     27504     27506     27508     27507     27509
     27511     27510     27512     27514     27513     27515     27517     27516     27518
     27520     27519     27521     27523     27522     27524     27526     27525     27527
     27529     27528     27530     27532     27531     27533     27535     27534     27536
     27538     27537     27539     27541     27540     27542     27544     27543     27545
     27547     27546     27548     27550     27549     27551     27553     27552     27554
     27556     27555     27557     27559     27558     27560     27562     27561     27563
     27565     27564     27566     27568     27567     27569     27571     27570     27572
     27574     27573     27575     27577     27576     27578     27580     27579     27581
     27583     27582     27584     27586     27585     27587     27589     27588     27590
     27592     27591     27593     27595     27594     27596     27598     27597     27599
     27601     27600     27602     27604     27603     27605     27607     27606     27608
     27610     27609     27611     27613     27612     27614     27616     27615     27617
     27619     27618     27620     27622     27621     27623     27625     27624     27626
     27628     27627     27629     27631     27630     27632     27634     27633     27635
     27637     27636     27638     27640     27639     27641     27643     27642     27644
     27646     27645     27647     27649     27648     27650     27652     27651     27653
     27655     27654     27656     27658     27657     27659     27661     27660     27662
     27664     27663     27665     27667     27666     27668     27670     27669     27671
     27673     27672     27674     27676     27675     27677     27679     27678     27680
     27682     27681     27683     27685     27684     27686     27688     27687     27689
     27691     27690     27692     27694     27693     27695     27697     27696     27698
     27700     27699     27701     27703     27702     27704     27706     27705     27707
     27709     27708     27710     27712     27711     27713     27715     27714     27716
     27718     27717     27719     27721     27720     27722     27724     27723     27725
     27727     27726     27728     27730     27729     27731     27733     27732     27734
     27736     27735     27737     27739     27738     27740     27742     27741     27743
     27745     27744     27746     27748     27747     27749     27751     27750     27752
     27754     27753     27755     27757     27756     27758     27760     27759     27761
     27763     27762     27764     27766     27765     27767     27769     27768     27770
     27772     27771     27773     27775     27774     27776     27778     27777     27779
     27781     27780     27782     27784     27783     27785     27787     27786     27788
     27790     27789     27791     27793     27792     27794     27796     27795     27797
     27799     27798     27800     27802     27801     27803     27805     27804     27806
     27808     27807     27809     27811     27810     27812     27814     27813     27815
     27817     27816     27818     27820     27819     27821     27823     27822     27824
     27826     27825     27827     27829     27828     27830     27832     27831     27833
     27835     27834     27836     27838     27837     27839     27841     27840     27842
     27844     27843     27845     27847     27846     27848     27850     27849     27851
     27853     27852     27854     27856     27855     27857     27859     27858     27860
     27862     27861     27863     27865     27864     27866     27868     27867     27869
     27871     27870     27872     27874     27873     27875     27877     27876     27878
     27880     27879     27881     27883     27882     27884     27886     27885     27887
     27889     27888     27890     27892     27891     27893     27895     27894     27896
     27898     27897     27899     27901     27900     27902     27904     27903     27905
     27907     27906     27908     27910     27909     27911     27913     27912     27914
     27916     27915     27917     27919     27918     27920     27922     27921     27923
     27925     27924     27926     27928     27927     27929     27931     27930     27932
     27934     27933     27935     27937     27936     27938     27940     27939     27941
     27943     27942     27944     27946     27945     27947     27949     27948     27950
     27952     27951     27953     27955     27954     27956     27958     27957     27959
     27961     27960     27962     27964     27963     27965     27967     27966     27968
     27970     27969     27971     27973     27972     27974     27976     27975     27977
     27979     27978     27980     27982     27981     27983     27985     27984     27986
     27988     27987     27989     27991     27990     27992     27994     27993     27995
     27997     27996     27998     28000     27999     28001     28003     28002     28004
     28006     28005     28007     28009     28008     28010     28012     28011     28013
     28015     28014     28016     28018     28017     28019     28021     28020     28022
     28024     28023     28025     28027     28026     28028     28030     28029     28031
     28033     28032     28034     28036     28035     28037     28039     28038     28040
     28042     28041     28043     28045     28044     28046     28048     28047     28049
     28051     28050     28052     28054     28053     28055     28057     28056     28058
     28060     28059     28061     28063     28062     28064     28066     28065     28067
     28069     28068     28070     28072     28071     28073     28075     28074     28076
     28078     28077     28079     28081     28080     28082     28084     28083     28085
     28087     28086     28088     28090     28089     28091     28093     28092     28094
     28096     28095     28097     28099     28098     28100     28102     28101     28103
     28105     28104     28106     28108     28107     28109     28111     28110     28112
     28114     28113     28115     28117     28116     28118     28120     28119     28121
     28123     28122     28124     28126     28125     28127     28129     28128     28130
     28132     28131     28133     28135     28134     28136     28138     28137     28139
     28141     28140     28142     28144     28143     28145     28147     28146     28148
     28150     28149     28151     28153     28152     28154     28156     28155     28157
     28159     28158     28160     28162     28161     28163     28165     28164     28166
     28168     28167     28169     28171     28170     28172     28174     28173     28175
     28177     28176     28178     28180     28179     28181     28183     28182     28184
     28186     28185     28187     28189     28188     28190     28192     28191     28193
     28195     28194     28196     28198     28197     28199     28201     28200     28202
     28204     28203     28205     28207     28206     28208     28210     28209     28211
     28213     28212     28214     28216     28215     28217     28219     28218     28220
     28222     28221     28223     28225     28224     28226     28228     28227     28229
     28231     28230     28232     28234     28233     28235     28237     28236     28238
     28240     28239     28241     28243     28242     28244     28246     28245     28247
     28249     28248     28250     28252     28251     28253     28255     28254     28256
     28258     28257     28259     28261     28260     28262     28264     28263     28265
     28267     28266     28268     28270     28269     28271     28273     28272     28274
     28276     28275     28277     28279     28278     28280     28282     28281     28283
     28285     28284     28286     28288     28287     28289     28291     28290     28292
     28294     28293     28295     28297     28296     28298     28300     28299     28301
     28303     28302     28304     28306     28305     28307     28309     28308     28310
     28312     28311     28313     28315     28314     28316     28318     28317     28319
     28321     28320     28322     28324     28323     28325     28327     28326     28328
     28330     28329     28331     28333     28332     28334     28336     28335     28337
     28339     28338     28340     28342     28341     28343     28345     28344     28346
     28348     28347     28349     28351     28350     28352     28354     28353     28355
     28357     28356     28358     28360     28359     28361     28363     28362     28364
     28366     28365     28367     28369     28368     28370     28372     28371     28373
     28375     28374     28376     28378     28377     28379     28381     28380     28382
     28384     28383     28385     28387     28386     28388     28390     28389     28391
     28393     28392     28394     28396     28395     28397     28399     28398     28400
     28402     28401     28403     28405     28404     28406     28408     28407     28409
     28411     28410     28412     28414     28413     28415     28417     28416     28418
     28420     28419     28421     28423     28422     28424     28426     28425     28427
     28429     28428     28430     28432     28431     28433     28435     28434     28436
     28438     28437     28439     28441     28440     28442     28444     28443     28445
     28447     28446     28448     28450     28449     28451     28453     28452     28454
     28456     28455     28457     28459     28458     28460     28462     28461     28463
     28465     28464     28466     28468     28467     28469     28471     28470     28472
     28474     28473     28475     28477     28476     28478     28480     28479     28481
     28483     28482     28484     28486     28485     28487     28489     28488     28490
     28492     28491     28493     28495     28494     28496     28498     28497     28499
     28501     28500     28502     28504     28503     28505     28507     28506     28508
     28510     28509     28511     28513     28512     28514     28516     28515     28517
     28519     28518     28520     28522     28521     28523     28525     28524     28526
     28528     28527     28529     28531     28530     28532     28534     28533     28535
     28537     28536     28538     28540     28539     28541     28543     28542     28544
     28546     28545     28547     28549     28548     28550     28552     28551     28553
     28555     28554     28556     28558     28557     28559     28561     28560     28562
     28564     28563     28565     28567     28566     28568     28570     28569     28571
     28573     28572     28574     28576     28575     28577     28579     28578     28580
     28582     28581     28583     28585     28584     28586     28588     28587     28589
     28591     28590     28592     28594     28593     28595     28597     28596     28598
     28600     28599     28601     28603     28602     28604     28606     28605     28607
     28609     28608     28610     28612     28611     28613     28615     28614     28616
     28618     28617     28619     28621     28620     28622     28624     28623     28625
     28627     28626     28628     28630     28629     28631     28633     28632     28634
     28636     28635     28637     28639     28638     28640     28642     28641     28643
     28645     28644     28646     28648     28647     28649     28651     28650     28652
     28654     28653     28655     28657     28656     28658     28660     28659     28661
     28663     28662     28664     28666     28665     28667     28669     28668     28670
     28672     28671     28673     28675     28674     28676     28678     28677     28679
     28681     28680     28682     28684     28683     28685     28687     28686     28688
     28690     28689     28691     28693     28692     28694     28696     28695     28697
     28699     28698     28700     28702     28701     28703     28705     28704     28706
     28708     28707     28709     28711     28710     28712     28714     28713     28715
     28717     28716     28718     28720     28719     28721     28723     28722     28724
     28726     28725     28727     28729     28728     28730     28732     28731     28733
     28735     28734     28736     28738     28737     28739     28741     28740     28742
     28744     28743     28745     28747     28746     28748     28750     28749     28751
     28753     28752     28754     28756     28755     28757     28759     28758     28760
     28762     28761     28763     28765     28764     28766     28768     28767     28769
     28771     28770     28772     28774     28773     28775     28777     28776     28778
     28780     28779     28781     28783     28782     28784     28786     28785     28787
     28789     28788     28790     28792     28791     28793     28795     28794     28796
     28798     28797     28799     28801     28800     28802     28804     28803     28805
     28807     28806     28808     28810     28809     28811     28813     28812     28814
     28816     28815     28817     28819     28818     28820     28822     28821     28823
     28825     28824     28826     28828     28827     28829     28831     28830     28832
     28834     28833     28835     28837     28836     28838     28840     28839     28841
     28843     28842     28844     28846     28845     28847     28849     28848     28850
     28852     28851     28853     28855     28854     28856     28858     28857     28859
     28861     28860     28862     28864     28863     28865     28867     28866     28868
     28870     28869     28871     28873     28872     28874     28876     28875     28877
     28879     28878     28880     28882     28881     28883     28885     28884     28886
     28888     28887     28889     28891     28890     28892     28894     28893     28895
     28897     28896     28898     28900     28899     28901     28903     28902     28904
     28906     28905     28907     28909     28908     28910     28912     28911     28913
     28915     28914     28916     28918     28917     28919     28921     28920     28922
     28924     28923     28925     28927     28926     28928     28930     28929     28931
     28933     28932     28934     28936     28935     28937     28939     28938     28940
     28942     28941     28943     28945     28944     28946     28948     28947     28949
     28951     28950     28952     28954     28953     28955     28957     28956     28958
     28960     28959     28961     28963     28962     28964     28966     28965     28967
     28969     28968     28970     28972     28971     28973     28975     28974     28976
     28978     28977     28979     28981     28980     28982     28984     28983     28985
     28987     28986     28988     28990     28989     28991     28993     28992     28994
     28996     28995     28997     28999     28998     29000     29002     29001     29003
     29005     29004     29006     29008     29007     29009     29011     29010     29012
     29014     29013     29015     29017     29016     29018     29020     29019     29021
     29023     29022     29024     29026     29025     29027     29029     29028     29030
     29032     29031     29033     29035     29034     29036     29038     29037     29039
     29041     29040     29042     29044     29043     29045     29047     29046     29048
     29050     29049     29051     29053     29052     29054     29056     29055     29057
     29059     29058     29060     29062     29061     29063     29065     29064     29066
     29068     29067     29069     29071     29070     29072     29074     29073     29075
     29077     29076     29078     29080     29079     29081     29083     29082     29084
     29086     29085     29087     29089     29088     29090     29092     29091     29093
     29095     29094     29096     29098     29097     29099     29101     29100     29102
     29104     29103     29105     29107     29106     29108     29110     29109     29111
     29113     29112     29114     29116     29115     29117     29119     29118     29120
     29122     29121     29123     29125     29124     29126     29128     29127     29129
     29131     29130     29132     29134     29133     29135     29137     29136     29138
     29140     29139     29141     29143     29142     29144     29146     29145     29147
     29149     29148     29150     29152     29151     29153     29155     29154     29156
     29158     29157     29159     29161     29160     29162     29164     29163     29165
     29167     29166     29168     29170     29169     29171     29173     29172     29174
     29176     29175     29177     29179     29178     29180     29182     29181     29183
     29185     29184     29186     29188     29187     29189     29191     29190     29192
     29194     29193     29195     29197     29196     29198     29200     29199     29201
     29203     29202     29204     29206     29205     29207     29209     29208     29210
     29212     29211     29213     29215     29214     29216     29218     29217     29219
     29221     29220     29222     29224     29223     29225     29227     29226     29228
     29230     29229     29231     29233     29232     29234     29236     29235     29237
     29239     29238     29240     29242     29241     29243     29245     29244     29246
     29248     29247     29249     29251     29250     29252     29254     29253     29255
     29257     29256     29258     29260     29259     29261     29263     29262     29264
     29266     29265     29267     29269     29268     29270     29272     29271     29273
     29275     29274     29276     29278     29277     29279     29281     29280     29282
     29284     29283     29285     29287     29286     29288     29290     29289     29291
     29293     29292     29294     29296     29295     29297     29299     29298     29300
     29302     29301     29303     29305     29304     29306     29308     29307     29309
     29311     29310     29312     29314     29313     29315     29317     29316     29318
     29320     29319     29321     29323     29322     29324     29326     29325     29327
     29329     29328     29330     29332     29331     29333     29335     29334     29336
     29338     29337     29339     29341     29340     29342     29344     29343     29345
     29347     29346     29348     29350     29349     29351     29353     29352     29354
     29356     29355     29357     29359     29358     29360     29362     29361     29363
     29365     29364     29366     29368     29367     29369     29371     29370     29372
     29374     29373     29375     29377     29376     29378     29380     29379     29381
     29383     29382     29384     29386     29385     29387     29389     29388     29390
     29392     29391     29393     29395     29394     29396     29398     29397     29399
     29401     29400     29402     29404     29403     29405     29407     29406     29408
     29410     29409     29411     29413     29412     29414     29416     29415     29417
     29419     29418     29420     29422     29421     29423     29425     29424     29426
     29428     29427     29429     29431     29430     29432     29434     29433     29435
     29437     29436     29438     29440     29439     29441     29443     29442     29444
     29446     29445     29447     29449     29448     29450     29452     29451     29453
     29455     29454     29456     29458     29457     29459     29461     29460     29462
     29464     29463     29465     29467     29466     29468     29470     29469     29471
     29473     29472     29474     29476     29475     29477     29479     29478     29480
     29482     29481     29483     29485     29484     29486     29488     29487     29489
     29491     29490     29492     29494     29493     29495     29497     29496     29498
     29500     29499     29501     29503     29502     29504     29506     29505     29507
     29509     29508     29510     29512     29511     29513     29515     29514     29516
     29518     29517     29519     29521     29520     29522     29524     29523     29525
     29527     29526     29528     29530     29529     29531     29533     29532     29534
     29536     29535     29537     29539     29538     29540     29542     29541     29543
     29545     29544     29546     29548     29547     29549     29551     29550     29552
     29554     29553     29555     29557     29556     29558     29560     29559     29561
     29563     29562     29564     29566     29565     29567     29569     29568     29570
     29572     29571     29573     29575     29574     29576     29578     29577     29579
     29581     29580     29582     29584     29583     29585     29587     29586     29588
     29590     29589     29591     29593     29592     29594     29596     29595     29597
     29599     29598     29600     29602     29601     29603     29605     29604     29606
     29608     29607     29609     29611     29610     29612     29614     29613     29615
     29617     29616     29618     29620     29619     29621     29623     29622     29624
     29626     29625     29627     29629     29628     29630     29632     29631     29633
     29635     29634     29636     29638     29637     29639     29641     29640     29642
     29644     29643     29645     29647     29646     29648     29650     29649     29651
     29653     29652     29654     29656     29655     29657     29659     29658     29660
     29662     29661     29663     29665     29664     29666     29668     29667     29669
     29671     29670     29672     29674     29673     29675     29677     29676     29678
     29680     29679     29681     29683     29682     29684     29686     29685     29687
     29689     29688     29690     29692     29691     29693     29695     29694     29696
     29698     29697     29699     29701     29700     29702     29704     29703     29705
     29707     29706     29708     29710     29709     29711     29713     29712     29714
     29716     29715     29717     29719     29718     29720     29722     29721     29723
     29725     29724     29726     29728     29727     29729     29731     29730     29732
     29734     29733     29735     29737     29736     29738     29740     29739     29741
     29743     29742     29744     29746     29745     29747     29749     29748     29750
     29752     29751     29753     29755     29754     29756     29758     29757     29759
     29761     29760     29762     29764     29763     29765     29767     29766     29768
     29770     29769     29771     29773     29772     29774     29776     29775     29777
     29779     29778     29780     29782     29781     29783     29785     29784     29786
     29788     29787     29789     29791     29790     29792     29794     29793     29795
     29797     29796     29798     29800     29799     29801     29803     29802     29804
     29806     29805     29807     29809     29808     29810     29812     29811     29813
     29815     29814     29816     29818     29817     29819     29821     29820     29822
     29824     29823     29825     29827     29826     29828     29830     29829     29831
     29833     29832     29834     29836     29835     29837     29839     29838     29840
     29842     29841     29843     29845     29844     29846     29848     29847     29849
     29851     29850     29852     29854     29853     29855     29857     29856     29858
     29860     29859     29861     29863     29862     29864     29866     29865     29867
     29869     29868     29870     29872     29871     29873     29875     29874     29876
     29878     29877     29879     29881     29880     29882     29884     29883     29885
     29887     29886     29888     29890     29889     29891     29893     29892     29894
     29896     29895     29897     29899     29898     29900     29902     29901     29903
     29905     29904     29906     29908     29907     29909     29911     29910     29912
     29914     29913     29915     29917     29916     29918     29920     29919     29921
     29923     29922     29924     29926     29925     29927     29929     29928     29930
     29932     29931     29933     29935     29934     29936     29938     29937     29939
     29941     29940     29942     29944     29943     29945     29947     29946     29948
     29950     29949     29951     29953     29952     29954     29956     29955     29957
     29959     29958     29960     29962     29961     29963     29965     29964     29966
     29968     29967     29969     29971     29970     29972     29974     29973     29975
     29977     29976     29978     29980     29979     29981     29983     29982     29984
     29986     29985     29987     29989     29988     29990     29992     29991     29993
     29995     29994     29996     29998     29997     29999     30001     30000     30002
     30004     30003     30005     30007     30006     30008     30010     30009     30011
     30013     30012     30014     30016     30015     30017     30019     30018     30020
     30022     30021     30023     30025     30024     30026     30028     30027     30029
     30031     30030     30032     30034     30033     30035     30037     30036     30038
     30040     30039     30041     30043     30042     30044     30046     30045     30047
     30049     30048     30050     30052     30051     30053     30055     30054     30056
     30058     30057     30059     30061     30060     30062     30064     30063     30065
     30067     30066     30068     30070     30069     30071     30073     30072     30074
     30076     30075     30077     30079     30078     30080     30082     30081     30083
     30085     30084     30086     30088     30087     30089     30091     30090     30092
     30094     30093     30095     30097     30096     30098     30100     30099     30101
     30103     30102     30104     30106     30105     30107     30109     30108     30110
     30112     30111     30113     30115     30114     30116     30118     30117     30119
     30121     30120     30122     30124     30123     30125     30127     30126     30128
     30130     30129     30131     30133     30132     30134     30136     30135     30137
     30139     30138     30140     30142     30141     30143     30145     30144     30146
     30148     30147     30149     30151     30150     30152     30154     30153     30155
     30157     30156     30158     30160     30159     30161     30163     30162     30164
     30166     30165     30167     30169     30168     30170     30172     30171     30173
     30175     30174     30176     30178     30177     30179     30181     30180     30182
     30184     30183     30185     30187     30186     30188     30190     30189     30191
     30193     30192     30194     30196     30195     30197     30199     30198     30200
     30202     30201     30203     30205     30204     30206     30208     30207     30209
     30211     30210     30212     30214     30213     30215     30217     30216     30218
     30220     30219     30221     30223     30222     30224     30226     30225     30227
     30229     30228     30230     30232     30231     30233     30235     30234     30236
     30238     30237     30239     30241     30240     30242     30244     30243     30245
     30247     30246     30248     30250     30249     30251     30253     30252     30254
     30256     30255     30257     30259     30258     30260     30262     30261     30263
     30265     30264     30266     30268     30267     30269     30271     30270     30272
     30274     30273     30275     30277     30276     30278     30280     30279     30281
     30283     30282     30284     30286     30285     30287     30289     30288     30290
     30292     30291     30293     30295     30294     30296     30298     30297     30299
     30301     30300     30302     30304     30303     30305     30307     30306     30308
     30310     30309     30311     30313     30312     30314     30316     30315     30317
     30319     30318     30320     30322     30321     30323     30325     30324     30326
     30328     30327     30329     30331     30330     30332     30334     30333     30335
     30337     30336     30338     30340     30339     30341     30343     30342     30344
     30346     30345     30347     30349     30348     30350     30352     30351     30353
     30355     30354     30356     30358     30357     30359     30361     30360     30362
     30364     30363     30365     30367     30366     30368     30370     30369     30371
     30373     30372     30374     30376     30375     30377     30379     30378     30380
     30382     30381     30383     30385     30384     30386     30388     30387     30389
     30391     30390     30392     30394     30393     30395     30397     30396     30398
     30400     30399     30401     30403     30402     30404     30406     30405     30407
     30409     30408     30410     30412     30411     30413     30415     30414     30416
     30418     30417     30419     30421     30420     30422     30424     30423     30425
     30427     30426     30428     30430     30429     30431     30433     30432     30434
     30436     30435     30437     30439     30438     30440     30442     30441     30443
     30445     30444     30446     30448     30447     30449     30451     30450     30452
     30454     30453     30455     30457     30456     30458     30460     30459     30461
     30463     30462     30464     30466     30465     30467     30469     30468     30470
     30472     30471     30473     30475     30474     30476     30478     30477     30479
     30481     30480     30482     30484     30483     30485     30487     30486     30488
     30490     30489     30491     30493     30492     30494     30496     30495     30497
     30499     30498     30500     30502     30501     30503     30505     30504     30506
     30508     30507     30509     30511     30510     30512     30514     30513     30515
     30517     30516     30518     30520     30519     30521     30523     30522     30524
     30526     30525     30527     30529     30528     30530     30532     30531     30533
     30535     30534     30536     30538     30537     30539     30541     30540     30542
     30544     30543     30545     30547     30546     30548     30550     30549     30551
     30553     30552     30554     30556     30555     30557     30559     30558     30560
     30562     30561     30563     30565     30564     30566     30568     30567     30569
     30571     30570     30572     30574     30573     30575     30577     30576     30578
     30580     30579     30581     30583     30582     30584     30586     30585     30587
     30589     30588     30590     30592     30591     30593     30595     30594     30596
     30598     30597     30599     30601     30600     30602     30604     30603     30605
     30607     30606     30608     30610     30609     30611     30613     30612     30614
     30616     30615     30617     30619     30618     30620     30622     30621     30623
     30625     30624     30626     30628     30627     30629     30631     30630     30632
     30634     30633     30635     30637     30636     30638     30640     30639     30641
     30643     30642     30644     30646     30645     30647     30649     30648     30650
     30652     30651     30653     30655     30654     30656     30658     30657     30659
     30661     30660     30662     30664     30663     30665     30667     30666     30668
     30670     30669     30671     30673     30672     30674     30676     30675     30677
     30679     30678     30680     30682     30681     30683     30685     30684     30686
     30688     30687     30689     30691     30690     30692     30694     30693     30695
     30697     30696     30698     30700     30699     30701     30703     30702     30704
     30706     30705     30707     30709     30708     30710     30712     30711     30713
     30715     30714     30716     30718     30717     30719     30721     30720     30722
     30724     30723     30725     30727     30726     30728     30730     30729     30731
     30733     30732     30734     30736     30735     30737     30739     30738     30740
     30742     30741     30743     30745     30744     30746     30748     30747     30749
     30751     30750     30752     30754     30753     30755     30757     30756     30758
     30760     30759     30761     30763     30762     30764     30766     30765     30767
     30769     30768     30770     30772     30771     30773     30775     30774     30776
     30778     30777     30779     30781     30780     30782     30784     30783     30785
     30787     30786     30788     30790     30789     30791     30793     30792     30794
     30796     30795     30797     30799     30798     30800     30802     30801     30803
     30805     30804     30806     30808     30807     30809     30811     30810     30812
     30814     30813     30815     30817     30816     30818     30820     30819     30821
     30823     30822     30824     30826     30825     30827     30829     30828     30830
     30832     30831     30833     30835     30834     30836     30838     30837     30839
     30841     30840     30842     30844     30843     30845     30847     30846     30848
     30850     30849     30851     30853     30852     30854     30856     30855     30857
     30859     30858     30860     30862     30861     30863     30865     30864     30866
     30868     30867     30869     30871     30870     30872     30874     30873     30875
     30877     30876     30878     30880     30879     30881     30883     30882     30884
     30886     30885     30887     30889     30888     30890     30892     30891     30893
     30895     30894     30896     30898     30897     30899     30901     30900     30902
     30904     30903     30905     30907     30906     30908     30910     30909     30911
     30913     30912     30914     30916     30915     30917     30919     30918     30920
     30922     30921     30923     30925     30924     30926     30928     30927     30929
     30931     30930     30932     30934     30933     30935     30937     30936     30938
     30940     30939     30941     30943     30942     30944     30946     30945     30947
     30949     30948     30950     30952     30951     30953     30955     30954     30956
     30958     30957     30959     30961     30960     30962     30964     30963     30965
     30967     30966     30968     30970     30969     30971     30973     30972     30974
     30976     30975     30977     30979     30978     30980     30982     30981     30983
     30985     30984     30986     30988     30987     30989     30991     30990     30992
     30994     30993     30995     30997     30996     30998     31000     30999     31001
     31003     31002     31004     31006     31005     31007     31009     31008     31010
     31012     31011     31013     31015     31014     31016     31018     31017     31019
     31021     31020     31022     31024     31023     31025     31027     31026     31028
     31030     31029     31031     31033     31032     31034     31036     31035     31037
     31039     31038     31040     31042     31041     31043     31045     31044     31046
     31048     31047     31049     31051     31050     31052     31054     31053     31055
     31057     31056     31058     31060     31059     31061     31063     31062     31064
     31066     31065     31067     31069     31068     31070     31072     31071     31073
     31075     31074     31076     31078     31077     31079     31081     31080     31082
     31084     31083     31085     31087     31086     31088     31090     31089     31091
     31093     31092     31094     31096     31095     31097     31099     31098     31100
     31102     31101     31103     31105     31104     31106     31108     31107     31109
     31111     31110     31112     31114     31113     31115     31117     31116     31118
     31120     31119     31121     31123     31122     31124     31126     31125     31127
     31129     31128     31130     31132     31131     31133     31135     31134     31136
     31138     31137     31139     31141     31140     31142     31144     31143     31145
     31147     31146     31148     31150     31149     31151     31153     31152     31154
     31156     31155     31157     31159     31158     31160     31162     31161     31163
     31165     31164     31166     31168     31167     31169     31171     31170     31172
     31174     31173     31175     31177     31176     31178     31180     31179     31181
     31183     31182     31184     31186     31185     31187     31189     31188     31190
     31192     31191     31193     31195     31194     31196     31198     31197     31199
     31201     31200     31202     31204     31203     31205     31207     31206     31208
     31210     31209     31211     31213     31212     31214     31216     31215     31217
     31219     31218     31220     31222     31221     31223     31225     31224     31226
     31228     31227     31229     31231     31230     31232     31234     31233     31235
     31237     31236     31238     31240     31239     31241     31243     31242     31244
     31246     31245     31247     31249     31248     31250     31252     31251     31253
     31255     31254     31256     31258     31257     31259     31261     31260     31262
     31264     31263     31265     31267     31266     31268     31270     31269     31271
     31273     31272     31274     31276     31275     31277     31279     31278     31280
     31282     31281     31283     31285     31284     31286     31288     31287     31289
     31291     31290     31292     31294     31293     31295     31297     31296     31298
     31300     31299     31301     31303     31302     31304     31306     31305     31307
     31309     31308     31310     31312     31311     31313     31315     31314     31316
     31318     31317     31319     31321     31320     31322     31324     31323     31325
     31327     31326     31328     31330     31329     31331     31333     31332     31334
     31336     31335     31337     31339     31338     31340     31342     31341     31343
     31345     31344     31346     31348     31347     31349     31351     31350     31352
     31354     31353     31355     31357     31356     31358     31360     31359     31361
     31363     31362     31364     31366     31365     31367     31369     31368     31370
     31372     31371     31373     31375     31374     31376     31378     31377     31379
     31381     31380     31382     31384     31383     31385     31387     31386     31388
     31390     31389     31391     31393     31392     31394     31396     31395     31397
     31399     31398     31400     31402     31401     31403     31405     31404     31406
     31408     31407     31409     31411     31410     31412     31414     31413     31415
     31417     31416     31418     31420     31419     31421     31423     31422     31424
     31426     31425     31427     31429     31428     31430     31432     31431     31433
     31435     31434     31436     31438     31437     31439     31441     31440     31442
     31444     31443     31445     31447     31446     31448     31450     31449     31451
     31453     31452     31454     31456     31455     31457     31459     31458     31460
     31462     31461     31463     31465     31464     31466     31468     31467     31469
     31471     31470     31472     31474     31473     31475     31477     31476     31478
     31480     31479     31481     31483     31482     31484     31486     31485     31487
     31489     31488     31490     31492     31491     31493     31495     31494     31496
     31498     31497     31499     31501     31500     31502     31504     31503     31505
     31507     31506     31508     31510     31509     31511     31513     31512     31514
     31516     31515     31517     31519     31518     31520     31522     31521     31523
     31525     31524     31526     31528     31527     31529     31531     31530     31532
     31534     31533     31535     31537     31536     31538     31540     31539     31541
     31543     31542     31544     31546     31545     31547     31549     31548     31550
     31552     31551     31553     31555     31554     31556     31558     31557     31559
     31561     31560     31562     31564     31563     31565     31567     31566     31568
     31570     31569     31571     31573     31572     31574     31576     31575     31577
     31579     31578     31580     31582     31581     31583     31585     31584     31586
     31588     31587     31589     31591     31590     31592     31594     31593     31595
     31597     31596     31598     31600     31599     31601     31603     31602     31604
     31606     31605     31607     31609     31608     31610     31612     31611     31613
     31615     31614     31616     31618     31617     31619     31621     31620     31622
     31624     31623     31625     31627     31626     31628     31630     31629     31631
     31633     31632     31634     31636     31635     31637     31639     31638     31640
     31642     31641     31643     31645     31644     31646     31648     31647     31649
     31651     31650     31652     31654     31653     31655     31657     31656     31658
     31660     31659     31661     31663     31662     31664     31666     31665     31667
     31669     31668     31670     31672     31671     31673     31675     31674     31676
     31678     31677     31679     31681     31680     31682     31684     31683     31685
     31687     31686     31688     31690     31689     31691     31693     31692     31694
     31696     31695     31697     31699     31698     31700     31702     31701     31703
     31705     31704     31706     31708     31707     31709     31711     31710     31712
     31714     31713     31715     31717     31716     31718     31720     31719     31721
     31723     31722     31724     31726     31725     31727     31729     31728     31730
     31732     31731     31733     31735     31734     31736     31738     31737     31739
     31741     31740     31742     31744     31743     31745     31747     31746     31748
     31750     31749     31751     31753     31752     31754     31756     31755     31757
     31759     31758     31760     31762     31761     31763     31765     31764     31766
     31768     31767     31769     31771     31770     31772     31774     31773     31775
     31777     31776     31778     31780     31779     31781     31783     31782     31784
     31786     31785     31787     31789     31788     31790     31792     31791     31793
     31795     31794     31796     31798     31797     31799     31801     31800     31802
     31804     31803     31805     31807     31806     31808     31810     31809     31811
     31813     31812     31814     31816     31815     31817     31819     31818     31820
     31822     31821     31823     31825     31824     31826     31828     31827     31829
     31831     31830     31832     31834     31833     31835     31837     31836     31838
     31840     31839     31841     31843     31842     31844     31846     31845     31847
     31849     31848     31850     31852     31851     31853     31855     31854     31856
     31858     31857     31859     31861     31860     31862     31864     31863     31865
     31867     31866     31868     31870     31869     31871     31873     31872     31874
     31876     31875     31877     31879     31878     31880     31882     31881     31883
     31885     31884     31886     31888     31887     31889     31891     31890     31892
     31894     31893     31895     31897     31896     31898     31900     31899     31901
     31903     31902     31904     31906     31905     31907     31909     31908     31910
     31912     31911     31913     31915     31914     31916     31918     31917     31919
     31921     31920     31922     31924     31923     31925     31927     31926     31928
     31930     31929     31931     31933     31932     31934     31936     31935     31937
     31939     31938     31940     31942     31941     31943     31945     31944     31946
     31948     31947     31949     31951     31950     31952     31954     31953     31955
     31957     31956     31958     31960     31959     31961     31963     31962     31964
     31966     31965     31967     31969     31968     31970     31972     31971     31973
     31975     31974     31976     31978     31977     31979     31981     31980     31982
     31984     31983     31985     31987     31986     31988     31990     31989     31991
     31993     31992     31994     31996     31995     31997     31999     31998     32000
     32002     32001     32003     32005     32004     32006     32008     32007     32009
     32011     32010     32012     32014     32013     32015     32017     32016     32018
     32020     32019     32021     32023     32022     32024     32026     32025     32027
     32029     32028     32030     32032     32031     32033     32035     32034     32036
     32038     32037     32039     32041     32040     32042     32044     32043     32045
     32047     32046     32048     32050     32049     32051     32053     32052     32054
     32056     32055     32057     32059     32058     32060     32062     32061     32063
     32065     32064     32066     32068     32067     32069     32071     32070     32072
     32074     32073     32075     32077     32076     32078     32080     32079     32081
     32083     32082     32084     32086     32085     32087     32089     32088     32090
     32092     32091     32093     32095     32094     32096     32098     32097     32099
     32101     32100     32102     32104     32103     32105     32107     32106     32108
     32110     32109     32111     32113     32112     32114     32116     32115     32117
     32119     32118     32120     32122     32121     32123     32125     32124     32126
     32128     32127     32129     32131     32130     32132     32134     32133     32135
     32137     32136     32138     32140     32139     32141     32143     32142     32144
     32146     32145     32147     32149     32148     32150     32152     32151     32153
     32155     32154     32156     32158     32157     32159     32161     32160     32162
     32164     32163     32165     32167     32166     32168     32170     32169     32171
     32173     32172     32174     32176     32175     32177     32179     32178     32180
     32182     32181     32183     32185     32184     32186     32188     32187     32189
     32191     32190     32192     32194     32193     32195     32197     32196     32198
     32200     32199     32201     32203     32202     32204     32206     32205     32207
     32209     32208     32210     32212     32211     32213     32215     32214     32216
     32218     32217     32219     32221     32220     32222     32224     32223     32225
     32227     32226     32228     32230     32229     32231     32233     32232     32234
     32236     32235     32237     32239     32238     32240     32242     32241     32243
     32245     32244     32246     32248     32247     32249     32251     32250     32252
     32254     32253     32255     32257     32256     32258     32260     32259     32261
     32263     32262     32264     32266     32265     32267     32269     32268     32270
     32272     32271     32273     32275     32274     32276     32278     32277     32279
     32281     32280     32282     32284     32283     32285     32287     32286     32288
     32290     32289     32291     32293     32292     32294     32296     32295     32297
     32299     32298     32300     32302     32301     32303     32305     32304     32306
     32308     32307     32309     32311     32310     32312     32314     32313     32315
     32317     32316     32318     32320     32319     32321     32323     32322     32324
     32326     32325     32327     32329     32328     32330     32332     32331     32333
     32335     32334     32336     32338     32337     32339     32341     32340     32342
     32344     32343     32345     32347     32346     32348     32350     32349     32351
     32353     32352     32354     32356     32355     32357     32359     32358     32360
     32362     32361     32363     32365     32364     32366     32368     32367     32369
     32371     32370     32372     32374     32373     32375     32377     32376     32378
     32380     32379     32381     32383     32382     32384     32386     32385     32387
     32389     32388     32390     32392     32391     32393     32395     32394     32396
     32398     32397     32399     32401     32400     32402     32404     32403     32405
     32407     32406     32408     32410     32409     32411     32413     32412     32414
     32416     32415     32417     32419     32418     32420     32422     32421     32423
     32425     32424     32426     32428     32427     32429     32431     32430     32432
     32434     32433     32435     32437     32436     32438     32440     32439     32441
     32443     32442     32444     32446     32445     32447     32449     32448     32450
     32452     32451     32453     32455     32454     32456     32458     32457     32459
     32461     32460     32462     32464     32463     32465     32467     32466     32468
     32470     32469     32471     32473     32472     32474     32476     32475     32477
     32479     32478     32480     32482     32481     32483     32485     32484     32486
     32488     32487     32489     32491     32490     32492     32494     32493     32495
     32497     32496     32498     32500     32499     32501     32503     32502     32504
     32506     32505     32507     32509     32508     32510     32512     32511     32513
     32515     32514     32516     32518     32517     32519     32521     32520     32522
     32524     32523     32525     32527     32526     32528     32530     32529     32531
     32533     32532     32534     32536     32535     32537     32539     32538     32540
     32542     32541     32543     32545     32544     32546     32548     32547     32549
     32551     32550     32552     32554     32553     32555     32557     32556     32558
     32560     32559     32561     32563     32562     32564     32566     32565     32567
     32569     32568     32570     32572     32571     32573     32575     32574     32576
     32578     32577     32579     32581     32580     32582     32584     32583     32585
     32587     32586     32588     32590     32589     32591     32593     32592     32594
     32596     32595     32597     32599     32598     32600     32602     32601     32603
     32605     32604     32606     32608     32607     32609     32611     32610     32612
     32614     32613     32615     32617     32616     32618     32620     32619     32621
     32623     32622     32624     32626     32625     32627     32629     32628     32630
     32632     32631     32633     32635     32634     32636     32638     32637     32639
     32641     32640     32642     32644     32643     32645     32647     32646     32648
     32650     32649     32651     32653     32652     32654     32656     32655     32657
     32659     32658     32660     32662     32661     32663     32665     32664     32666
     32668     32667     32669     32671     32670     32672     32674     32673     32675
     32677     32676     32678     32680     32679     32681     32683     32682     32684
     32686     32685     32687     32689     32688     32690     32692     32691     32693
     32695     32694     32696     32698     32697     32699     32701     32700     32702
     32704     32703     32705     32707     32706     32708     32710     32709     32711
     32713     32712     32714     32716     32715     32717     32719     32718     32720
     32722     32721     32723     32725     32724     32726     32728     32727     32729
     32731     32730     32732     32734     32733     32735     32737     32736     32738
     32740     32739     32741     32743     32742     32744     32746     32745     32747
     32749     32748     32750     32752     32751     32753     32755     32754     32756
     32758     32757     32759     32761     32760     32762     32764     32763     32765
     32767     32766     32768     32770     32769     32771     32773     32772     32774
     32776     32775     32777     32779     32778     32780     32782     32781     32783
     32785     32784     32786     32788     32787     32789     32791     32790     32792
     32794     32793     32795     32797     32796     32798     32800     32799     32801
     32803     32802     32804     32806     32805     32807     32809     32808     32810
     32812     32811     32813     32815     32814     32816     32818     32817     32819
     32821     32820     32822     32824     32823     32825     32827     32826     32828
     32830     32829     32831     32833     32832     32834     32836     32835     32837
     32839     32838     32840     32842     32841     32843     32845     32844     32846
     32848     32847     32849     32851     32850     32852     32854     32853     32855
     32857     32856     32858     32860     32859     32861     32863     32862     32864
     32866     32865     32867     32869     32868     32870     32872     32871     32873
     32875     32874     32876     32878     32877     32879     32881     32880     32882
     32884     32883     32885     32887     32886     32888     32890     32889     32891
     32893     32892     32894     32896     32895     32897     32899     32898     32900
     32902     32901     32903     32905     32904     32906     32908     32907     32909
     32911     32910     32912     32914     32913     32915     32917     32916     32918
     32920     32919     32921     32923     32922     32924     32926     32925     32927
     32929     32928     32930     32932     32931     32933     32935     32934     32936
     32938     32937     32939     32941     32940     32942     32944     32943     32945
     32947     32946     32948     32950     32949     32951     32953     32952     32954
     32956     32955     32957     32959     32958     32960     32962     32961     32963
     32965     32964     32966     32968     32967     32969     32971     32970     32972
     32974     32973     32975     32977     32976     32978     32980     32979     32981
     32983     32982     32984     32986     32985     32987     32989     32988     32990
     32992     32991     32993     32995     32994     32996     32998     32997     32999
     33001     33000     33002     33004     33003     33005     33007     33006     33008
     33010     33009     33011     33013     33012     33014     33016     33015     33017
     33019     33018     33020     33022     33021     33023     33025     33024     33026
     33028     33027     33029     33031     33030     33032     33034     33033     33035
     33037     33036     33038     33040     33039     33041     33043     33042     33044
     33046     33045     33047     33049     33048     33050     33052     33051     33053
     33055     33054     33056     33058     33057     33059     33061     33060     33062
     33064     33063     33065     33067     33066     33068     33070     33069     33071
     33073     33072     33074     33076     33075     33077     33079     33078     33080
     33082     33081     33083     33085     33084     33086     33088     33087     33089
     33091     33090     33092     33094     33093     33095     33097     33096     33098
     33100     33099     33101     33103     33102     33104     33106     33105     33107
     33109     33108     33110     33112     33111     33113     33115     33114     33116
     33118     33117     33119     33121     33120     33122     33124     33123     33125
     33127     33126     33128     33130     33129     33131     33133     33132     33134
     33136     33135     33137     33139     33138     33140     33142     33141     33143
     33145     33144     33146     33148     33147     33149     33151     33150     33152
     33154     33153     33155     33157     33156     33158     33160     33159     33161
     33163     33162     33164     33166     33165     33167     33169     33168     33170
     33172     33171     33173     33175     33174     33176     33178     33177     33179
     33181     33180     33182     33184     33183     33185     33187     33186     33188
     33190     33189     33191     33193     33192     33194     33196     33195     33197
     33199     33198     33200     33202     33201     33203     33205     33204     33206
     33208     33207     33209     33211     33210     33212     33214     33213     33215
     33217     33216     33218     33220     33219     33221     33223     33222     33224
     33226     33225     33227     33229     33228     33230     33232     33231     33233
     33235     33234     33236     33238     33237     33239     33241     33240     33242
     33244     33243     33245     33247     33246     33248     33250     33249     33251
     33253     33252     33254     33256     33255     33257     33259     33258     33260
     33262     33261     33263     33265     33264     33266     33268     33267     33269
     33271     33270     33272     33274     33273     33275     33277     33276     33278
     33280     33279     33281     33283     33282     33284     33286     33285     33287
     33289     33288     33290     33292     33291     33293     33295     33294     33296
     33298     33297     33299     33301     33300     33302     33304     33303     33305
     33307     33306     33308     33310     33309     33311     33313     33312     33314
     33316     33315     33317     33319     33318     33320     33322     33321     33323
     33325     33324     33326     33328     33327     33329     33331     33330     33332
     33334     33333     33335     33337     33336     33338     33340     33339     33341
     33343     33342     33344     33346     33345     33347     33349     33348     33350
     33352     33351     33353     33355     33354     33356     33358     33357     33359
     33361     33360     33362     33364     33363     33365     33367     33366     33368
     33370     33369     33371     33373     33372     33374     33376     33375     33377
     33379     33378     33380     33382     33381     33383     33385     33384     33386
     33388     33387     33389     33391     33390     33392     33394     33393     33395
     33397     33396     33398     33400     33399     33401     33403     33402     33404
     33406     33405     33407     33409     33408     33410     33412     33411     33413
     33415     33414     33416     33418     33417     33419     33421     33420     33422
     33424     33423     33425     33427     33426     33428     33430     33429     33431
     33433     33432     33434     33436     33435     33437     33439     33438     33440
     33442     33441     33443     33445     33444     33446     33448     33447     33449
     33451     33450     33452     33454     33453     33455     33457     33456     33458
     33460     33459     33461     33463     33462     33464     33466     33465     33467
     33469     33468     33470     33472     33471     33473     33475     33474     33476
     33478     33477     33479     33481     33480     33482     33484     33483     33485
     33487     33486     33488     33490     33489     33491     33493     33492     33494
     33496     33495     33497     33499     33498     33500     33502     33501     33503
     33505     33504     33506     33508     33507     33509     33511     33510     33512
     33514     33513     33515     33517     33516     33518     33520     33519     33521
     33523     33522     33524     33526     33525     33527     33529     33528     33530
     33532     33531     33533     33535     33534     33536     33538     33537     33539
     33541     33540     33542     33544     33543     33545     33547     33546     33548
     33550     33549     33551     33553     33552     33554     33556     33555     33557
     33559     33558     33560     33562     33561     33563     33565     33564     33566
     33568     33567     33569     33571     33570     33572     33574     33573     33575
     33577     33576     33578     33580     33579     33581     33583     33582     33584
     33586     33585     33587     33589     33588     33590     33592     33591     33593
     33595     33594     33596     33598     33597     33599     33601     33600     33602
     33604     33603     33605     33607     33606     33608     33610     33609     33611
     33613     33612     33614     33616     33615     33617     33619     33618     33620
     33622     33621     33623     33625     33624     33626     33628     33627     33629
     33631     33630     33632     33634     33633     33635     33637     33636     33638
     33640     33639     33641     33643     33642     33644     33646     33645     33647
     33649     33648     33650     33652     33651     33653     33655     33654     33656
     33658     33657     33659     33661     33660     33662     33664     33663     33665
     33667     33666     33668     33670     33669     33671     33673     33672     33674
     33676     33675     33677     33679     33678     33680     33682     33681     33683
     33685     33684     33686     33688     33687     33689     33691     33690     33692
     33694     33693     33695     33697     33696     33698     33700     33699     33701
     33703     33702     33704     33706     33705     33707     33709     33708     33710
     33712     33711     33713     33715     33714     33716     33718     33717     33719
     33721     33720     33722     33724     33723     33725     33727     33726     33728
     33730     33729     33731     33733     33732     33734     33736     33735     33737
     33739     33738     33740     33742     33741     33743     33745     33744     33746
     33748     33747     33749     33751     33750     33752     33754     33753     33755
     33757     33756     33758     33760     33759     33761     33763     33762     33764
     33766     33765     33767     33769     33768     33770     33772     33771     33773
     33775     33774     33776     33778     33777     33779     33781     33780     33782
     33784     33783     33785     33787     33786     33788     33790     33789     33791
     33793     33792     33794     33796     33795     33797     33799     33798     33800
     33802     33801     33803     33805     33804     33806     33808     33807     33809
     33811     33810     33812     33814     33813     33815     33817     33816     33818
     33820     33819     33821     33823     33822     33824     33826     33825     33827
     33829     33828     33830     33832     33831     33833     33835     33834     33836
     33838     33837     33839     33841     33840     33842     33844     33843     33845
     33847     33846     33848     33850     33849     33851     33853     33852     33854
     33856     33855     33857     33859     33858     33860     33862     33861     33863
     33865     33864     33866     33868     33867     33869     33871     33870     33872
     33874     33873     33875     33877     33876     33878     33880     33879     33881
     33883     33882     33884     33886     33885     33887     33889     33888     33890
     33892     33891     33893     33895     33894     33896     33898     33897     33899
     33901     33900     33902     33904     33903     33905     33907     33906     33908
     33910     33909     33911     33913     33912     33914     33916     33915     33917
     33919     33918     33920     33922     33921     33923     33925     33924     33926
     33928     33927     33929     33931     33930     33932     33934     33933     33935
     33937     33936     33938     33940     33939     33941     33943     33942     33944
     33946     33945     33947     33949     33948     33950     33952     33951     33953
     33955     33954     33956     33958     33957     33959     33961     33960     33962
     33964     33963     33965     33967     33966     33968     33970     33969     33971
     33973     33972     33974     33976     33975     33977     33979     33978     33980
     33982     33981     33983     33985     33984     33986     33988     33987     33989
     33991     33990     33992     33994     33993     33995     33997     33996     33998
     34000     33999     34001     34003     34002     34004     34006     34005     34007
     34009     34008     34010     34012     34011     34013     34015     34014     34016
     34018     34017     34019     34021     34020     34022     34024     34023     34025
     34027     34026     34028     34030     34029     34031     34033     34032     34034
     34036     34035     34037     34039     34038     34040     34042     34041     34043
     34045     34044     34046     34048     34047     34049     34051     34050     34052
     34054     34053     34055     34057     34056     34058     34060     34059     34061
     34063     34062     34064     34066     34065     34067     34069     34068     34070
     34072     34071     34073     34075     34074     34076     34078     34077     34079
     34081     34080     34082     34084     34083     34085     34087     34086     34088
     34090     34089     34091     34093     34092     34094     34096     34095     34097
     34099     34098     34100     34102     34101     34103     34105     34104     34106
     34108     34107     34109     34111     34110     34112     34114     34113     34115
     34117     34116     34118     34120     34119     34121     34123     34122     34124
     34126     34125     34127     34129     34128     34130     34132     34131     34133
     34135     34134     34136     34138     34137     34139     34141     34140     34142
     34144     34143     34145     34147     34146     34148     34150     34149     34151
     34153     34152     34154     34156     34155     34157     34159     34158     34160
     34162     34161     34163     34165     34164     34166     34168     34167     34169
     34171     34170     34172     34174     34173     34175     34177     34176     34178
     34180     34179     34181     34183     34182     34184     34186     34185     34187
     34189     34188     34190     34192     34191     34193     34195     34194     34196
     34198     34197     34199     34201     34200     34202     34204     34203     34205
     34207     34206     34208     34210     34209     34211     34213     34212     34214
     34216     34215     34217     34219     34218     34220     34222     34221     34223
     34225     34224     34226     34228     34227     34229     34231     34230     34232
     34234     34233     34235     34237     34236     34238     34240     34239     34241
     34243     34242     34244     34246     34245     34247     34249     34248     34250
     34252     34251     34253     34255     34254     34256     34258     34257     34259
     34261     34260     34262     34264     34263     34265     34267     34266     34268
     34270     34269     34271     34273     34272     34274     34276     34275     34277
     34279     34278     34280     34282     34281     34283     34285     34284     34286
     34288     34287     34289     34291     34290     34292     34294     34293     34295
     34297     34296     34298     34300     34299     34301     34303     34302     34304
     34306     34305     34307     34309     34308     34310     34312     34311     34313
     34315     34314     34316     34318     34317     34319     34321     34320     34322
     34324     34323     34325     34327     34326     34328     34330     34329     34331
     34333     34332     34334     34336     34335     34337     34339     34338     34340
     34342     34341     34343     34345     34344     34346     34348     34347     34349
     34351     34350     34352     34354     34353     34355     34357     34356     34358
     34360     34359     34361     34363     34362     34364     34366     34365     34367
     34369     34368     34370     34372     34371     34373     34375     34374     34376
     34378     34377     34379     34381     34380     34382     34384     34383     34385
     34387     34386     34388     34390     34389     34391     34393     34392     34394
     34396     34395     34397     34399     34398     34400     34402     34401     34403
     34405     34404     34406     34408     34407     34409     34411     34410     34412
     34414     34413     34415     34417     34416     34418     34420     34419     34421
     34423     34422     34424     34426     34425     34427     34429     34428     34430
     34432     34431     34433     34435     34434     34436     34438     34437     34439
     34441     34440     34442     34444     34443     34445     34447     34446     34448
     34450     34449     34451     34453     34452     34454     34456     34455     34457
     34459     34458     34460     34462     34461     34463     34465     34464     34466
     34468     34467     34469     34471     34470     34472     34474     34473     34475
     34477     34476     34478     34480     34479     34481     34483     34482     34484
     34486     34485     34487     34489     34488     34490     34492     34491     34493
     34495     34494     34496     34498     34497     34499     34501     34500     34502
     34504     34503     34505     34507     34506     34508     34510     34509     34511
     34513     34512     34514     34516     34515     34517     34519     34518     34520
     34522     34521     34523     34525     34524     34526     34528     34527     34529
     34531     34530     34532     34534     34533     34535     34537     34536     34538
     34540     34539     34541     34543     34542     34544     34546     34545     34547
     34549     34548     34550     34552     34551     34553     34555     34554     34556
     34558     34557     34559     34561     34560     34562     34564     34563     34565
     34567     34566     34568     34570     34569     34571     34573     34572     34574
     34576     34575     34577     34579     34578     34580     34582     34581     34583
     34585     34584     34586     34588     34587     34589     34591     34590     34592
     34594     34593     34595     34597     34596     34598     34600     34599     34601
     34603     34602     34604     34606     34605     34607     34609     34608     34610
     34612     34611     34613     34615     34614     34616     34618     34617     34619
     34621     34620     34622     34624     34623     34625     34627     34626     34628
     34630     34629     34631     34633     34632     34634     34636     34635     34637
     34639     34638     34640     34642     34641     34643     34645     34644     34646
     34648     34647     34649     34651     34650     34652     34654     34653     34655
     34657     34656     34658     34660     34659     34661     34663     34662     34664
     34666     34665     34667     34669     34668     34670     34672     34671     34673
     34675     34674     34676     34678     34677     34679     34681     34680     34682
     34684     34683     34685     34687     34686     34688     34690     34689     34691
     34693     34692     34694     34696     34695     34697     34699     34698     34700
     34702     34701     34703     34705     34704     34706     34708     34707     34709
     34711     34710     34712     34714     34713     34715     34717     34716     34718
     34720     34719     34721     34723     34722     34724     34726     34725     34727
     34729     34728     34730     34732     34731     34733     34735     34734     34736
     34738     34737     34739     34741     34740     34742     34744     34743     34745
     34747     34746     34748     34750     34749     34751     34753     34752     34754
     34756     34755     34757     34759     34758     34760     34762     34761     34763
     34765     34764     34766     34768     34767     34769     34771     34770     34772
     34774     34773     34775     34777     34776     34778     34780     34779     34781
     34783     34782     34784     34786     34785     34787     34789     34788     34790
     34792     34791     34793     34795     34794     34796     34798     34797     34799
     34801     34800     34802     34804     34803     34805     34807     34806     34808
     34810     34809     34811     34813     34812     34814     34816     34815     34817
     34819     34818     34820     34822     34821     34823     34825     34824     34826
     34828     34827     34829     34831     34830     34832     34834     34833     34835
     34837     34836     34838     34840     34839     34841     34843     34842     34844
     34846     34845     34847     34849     34848     34850     34852     34851     34853
     34855     34854     34856     34858     34857     34859     34861     34860     34862
     34864     34863     34865     34867     34866     34868     34870     34869     34871
     34873     34872     34874     34876     34875     34877     34879     34878     34880
     34882     34881     34883     34885     34884     34886     34888     34887     34889
     34891     34890     34892     34894     34893     34895     34897     34896     34898
     34900     34899     34901     34903     34902     34904     34906     34905     34907
     34909     34908     34910     34912     34911     34913     34915     34914     34916
     34918     34917     34919     34921     34920     34922     34924     34923     34925
     34927     34926     34928     34930     34929     34931     34933     34932     34934
     34936     34935     34937     34939     34938     34940     34942     34941     34943
     34945     34944     34946     34948     34947     34949     34951     34950     34952
     34954     34953     34955     34957     34956     34958     34960     34959     34961
     34963     34962     34964     34966     34965     34967     34969     34968     34970
     34972     34971     34973     34975     34974     34976     34978     34977     34979
     34981     34980     34982     34984     34983     34985     34987     34986     34988
     34990     34989     34991     34993     34992     34994     34996     34995     34997
     34999     34998     35000     35002     35001     35003     35005     35004     35006
     35008     35007     35009     35011     35010     35012     35014     35013     35015
     35017     35016     35018     35020     35019     35021     35023     35022     35024
     35026     35025     35027     35029     35028     35030     35032     35031     35033
     35035     35034     35036     35038     35037     35039     35041     35040     35042
     35044     35043     35045     35047     35046     35048     35050     35049     35051
     35053     35052     35054     35056     35055     35057     35059     35058     35060
     35062     35061     35063     35065     35064     35066     35068     35067     35069
     35071     35070     35072     35074     35073     35075     35077     35076     35078
     35080     35079     35081     35083     35082     35084     35086     35085     35087
     35089     35088     35090     35092     35091     35093     35095     35094     35096
     35098     35097     35099     35101     35100     35102     35104     35103     35105
     35107     35106     35108     35110     35109     35111     35113     35112     35114
     35116     35115     35117     35119     35118     35120     35122     35121     35123
     35125     35124     35126     35128     35127     35129     35131     35130     35132
     35134     35133     35135     35137     35136     35138     35140     35139     35141
     35143     35142     35144     35146     35145     35147     35149     35148     35150
     35152     35151     35153     35155     35154     35156     35158     35157     35159
     35161     35160     35162     35164     35163     35165     35167     35166     35168
     35170     35169     35171     35173     35172     35174     35176     35175     35177
     35179     35178     35180     35182     35181     35183     35185     35184     35186
     35188     35187     35189     35191     35190     35192     35194     35193     35195
     35197     35196     35198     35200     35199     35201     35203     35202     35204
     35206     35205     35207     35209     35208     35210     35212     35211     35213
     35215     35214     35216     35218     35217     35219     35221     35220     35222
     35224     35223     35225     35227     35226     35228     35230     35229     35231
     35233     35232     35234     35236     35235     35237     35239     35238     35240
     35242     35241     35243     35245     35244     35246     35248     35247     35249
     35251     35250     35252     35254     35253     35255     35257     35256     35258
     35260     35259     35261     35263     35262     35264     35266     35265     35267
     35269     35268     35270     35272     35271     35273     35275     35274     35276
     35278     35277     35279     35281     35280     35282     35284     35283     35285
     35287     35286     35288     35290     35289     35291     35293     35292     35294
     35296     35295     35297     35299     35298     35300     35302     35301     35303
     35305     35304     35306     35308     35307     35309     35311     35310     35312
     35314     35313     35315     35317     35316     35318     35320     35319     35321
     35323     35322     35324     35326     35325     35327     35329     35328     35330
     35332     35331     35333     35335     35334     35336     35338     35337     35339
     35341     35340     35342     35344     35343     35345     35347     35346     35348
     35350     35349     35351     35353     35352     35354     35356     35355     35357
     35359     35358     35360     35362     35361     35363     35365     35364     35366
     35368     35367     35369     35371     35370     35372     35374     35373     35375
     35377     35376     35378     35380     35379     35381     35383     35382     35384
     35386     35385     35387     35389     35388     35390     35392     35391     35393
     35395     35394     35396     35398     35397     35399     35401     35400     35402
     35404     35403     35405     35407     35406     35408     35410     35409     35411
     35413     35412     35414     35416     35415     35417     35419     35418     35420
     35422     35421     35423     35425     35424     35426     35428     35427     35429
     35431     35430     35432     35434     35433     35435     35437     35436     35438
     35440     35439     35441     35443     35442     35444     35446     35445     35447
     35449     35448     35450     35452     35451     35453     35455     35454     35456
     35458     35457     35459     35461     35460     35462     35464     35463     35465
     35467     35466     35468     35470     35469     35471     35473     35472     35474
     35476     35475     35477     35479     35478     35480     35482     35481     35483
     35485     35484     35486     35488     35487     35489     35491     35490     35492
     35494     35493     35495     35497     35496     35498     35500     35499     35501
     35503     35502     35504     35506     35505     35507     35509     35508     35510
     35512     35511     35513     35515     35514     35516     35518     35517     35519
     35521     35520     35522     35524     35523     35525     35527     35526     35528
     35530     35529     35531     35533     35532     35534     35536     35535     35537
     35539     35538     35540     35542     35541     35543     35545     35544     35546
     35548     35547     35549     35551     35550     35552     35554     35553     35555
     35557     35556     35558     35560     35559     35561     35563     35562     35564
     35566     35565     35567     35569     35568     35570     35572     35571     35573
     35575     35574     35576     35578     35577     35579     35581     35580     35582
     35584     35583     35585     35587     35586     35588     35590     35589     35591
     35593     35592     35594     35596     35595     35597     35599     35598     35600
     35602     35601     35603     35605     35604     35606     35608     35607     35609
     35611     35610     35612     35614     35613     35615     35617     35616     35618
     35620     35619     35621     35623     35622     35624     35626     35625     35627
     35629     35628     35630     35632     35631     35633     35635     35634     35636
     35638     35637     35639     35641     35640     35642     35644     35643     35645
     35647     35646     35648     35650     35649     35651     35653     35652     35654
     35656     35655     35657     35659     35658     35660     35662     35661     35663
     35665     35664     35666     35668     35667     35669     35671     35670     35672
     35674     35673     35675     35677     35676     35678     35680     35679     35681
     35683     35682     35684     35686     35685     35687     35689     35688     35690
     35692     35691     35693     35695     35694     35696     35698     35697     35699
     35701     35700     35702     35704     35703     35705     35707     35706     35708
     35710     35709     35711     35713     35712     35714     35716     35715     35717
     35719     35718     35720     35722     35721     35723     35725     35724     35726
     35728     35727     35729     35731     35730     35732     35734     35733     35735
     35737     35736     35738     35740     35739     35741     35743     35742     35744
     35746     35745     35747     35749     35748     35750     35752     35751     35753
     35755     35754     35756     35758     35757     35759     35761     35760     35762
     35764     35763     35765     35767     35766     35768     35770     35769     35771
     35773     35772     35774     35776     35775     35777     35779     35778     35780
     35782     35781     35783     35785     35784     35786     35788     35787     35789
     35791     35790     35792     35794     35793     35795     35797     35796     35798
     35800     35799     35801     35803     35802     35804     35806     35805     35807
     35809     35808     35810     35812     35811     35813     35815     35814     35816
     35818     35817     35819     35821     35820     35822     35824     35823     35825
     35827     35826     35828     35830     35829     35831     35833     35832     35834
     35836     35835     35837     35839     35838     35840     35842     35841     35843
     35845     35844     35846     35848     35847     35849     35851     35850     35852
     35854     35853     35855     35857     35856     35858     35860     35859     35861
     35863     35862     35864     35866     35865     35867     35869     35868     35870
     35872     35871     35873     35875     35874     35876     35878     35877     35879
     35881     35880     35882     35884     35883     35885     35887     35886     35888
     35890     35889     35891     35893     35892     35894     35896     35895     35897
     35899     35898     35900     35902     35901     35903     35905     35904     35906
     35908     35907     35909     35911     35910     35912     35914     35913     35915
     35917     35916     35918     35920     35919     35921     35923     35922     35924
     35926     35925     35927     35929     35928     35930     35932     35931     35933
     35935     35934     35936     35938     35937     35939     35941     35940     35942
     35944     35943     35945     35947     35946     35948     35950     35949     35951
     35953     35952     35954     35956     35955     35957     35959     35958     35960
     35962     35961     35963     35965     35964     35966     35968     35967     35969
     35971     35970     35972     35974     35973     35975     35977     35976     35978
     35980     35979     35981     35983     35982     35984     35986     35985     35987
     35989     35988     35990     35992     35991     35993     35995     35994     35996
     35998     35997     35999     36001     36000     36002     36004     36003     36005
     36007     36006     36008     36010     36009     36011     36013     36012     36014
     36016     36015     36017     36019     36018     36020     36022     36021     36023
     36025     36024     36026     36028     36027     36029     36031     36030     36032
     36034     36033     36035     36037     36036     36038     36040     36039     36041
     36043     36042     36044     36046     36045     36047     36049     36048     36050
     36052     36051     36053     36055     36054     36056     36058     36057     36059
     36061     36060     36062     36064     36063     36065     36067     36066     36068
     36070     36069     36071     36073     36072     36074     36076     36075     36077
     36079     36078     36080     36082     36081     36083     36085     36084     36086
     36088     36087     36089     36091     36090     36092     36094     36093     36095
     36097     36096     36098     36100     36099     36101     36103     36102     36104
     36106     36105     36107     36109     36108     36110     36112     36111     36113
     36115     36114     36116     36118     36117     36119     36121     36120     36122
     36124     36123     36125     36127     36126     36128     36130     36129     36131
     36133     36132     36134     36136     36135     36137     36139     36138     36140
     36142     36141     36143     36145     36144     36146     36148     36147     36149
     36151     36150     36152     36154     36153     36155     36157     36156     36158
     36160     36159     36161     36163     36162     36164     36166     36165     36167
     36169     36168     36170     36172     36171     36173     36175     36174     36176
     36178     36177     36179     36181     36180     36182     36184     36183     36185
     36187     36186     36188     36190     36189     36191     36193     36192     36194
     36196     36195     36197     36199     36198     36200     36202     36201     36203
     36205     36204     36206     36208     36207     36209     36211     36210     36212
     36214     36213     36215     36217     36216     36218     36220     36219     36221
     36223     36222     36224     36226     36225     36227     36229     36228     36230
     36232     36231     36233     36235     36234     36236     36238     36237     36239
     36241     36240     36242     36244     36243     36245     36247     36246     36248
     36250     36249     36251     36253     36252     36254     36256     36255     36257
     36259     36258     36260     36262     36261     36263     36265     36264     36266
     36268     36267     36269     36271     36270     36272     36274     36273     36275
     36277     36276     36278     36280     36279     36281     36283     36282     36284
     36286     36285     36287     36289     36288     36290     36292     36291     36293
     36295     36294     36296     36298     36297     36299     36301     36300     36302
     36304     36303     36305     36307     36306     36308     36310     36309     36311
     36313     36312     36314     36316     36315     36317     36319     36318     36320
     36322     36321     36323     36325     36324     36326     36328     36327     36329
     36331     36330     36332     36334     36333     36335     36337     36336     36338
     36340     36339     36341     36343     36342     36344     36346     36345     36347
     36349     36348     36350     36352     36351     36353     36355     36354     36356
     36358     36357     36359     36361     36360     36362     36364     36363     36365
     36367     36366     36368     36370     36369     36371     36373     36372     36374
     36376     36375     36377     36379     36378     36380     36382     36381     36383
     36385     36384     36386     36388     36387     36389     36391     36390     36392
     36394     36393     36395     36397     36396     36398     36400     36399     36401
     36403     36402     36404     36406     36405     36407     36409     36408     36410
     36412     36411     36413     36415     36414     36416     36418     36417     36419
     36421     36420     36422     36424     36423     36425     36427     36426     36428
     36430     36429     36431     36433     36432     36434     36436     36435     36437
     36439     36438     36440     36442     36441     36443     36445     36444     36446
     36448     36447     36449     36451     36450     36452     36454     36453     36455
     36457     36456     36458     36460     36459     36461     36463     36462     36464
     36466     36465     36467     36469     36468     36470     36472     36471     36473
     36475     36474     36476     36478     36477     36479     36481     36480     36482
     36484     36483     36485     36487     36486     36488     36490     36489     36491
     36493     36492     36494     36496     36495     36497     36499     36498     36500
     36502     36501     36503     36505     36504     36506     36508     36507     36509
     36511     36510     36512     36514     36513     36515     36517     36516     36518
     36520     36519     36521     36523     36522     36524     36526     36525     36527
     36529     36528     36530     36532     36531     36533     36535     36534     36536
     36538     36537     36539     36541     36540     36542     36544     36543     36545
     36547     36546     36548     36550     36549     36551     36553     36552     36554
     36556     36555     36557     36559     36558     36560     36562     36561     36563
     36565     36564     36566     36568     36567     36569     36571     36570     36572
     36574     36573     36575     36577     36576     36578     36580     36579     36581
     36583     36582     36584     36586     36585     36587     36589     36588     36590
     36592     36591     36593     36595     36594     36596     36598     36597     36599
     36601     36600     36602     36604     36603     36605     36607     36606     36608
     36610     36609     36611     36613     36612     36614     36616     36615     36617
     36619     36618     36620     36622     36621     36623     36625     36624     36626
     36628     36627     36629     36631     36630     36632     36634     36633     36635
     36637     36636     36638     36640     36639     36641     36643     36642     36644
     36646     36645     36647     36649     36648     36650     36652     36651     36653
     36655     36654     36656     36658     36657     36659     36661     36660     36662
     36664     36663     36665     36667     36666     36668     36670     36669     36671
     36673     36672     36674     36676     36675     36677     36679     36678     36680
     36682     36681     36683     36685     36684     36686     36688     36687     36689
     36691     36690     36692     36694     36693     36695     36697     36696     36698
     36700     36699     36701     36703     36702     36704     36706     36705     36707
     36709     36708     36710     36712     36711     36713     36715     36714     36716
     36718     36717     36719     36721     36720     36722     36724     36723     36725
     36727     36726     36728     36730     36729     36731     36733     36732     36734
     36736     36735     36737     36739     36738     36740     36742     36741     36743
     36745     36744     36746     36748     36747     36749     36751     36750     36752
     36754     36753     36755     36757     36756     36758     36760     36759     36761
     36763     36762     36764     36766     36765     36767     36769     36768     36770
     36772     36771     36773     36775     36774     36776     36778     36777     36779
     36781     36780     36782     36784     36783     36785     36787     36786     36788
     36790     36789     36791     36793     36792     36794     36796     36795     36797
     36799     36798     36800     36802     36801     36803     36805     36804     36806
     36808     36807     36809     36811     36810     36812     36814     36813     36815
     36817     36816     36818     36820     36819     36821     36823     36822     36824
     36826     36825     36827     36829     36828     36830     36832     36831     36833
     36835     36834     36836     36838     36837     36839     36841     36840     36842
     36844     36843     36845     36847     36846     36848     36850     36849     36851
     36853     36852     36854     36856     36855     36857     36859     36858     36860
     36862     36861     36863     36865     36864     36866     36868     36867     36869
     36871     36870     36872     36874     36873     36875     36877     36876     36878
     36880     36879     36881     36883     36882     36884     36886     36885     36887
     36889     36888     36890     36892     36891     36893     36895     36894     36896
     36898     36897     36899     36901     36900     36902     36904     36903     36905
     36907     36906     36908     36910     36909     36911     36913     36912     36914
     36916     36915     36917     36919     36918     36920     36922     36921     36923
     36925     36924     36926     36928     36927     36929     36931     36930     36932
     36934     36933     36935     36937     36936     36938     36940     36939     36941
     36943     36942     36944     36946     36945     36947     36949     36948     36950
     36952     36951     36953     36955     36954     36956     36958     36957     36959
     36961     36960     36962     36964     36963     36965     36967     36966     36968
     36970     36969     36971     36973     36972     36974     36976     36975     36977
     36979     36978     36980     36982     36981     36983     36985     36984     36986
     36988     36987     36989     36991     36990     36992     36994     36993     36995
     36997     36996     36998     37000     36999     37001     37003     37002     37004
     37006     37005     37007     37009     37008     37010     37012     37011     37013
     37015     37014     37016     37018     37017     37019     37021     37020     37022
     37024     37023     37025     37027     37026     37028     37030     37029     37031
     37033     37032     37034     37036     37035     37037     37039     37038     37040
     37042     37041     37043     37045     37044     37046     37048     37047     37049
     37051     37050     37052     37054     37053     37055     37057     37056     37058
     37060     37059     37061     37063     37062     37064     37066     37065     37067
     37069     37068     37070     37072     37071     37073     37075     37074     37076
     37078     37077     37079     37081     37080     37082     37084     37083     37085
     37087     37086     37088     37090     37089     37091     37093     37092     37094
     37096     37095     37097     37099     37098     37100     37102     37101     37103
     37105     37104     37106     37108     37107     37109     37111     37110     37112
     37114     37113     37115     37117     37116     37118     37120     37119     37121
     37123     37122     37124     37126     37125     37127     37129     37128     37130
     37132     37131     37133     37135     37134     37136     37138     37137     37139
     37141     37140     37142     37144     37143     37145     37147     37146     37148
     37150     37149     37151     37153     37152     37154     37156     37155     37157
     37159     37158     37160     37162     37161     37163     37165     37164     37166
     37168     37167     37169     37171     37170     37172     37174     37173     37175
     37177     37176     37178     37180     37179     37181     37183     37182     37184
     37186     37185     37187     37189     37188     37190     37192     37191     37193
     37195     37194     37196     37198     37197     37199     37201     37200     37202
     37204     37203     37205     37207     37206     37208     37210     37209     37211
     37213     37212     37214     37216     37215     37217     37219     37218     37220
     37222     37221     37223     37225     37224     37226     37228     37227     37229
     37231     37230     37232     37234     37233     37235     37237     37236     37238
     37240     37239     37241     37243     37242     37244     37246     37245     37247
     37249     37248     37250     37252     37251     37253     37255     37254     37256
     37258     37257     37259     37261     37260     37262     37264     37263     37265
     37267     37266     37268     37270     37269     37271     37273     37272     37274
     37276     37275     37277     37279     37278     37280     37282     37281     37283
     37285     37284     37286     37288     37287     37289     37291     37290     37292
     37294     37293     37295     37297     37296     37298     37300     37299     37301
     37303     37302     37304     37306     37305     37307     37309     37308     37310
     37312     37311     37313     37315     37314     37316     37318     37317     37319
     37321     37320     37322     37324     37323     37325     37327     37326     37328
     37330     37329     37331     37333     37332     37334     37336     37335     37337
     37339     37338     37340     37342     37341     37343     37345     37344     37346
     37348     37347     37349     37351     37350     37352     37354     37353     37355
     37357     37356     37358     37360     37359     37361     37363     37362     37364
     37366     37365     37367     37369     37368     37370     37372     37371     37373
     37375     37374     37376     37378     37377     37379     37381     37380     37382
     37384     37383     37385     37387     37386     37388     37390     37389     37391
     37393     37392     37394     37396     37395     37397     37399     37398     37400
     37402     37401     37403     37405     37404     37406     37408     37407     37409
     37411     37410     37412     37414     37413     37415     37417     37416     37418
     37420     37419     37421     37423     37422     37424     37426     37425     37427
     37429     37428     37430     37432     37431     37433     37435     37434     37436
     37438     37437     37439     37441     37440     37442     37444     37443     37445
     37447     37446     37448     37450     37449     37451     37453     37452     37454
     37456     37455     37457     37459     37458     37460     37462     37461     37463
     37465     37464     37466     37468     37467     37469     37471     37470     37472
     37474     37473     37475     37477     37476     37478     37480     37479     37481
     37483     37482     37484     37486     37485     37487     37489     37488     37490
     37492     37491     37493     37495     37494     37496     37498     37497     37499
     37501     37500     37502     37504     37503     37505     37507     37506     37508
     37510     37509     37511     37513     37512     37514     37516     37515     37517
     37519     37518     37520     37522     37521     37523     37525     37524     37526
     37528     37527     37529     37531     37530     37532     37534     37533     37535
     37537     37536     37538     37540     37539     37541     37543     37542     37544
     37546     37545     37547     37549     37548     37550     37552     37551     37553
     37555     37554     37556     37558     37557     37559     37561     37560     37562
     37564     37563     37565     37567     37566     37568     37570     37569     37571
     37573     37572     37574     37576     37575     37577     37579     37578     37580
     37582     37581     37583     37585     37584     37586     37588     37587     37589
     37591     37590     37592     37594     37593     37595     37597     37596     37598
     37600     37599     37601     37603     37602     37604     37606     37605     37607
     37609     37608     37610     37612     37611     37613     37615     37614     37616
     37618     37617     37619     37621     37620     37622     37624     37623     37625
     37627     37626     37628     37630     37629     37631     37633     37632     37634
     37636     37635     37637     37639     37638     37640     37642     37641     37643
     37645     37644     37646     37648     37647     37649     37651     37650     37652
     37654     37653     37655     37657     37656     37658     37660     37659     37661
     37663     37662     37664     37666     37665     37667     37669     37668     37670
     37672     37671     37673     37675     37674     37676     37678     37677     37679
     37681     37680     37682     37684     37683     37685     37687     37686     37688
     37690     37689     37691     37693     37692     37694     37696     37695     37697
     37699     37698     37700     37702     37701     37703     37705     37704     37706
     37708     37707     37709     37711     37710     37712     37714     37713     37715
     37717     37716     37718     37720     37719     37721     37723     37722     37724
     37726     37725     37727     37729     37728     37730     37732     37731     37733
     37735     37734     37736     37738     37737     37739     37741     37740     37742
     37744     37743     37745     37747     37746     37748     37750     37749     37751
     37753     37752     37754     37756     37755     37757     37759     37758     37760
     37762     37761     37763     37765     37764     37766     37768     37767     37769
     37771     37770     37772     37774     37773     37775     37777     37776     37778
     37780     37779     37781     37783     37782     37784     37786     37785     37787
     37789     37788     37790     37792     37791     37793     37795     37794     37796
     37798     37797     37799     37801     37800     37802     37804     37803     37805
     37807     37806     37808     37810     37809     37811     37813     37812     37814
     37816     37815     37817     37819     37818     37820     37822     37821     37823
     37825     37824     37826     37828     37827     37829     37831     37830     37832
     37834     37833     37835     37837     37836     37838     37840     37839     37841
     37843     37842     37844     37846     37845     37847     37849     37848     37850
     37852     37851     37853     37855     37854     37856     37858     37857     37859
     37861     37860     37862     37864     37863     37865     37867     37866     37868
     37870     37869     37871     37873     37872     37874     37876     37875     37877
     37879     37878     37880     37882     37881     37883     37885     37884     37886
     37888     37887     37889     37891     37890     37892     37894     37893     37895
     37897     37896     37898     37900     37899     37901     37903     37902     37904
     37906     37905     37907     37909     37908     37910     37912     37911     37913
     37915     37914     37916     37918     37917     37919     37921     37920     37922
     37924     37923     37925     37927     37926     37928     37930     37929     37931
     37933     37932     37934     37936     37935     37937     37939     37938     37940
     37942     37941     37943     37945     37944     37946     37948     37947     37949
     37951     37950     37952     37954     37953     37955     37957     37956     37958
     37960     37959     37961     37963     37962     37964     37966     37965     37967
     37969     37968     37970     37972     37971     37973     37975     37974     37976
     37978     37977     37979     37981     37980     37982     37984     37983     37985
     37987     37986     37988     37990     37989     37991     37993     37992     37994
     37996     37995     37997     37999     37998     38000     38002     38001     38003
     38005     38004     38006     38008     38007     38009     38011     38010     38012
     38014     38013     38015     38017     38016     38018     38020     38019     38021
     38023     38022     38024     38026     38025     38027     38029     38028     38030
     38032     38031     38033     38035     38034     38036     38038     38037     38039
     38041     38040     38042     38044     38043     38045     38047     38046     38048
     38050     38049     38051     38053     38052     38054     38056     38055     38057
     38059     38058     38060     38062     38061     38063     38065     38064     38066
     38068     38067     38069     38071     38070     38072     38074     38073     38075
     38077     38076     38078     38080     38079     38081     38083     38082     38084
     38086     38085     38087     38089     38088     38090     38092     38091     38093
     38095     38094     38096     38098     38097     38099     38101     38100     38102
     38104     38103     38105     38107     38106     38108     38110     38109     38111
     38113     38112     38114     38116     38115     38117     38119     38118     38120
     38122     38121     38123     38125     38124     38126     38128     38127     38129
     38131     38130     38132     38134     38133     38135     38137     38136     38138
     38140     38139     38141     38143     38142     38144     38146     38145     38147
     38149     38148     38150     38152     38151     38153     38155     38154     38156
     38158     38157     38159     38161     38160     38162     38164     38163     38165
     38167     38166     38168     38170     38169     38171     38173     38172     38174
     38176     38175     38177     38179     38178     38180     38182     38181     38183
     38185     38184     38186     38188     38187     38189     38191     38190     38192
     38194     38193     38195     38197     38196     38198     38200     38199     38201
     38203     38202     38204     38206     38205     38207     38209     38208     38210
     38212     38211     38213     38215     38214     38216     38218     38217     38219
     38221     38220     38222     38224     38223     38225     38227     38226     38228
     38230     38229     38231     38233     38232     38234     38236     38235     38237
     38239     38238     38240     38242     38241     38243     38245     38244     38246
     38248     38247     38249     38251     38250     38252     38254     38253     38255
     38257     38256     38258     38260     38259     38261     38263     38262     38264
     38266     38265     38267     38269     38268     38270     38272     38271     38273
     38275     38274     38276     38278     38277     38279     38281     38280     38282
     38284     38283     38285     38287     38286     38288     38290     38289     38291
     38293     38292     38294     38296     38295     38297     38299     38298     38300
     38302     38301     38303     38305     38304     38306     38308     38307     38309
     38311     38310     38312     38314     38313     38315     38317     38316     38318
     38320     38319     38321     38323     38322     38324     38326     38325     38327
     38329     38328     38330

     49288 !NPHI: dihedrals
         1         5         8         9         1         5         8        10
         2         1         5         6         2         1         5         7
         2         1         5         8         3         1         5         6
         3         1         5         7         3         1         5         8
         4         1         5         6         4         1         5         7
         4         1         5         8         5         8        10        11
         5         8        10        12         6         5         8         9
         6         5         8        10         7         5         8         9
         7         5         8        10         8        10        12        13
         8        10        12        14         8        10        12        18
         9         8        10        11         9         8        10        12
        10        12        14        15        10        12        14        16
        10        12        14        17        10        12        18        19
        10        12        18        20        11        10        12        13
        11        10        12        14        11        10        12        18
        12        18        20        21        12        18        20        22
        13        12        14        15        13        12        14        16
        13        12        14        17        13        12        18        19
        13        12        18        20        14        12        18        19
        14        12        18        20        15        14        12        18
        16        14        12        18        17        14        12        18
        18        20        22        23        18        20        22        24
        18        20        22        37        19        18        20        21
        19        18        20        22        20        22        24        25
        20        22        24        26        20        22        24        27
        20        22        37        38        20        22        37        39
        21        20        22        23        21        20        22        24
        21        20        22        37        22        24        27        28
        22        24        27        29        22        24        27        33
        22        37        39        40        22        37        39        41
        23        22        24        25        23        22        24        26
        23        22        24        27        23        22        37        38
        23        22        37        39        24        22        37        38
        24        22        37        39        24        27        29        30
        24        27        29        31        24        27        29        32
        24        27        33        34        24        27        33        35
        24        27        33        36        25        24        22        37
        25        24        27        28        25        24        27        29
        25        24        27        33        26        24        22        37
        26        24        27        28        26        24        27        29
        26        24        27        33        27        24        22        37
        28        27        29        30        28        27        29        31
        28        27        29        32        28        27        33        34
        28        27        33        35        28        27        33        36
        29        27        33        34        29        27        33        35
        29        27        33        36        30        29        27        33
        31        29        27        33        32        29        27        33
        37        39        41        42        37        39        41        43
        37        39        41        47        38        37        39        40
        38        37        39        41        39        41        43        44
        39        41        43        45        39        41        43        46
        39        41        47        48        39        41        47        49
        40        39        41        42        40        39        41        43
        40        39        41        47        41        47        49        50
        41        47        49        51        42        41        43        44
        42        41        43        45        42        41        43        46
        42        41        47        48        42        41        47        49
        43        41        47        48        43        41        47        49
        44        43        41        47        45        43        41        47
        46        43        41        47        47        49        51        52
        47        49        51        53        47        49        51        63
        48        47        49        50        48        47        49        51
        49        51        53        54        49        51        53        55
        49        51        53        59        49        51        63        64
        49        51        63        65        50        49        51        52
        50        49        51        53        50        49        51        63
        51        53        55        56        51        53        55        57
        51        53        55        58        51        53        59        60
        51        53        59        61        51        53        59        62
        51        63        65        66        51        63        65        67
        52        51        53        54        52        51        53        55
        52        51        53        59        52        51        63        64
        52        51        63        65        53        51        63        64
        53        51        63        65        54        53        51        63
        54        53        55        56        54        53        55        57
        54        53        55        58        54        53        59        60
        54        53        59        61        54        53        59        62
        55        53        51        63        55        53        59        60
        55        53        59        61        55        53        59        62
        56        55        53        59        57        55        53        59
        58        55        53        59        59        53        51        63
        63        65        67        68        63        65        67        69
        63        65        67        79        64        63        65        66
        64        63        65        67        65        67        69        70
        65        67        69        71        65        67        69        75
        65        67        79        80        65        67        79        81
        66        65        67        68        66        65        67        69
        66        65        67        79        67        69        71        72
        67        69        71        73        67        69        71        74
        67        69        75        76        67        69        75        77
        67        69        75        78        67        79        81        82
        67        79        81        83        68        67        69        70
        68        67        69        71        68        67        69        75
        68        67        79        80        68        67        79        81
        69        67        79        80        69        67        79        81
        70        69        67        79        70        69        71        72
        70        69        71        73        70        69        71        74
        70        69        75        76        70        69        75        77
        70        69        75        78        71        69        67        79
        71        69        75        76        71        69        75        77
        71        69        75        78        72        71        69        75
        73        71        69        75        74        71        69        75
        75        69        67        79        79        81        83        84
        79        81        83        85        79        81        83        95
        80        79        81        82        80        79        81        83
        81        83        85        86        81        83        85        87
        81        83        85        91        81        83        95        96
        81        83        95        97        82        81        83        84
        82        81        83        85        82        81        83        95
        83        85        87        88        83        85        87        89
        83        85        87        90        83        85        91        92
        83        85        91        93        83        85        91        94
        83        95        97        98        83        95        97        99
        84        83        85        86        84        83        85        87
        84        83        85        91        84        83        95        96
        84        83        95        97        85        83        95        96
        85        83        95        97        86        85        83        95
        86        85        87        88        86        85        87        89
        86        85        87        90        86        85        91        92
        86        85        91        93        86        85        91        94
        87        85        83        95        87        85        91        92
        87        85        91        93        87        85        91        94
        88        87        85        91        89        87        85        91
        90        87        85        91        91        85        83        95
        95        97        99       100        95        97        99       101
        95        97        99       119        96        95        97        98
        96        95        97        99        97        99       101       102
        97        99       101       103        97        99       101       104
        97        99       119       120        97        99       119       121
        98        97        99       100        98        97        99       101
        98        97        99       119        99       101       104       105
        99       101       104       110        99       119       121       122
        99       119       121       123       100        99       101       102
       100        99       101       103       100        99       101       104
       100        99       119       120       100        99       119       121
       101        99       119       120       101        99       119       121
       101       104       105       106       101       104       105       107
       101       104       110       109       101       104       110       111
       102       101        99       119       102       101       104       105
       102       101       104       110       103       101        99       119
       103       101       104       105       103       101       104       110
       104       101        99       119       104       105       107       108
       104       105       107       109       104       110       109       107
       104       110       109       115       104       110       111       112
       104       110       111       113       105       104       110       109
       105       104       110       111       105       107       109       110
       105       107       109       115       106       105       104       110
       106       105       107       108       106       105       107       109
       107       105       104       110       107       109       110       111
       107       109       115       116       107       109       115       117
       108       107       109       110       108       107       109       115
       109       110       111       112       109       110       111       113
       109       115       117       113       109       115       117       118
       110       109       115       116       110       109       115       117
       110       111       113       114       110       111       113       117
       111       110       109       115       111       113       117       115
       111       113       117       118       112       111       113       114
       112       111       113       117       113       117       115       116
       114       113       117       115       114       113       117       118
       116       115       117       118       119       121       123       124
       119       121       123       125       119       121       123       138
       120       119       121       122       120       119       121       123
       121       123       125       126       121       123       125       127
       121       123       125       128       121       123       138       139
       121       123       138       140       122       121       123       124
       122       121       123       125       122       121       123       138
       123       125       128       129       123       125       128       130
       123       125       128       134       123       138       140       141
       123       138       140       142       124       123       125       126
       124       123       125       127       124       123       125       128
       124       123       138       139       124       123       138       140
       125       123       138       139       125       123       138       140
       125       128       130       131       125       128       130       132
       125       128       130       133       125       128       134       135
       125       128       134       136       125       128       134       137
       126       125       123       138       126       125       128       129
       126       125       128       130       126       125       128       134
       127       125       123       138       127       125       128       129
       127       125       128       130       127       125       128       134
       128       125       123       138       129       128       130       131
       129       128       130       132       129       128       130       133
       129       128       134       135       129       128       134       136
       129       128       134       137       130       128       134       135
       130       128       134       136       130       128       134       137
       131       130       128       134       132       130       128       134
       133       130       128       134       138       140       142       143
       138       140       142       144       138       140       142       162
       139       138       140       141       139       138       140       142
       140       142       144       145       140       142       144       146
       140       142       144       147       140       142       162       163
       140       142       162       164       141       140       142       143
       141       140       142       144       141       140       142       162
       142       144       147       148       142       144       147       153
       142       162       164       165       142       162       164       166
       143       142       144       145       143       142       144       146
       143       142       144       147       143       142       162       163
       143       142       162       164       144       142       162       163
       144       142       162       164       144       147       148       149
       144       147       148       150       144       147       153       152
       144       147       153       154       145       144       142       162
       145       144       147       148       145       144       147       153
       146       144       142       162       146       144       147       148
       146       144       147       153       147       144       142       162
       147       148       150       151       147       148       150       152
       147       153       152       150       147       153       152       158
       147       153       154       155       147       153       154       156
       148       147       153       152       148       147       153       154
       148       150       152       153       148       150       152       158
       149       148       147       153       149       148       150       151
       149       148       150       152       150       148       147       153
       150       152       153       154       150       152       158       159
       150       152       158       160       151       150       152       153
       151       150       152       158       152       153       154       155
       152       153       154       156       152       158       160       156
       152       158       160       161       153       152       158       159
       153       152       158       160       153       154       156       157
       153       154       156       160       154       153       152       158
       154       156       160       158       154       156       160       161
       155       154       156       157       155       154       156       160
       156       160       158       159       157       156       160       158
       157       156       160       161       159       158       160       161
       162       164       166       167       162       164       166       168
       162       164       166       181       163       162       164       165
       163       162       164       166       164       166       168       169
       164       166       168       170       164       166       168       171
       164       166       181       182       164       166       181       183
       165       164       166       167       165       164       166       168
       165       164       166       181       166       168       171       172
       166       168       171       173       166       168       171       177
       166       181       183       184       166       181       183       185
       167       166       168       169       167       166       168       170
       167       166       168       171       167       166       181       182
       167       166       181       183       168       166       181       182
       168       166       181       183       168       171       173       174
       168       171       173       175       168       171       173       176
       168       171       177       178       168       171       177       179
       168       171       177       180       169       168       166       181
       169       168       171       172       169       168       171       173
       169       168       171       177       170       168       166       181
       170       168       171       172       170       168       171       173
       170       168       171       177       171       168       166       181
       172       171       173       174       172       171       173       175
       172       171       173       176       172       171       177       178
       172       171       177       179       172       171       177       180
       173       171       177       178       173       171       177       179
       173       171       177       180       174       173       171       177
       175       173       171       177       176       173       171       177
       181       183       185       186       181       183       185       187
       181       183       185       205       182       181       183       184
       182       181       183       185       183       185       187       188
       183       185       187       189       183       185       187       190
       183       185       205       206       183       185       205       207
       184       183       185       186       184       183       185       187
       184       183       185       205       185       187       190       191
       185       187       190       196       185       205       207       208
       185       205       207       209       186       185       187       188
       186       185       187       189       186       185       187       190
       186       185       205       206       186       185       205       207
       187       185       205       206       187       185       205       207
       187       190       191       192       187       190       191       193
       187       190       196       195       187       190       196       197
       188       187       185       205       188       187       190       191
       188       187       190       196       189       187       185       205
       189       187       190       191       189       187       190       196
       190       187       185       205       190       191       193       194
       190       191       193       195       190       196       195       193
       190       196       195       201       190       196       197       198
       190       196       197       199       191       190       196       195
       191       190       196       197       191       193       195       196
       191       193       195       201       192       191       190       196
       192       191       193       194       192       191       193       195
       193       191       190       196       193       195       196       197
       193       195       201       202       193       195       201       203
       194       193       195       196       194       193       195       201
       195       196       197       198       195       196       197       199
       195       201       203       199       195       201       203       204
       196       195       201       202       196       195       201       203
       196       197       199       200       196       197       199       203
       197       196       195       201       197       199       203       201
       197       199       203       204       198       197       199       200
       198       197       199       203       199       203       201       202
       200       199       203       201       200       199       203       204
       202       201       203       204       205       207       209       210
       205       207       209       211       205       207       209       224
       206       205       207       208       206       205       207       209
       207       209       211       212       207       209       211       213
       207       209       211       214       207       209       224       225
       207       209       224       226       208       207       209       210
       208       207       209       211       208       207       209       224
       209       211       214       215       209       211       214       216
       209       211       214       220       209       224       226       227
       209       224       226       228       210       209       211       212
       210       209       211       213       210       209       211       214
       210       209       224       225       210       209       224       226
       211       209       224       225       211       209       224       226
       211       214       216       217       211       214       216       218
       211       214       216       219       211       214       220       221
       211       214       220       222       211       214       220       223
       212       211       209       224       212       211       214       215
       212       211       214       216       212       211       214       220
       213       211       209       224       213       211       214       215
       213       211       214       216       213       211       214       220
       214       211       209       224       215       214       216       217
       215       214       216       218       215       214       216       219
       215       214       220       221       215       214       220       222
       215       214       220       223       216       214       220       221
       216       214       220       222       216       214       220       223
       217       216       214       220       218       216       214       220
       219       216       214       220       224       226       228       229
       224       226       228       230       224       226       228       248
       225       224       226       227       225       224       226       228
       226       228       230       231       226       228       230       232
       226       228       230       233       226       228       248       249
       226       228       248       250       227       226       228       229
       227       226       228       230       227       226       228       248
       228       230       233       234       228       230       233       239
       229       228       230       231       229       228       230       232
       229       228       230       233       229       228       248       249
       229       228       248       250       230       228       248       249
       230       228       248       250       230       233       234       235
       230       233       234       236       230       233       239       238
       230       233       239       240       231       230       228       248
       231       230       233       234       231       230       233       239
       232       230       228       248       232       230       233       234
       232       230       233       239       233       230       228       248
       233       234       236       237       233       234       236       238
       233       239       238       236       233       239       238       244
       233       239       240       241       233       239       240       242
       234       233       239       238       234       233       239       240
       234       236       238       239       234       236       238       244
       235       234       233       239       235       234       236       237
       235       234       236       238       236       234       233       239
       236       238       239       240       236       238       244       245
       236       238       244       246       237       236       238       239
       237       236       238       244       238       239       240       241
       238       239       240       242       238       244       246       242
       238       244       246       247       239       238       244       245
       239       238       244       246       239       240       242       243
       239       240       242       246       240       239       238       244
       240       242       246       244       240       242       246       247
       241       240       242       243       241       240       242       246
       242       246       244       245       243       242       246       244
       243       242       246       247       245       244       246       247
       251       255       258       259       251       255       258       260
       252       251       255       256       252       251       255       257
       252       251       255       258       253       251       255       256
       253       251       255       257       253       251       255       258
       254       251       255       256       254       251       255       257
       254       251       255       258       255       258       260       261
       255       258       260       262       256       255       258       259
       256       255       258       260       257       255       258       259
       257       255       258       260       258       260       262       263
       258       260       262       264       258       260       262       268
       259       258       260       261       259       258       260       262
       260       262       264       265       260       262       264       266
       260       262       264       267       260       262       268       269
       260       262       268       270       261       260       262       263
       261       260       262       264       261       260       262       268
       262       268       270       271       262       268       270       272
       263       262       264       265       263       262       264       266
       263       262       264       267       263       262       268       269
       263       262       268       270       264       262       268       269
       264       262       268       270       265       264       262       268
       266       264       262       268       267       264       262       268
       268       270       272       273       268       270       272       274
       268       270       272       287       269       268       270       271
       269       268       270       272       270       272       274       275
       270       272       274       276       270       272       274       277
       270       272       287       288       270       272       287       289
       271       270       272       273       271       270       272       274
       271       270       272       287       272       274       277       278
       272       274       277       279       272       274       277       283
       272       287       289       290       272       287       289       291
       273       272       274       275       273       272       274       276
       273       272       274       277       273       272       287       288
       273       272       287       289       274       272       287       288
       274       272       287       289       274       277       279       280
       274       277       279       281       274       277       279       282
       274       277       283       284       274       277       283       285
       274       277       283       286       275       274       272       287
       275       274       277       278       275       274       277       279
       275       274       277       283       276       274       272       287
       276       274       277       278       276       274       277       279
       276       274       277       283       277       274       272       287
       278       277       279       280       278       277       279       281
       278       277       279       282       278       277       283       284
       278       277       283       285       278       277       283       286
       279       277       283       284       279       277       283       285
       279       277       283       286       280       279       277       283
       281       279       277       283       282       279       277       283
       287       289       291       292       287       289       291       293
       287       289       291       297       288       287       289       290
       288       287       289       291       289       291       293       294
       289       291       293       295       289       291       293       296
       289       291       297       298       289       291       297       299
       290       289       291       292       290       289       291       293
       290       289       291       297       291       297       299       300
       291       297       299       301       292       291       293       294
       292       291       293       295       292       291       293       296
       292       291       297       298       292       291       297       299
       293       291       297       298       293       291       297       299
       294       293       291       297       295       293       291       297
       296       293       291       297       297       299       301       302
       297       299       301       303       297       299       301       313
       298       297       299       300       298       297       299       301
       299       301       303       304       299       301       303       305
       299       301       303       309       299       301       313       314
       299       301       313       315       300       299       301       302
       300       299       301       303       300       299       301       313
       301       303       305       306       301       303       305       307
       301       303       305       308       301       303       309       310
       301       303       309       311       301       303       309       312
       301       313       315       316       301       313       315       317
       302       301       303       304       302       301       303       305
       302       301       303       309       302       301       313       314
       302       301       313       315       303       301       313       314
       303       301       313       315       304       303       301       313
       304       303       305       306       304       303       305       307
       304       303       305       308       304       303       309       310
       304       303       309       311       304       303       309       312
       305       303       301       313       305       303       309       310
       305       303       309       311       305       303       309       312
       306       305       303       309       307       305       303       309
       308       305       303       309       309       303       301       313
       313       315       317       318       313       315       317       319
       313       315       317       329       314       313       315       316
       314       313       315       317       315       317       319       320
       315       317       319       321       315       317       319       325
       315       317       329       330       315       317       329       331
       316       315       317       318       316       315       317       319
       316       315       317       329       317       319       321       322
       317       319       321       323       317       319       321       324
       317       319       325       326       317       319       325       327
       317       319       325       328       317       329       331       332
       317       329       331       333       318       317       319       320
       318       317       319       321       318       317       319       325
       318       317       329       330       318       317       329       331
       319       317       329       330       319       317       329       331
       320       319       317       329       320       319       321       322
       320       319       321       323       320       319       321       324
       320       319       325       326       320       319       325       327
       320       319       325       328       321       319       317       329
       321       319       325       326       321       319       325       327
       321       319       325       328       322       321       319       325
       323       321       319       325       324       321       319       325
       325       319       317       329       329       331       333       334
       329       331       333       335       329       331       333       345
       330       329       331       332       330       329       331       333
       331       333       335       336       331       333       335       337
       331       333       335       341       331       333       345       346
       331       333       345       347       332       331       333       334
       332       331       333       335       332       331       333       345
       333       335       337       338       333       335       337       339
       333       335       337       340       333       335       341       342
       333       335       341       343       333       335       341       344
       333       345       347       348       333       345       347       349
       334       333       335       336       334       333       335       337
       334       333       335       341       334       333       345       346
       334       333       345       347       335       333       345       346
       335       333       345       347       336       335       333       345
       336       335       337       338       336       335       337       339
       336       335       337       340       336       335       341       342
       336       335       341       343       336       335       341       344
       337       335       333       345       337       335       341       342
       337       335       341       343       337       335       341       344
       338       337       335       341       339       337       335       341
       340       337       335       341       341       335       333       345
       345       347       349       350       345       347       349       351
       345       347       349       369       346       345       347       348
       346       345       347       349       347       349       351       352
       347       349       351       353       347       349       351       354
       347       349       369       370       347       349       369       371
       348       347       349       350       348       347       349       351
       348       347       349       369       349       351       354       355
       349       351       354       360       349       369       371       372
       349       369       371       373       350       349       351       352
       350       349       351       353       350       349       351       354
       350       349       369       370       350       349       369       371
       351       349       369       370       351       349       369       371
       351       354       355       356       351       354       355       357
       351       354       360       359       351       354       360       361
       352       351       349       369       352       351       354       355
       352       351       354       360       353       351       349       369
       353       351       354       355       353       351       354       360
       354       351       349       369       354       355       357       358
       354       355       357       359       354       360       359       357
       354       360       359       365       354       360       361       362
       354       360       361       363       355       354       360       359
       355       354       360       361       355       357       359       360
       355       357       359       365       356       355       354       360
       356       355       357       358       356       355       357       359
       357       355       354       360       357       359       360       361
       357       359       365       366       357       359       365       367
       358       357       359       360       358       357       359       365
       359       360       361       362       359       360       361       363
       359       365       367       363       359       365       367       368
       360       359       365       366       360       359       365       367
       360       361       363       364       360       361       363       367
       361       360       359       365       361       363       367       365
       361       363       367       368       362       361       363       364
       362       361       363       367       363       367       365       366
       364       363       367       365       364       363       367       368
       366       365       367       368       369       371       373       374
       369       371       373       375       369       371       373       388
       370       369       371       372       370       369       371       373
       371       373       375       376       371       373       375       377
       371       373       375       378       371       373       388       389
       371       373       388       390       372       371       373       374
       372       371       373       375       372       371       373       388
       373       375       378       379       373       375       378       380
       373       375       378       384       373       388       390       391
       373       388       390       392       374       373       375       376
       374       373       375       377       374       373       375       378
       374       373       388       389       374       373       388       390
       375       373       388       389       375       373       388       390
       375       378       380       381       375       378       380       382
       375       378       380       383       375       378       384       385
       375       378       384       386       375       378       384       387
       376       375       373       388       376       375       378       379
       376       375       378       380       376       375       378       384
       377       375       373       388       377       375       378       379
       377       375       378       380       377       375       378       384
       378       375       373       388       379       378       380       381
       379       378       380       382       379       378       380       383
       379       378       384       385       379       378       384       386
       379       378       384       387       380       378       384       385
       380       378       384       386       380       378       384       387
       381       380       378       384       382       380       378       384
       383       380       378       384       388       390       392       393
       388       390       392       394       388       390       392       412
       389       388       390       391       389       388       390       392
       390       392       394       395       390       392       394       396
       390       392       394       397       390       392       412       413
       390       392       412       414       391       390       392       393
       391       390       392       394       391       390       392       412
       392       394       397       398       392       394       397       403
       392       412       414       415       392       412       414       416
       393       392       394       395       393       392       394       396
       393       392       394       397       393       392       412       413
       393       392       412       414       394       392       412       413
       394       392       412       414       394       397       398       399
       394       397       398       400       394       397       403       402
       394       397       403       404       395       394       392       412
       395       394       397       398       395       394       397       403
       396       394       392       412       396       394       397       398
       396       394       397       403       397       394       392       412
       397       398       400       401       397       398       400       402
       397       403       402       400       397       403       402       408
       397       403       404       405       397       403       404       406
       398       397       403       402       398       397       403       404
       398       400       402       403       398       400       402       408
       399       398       397       403       399       398       400       401
       399       398       400       402       400       398       397       403
       400       402       403       404       400       402       408       409
       400       402       408       410       401       400       402       403
       401       400       402       408       402       403       404       405
       402       403       404       406       402       408       410       406
       402       408       410       411       403       402       408       409
       403       402       408       410       403       404       406       407
       403       404       406       410       404       403       402       408
       404       406       410       408       404       406       410       411
       405       404       406       407       405       404       406       410
       406       410       408       409       407       406       410       408
       407       406       410       411       409       408       410       411
       412       414       416       417       412       414       416       418
       412       414       416       431       413       412       414       415
       413       412       414       416       414       416       418       419
       414       416       418       420       414       416       418       421
       414       416       431       432       414       416       431       433
       415       414       416       417       415       414       416       418
       415       414       416       431       416       418       421       422
       416       418       421       423       416       418       421       427
       416       431       433       434       416       431       433       435
       417       416       418       419       417       416       418       420
       417       416       418       421       417       416       431       432
       417       416       431       433       418       416       431       432
       418       416       431       433       418       421       423       424
       418       421       423       425       418       421       423       426
       418       421       427       428       418       421       427       429
       418       421       427       430       419       418       416       431
       419       418       421       422       419       418       421       423
       419       418       421       427       420       418       416       431
       420       418       421       422       420       418       421       423
       420       418       421       427       421       418       416       431
       422       421       423       424       422       421       423       425
       422       421       423       426       422       421       427       428
       422       421       427       429       422       421       427       430
       423       421       427       428       423       421       427       429
       423       421       427       430       424       423       421       427
       425       423       421       427       426       423       421       427
       431       433       435       436       431       433       435       437
       431       433       435       455       432       431       433       434
       432       431       433       435       433       435       437       438
       433       435       437       439       433       435       437       440
       433       435       455       456       433       435       455       457
       434       433       435       436       434       433       435       437
       434       433       435       455       435       437       440       441
       435       437       440       446       435       455       457       458
       435       455       457       459       436       435       437       438
       436       435       437       439       436       435       437       440
       436       435       455       456       436       435       455       457
       437       435       455       456       437       435       455       457
       437       440       441       442       437       440       441       443
       437       440       446       445       437       440       446       447
       438       437       435       455       438       437       440       441
       438       437       440       446       439       437       435       455
       439       437       440       441       439       437       440       446
       440       437       435       455       440       441       443       444
       440       441       443       445       440       446       445       443
       440       446       445       451       440       446       447       448
       440       446       447       449       441       440       446       445
       441       440       446       447       441       443       445       446
       441       443       445       451       442       441       440       446
       442       441       443       444       442       441       443       445
       443       441       440       446       443       445       446       447
       443       445       451       452       443       445       451       453
       444       443       445       446       444       443       445       451
       445       446       447       448       445       446       447       449
       445       451       453       449       445       451       453       454
       446       445       451       452       446       445       451       453
       446       447       449       450       446       447       449       453
       447       446       445       451       447       449       453       451
       447       449       453       454       448       447       449       450
       448       447       449       453       449       453       451       452
       450       449       453       451       450       449       453       454
       452       451       453       454       455       457       459       460
       455       457       459       461       455       457       459       474
       456       455       457       458       456       455       457       459
       457       459       461       462       457       459       461       463
       457       459       461       464       457       459       474       475
       457       459       474       476       458       457       459       460
       458       457       459       461       458       457       459       474
       459       461       464       465       459       461       464       466
       459       461       464       470       459       474       476       477
       459       474       476       478       460       459       461       462
       460       459       461       463       460       459       461       464
       460       459       474       475       460       459       474       476
       461       459       474       475       461       459       474       476
       461       464       466       467       461       464       466       468
       461       464       466       469       461       464       470       471
       461       464       470       472       461       464       470       473
       462       461       459       474       462       461       464       465
       462       461       464       466       462       461       464       470
       463       461       459       474       463       461       464       465
       463       461       464       466       463       461       464       470
       464       461       459       474       465       464       466       467
       465       464       466       468       465       464       466       469
       465       464       470       471       465       464       470       472
       465       464       470       473       466       464       470       471
       466       464       470       472       466       464       470       473
       467       466       464       470       468       466       464       470
       469       466       464       470       474       476       478       479
       474       476       478       480       474       476       478       498
       475       474       476       477       475       474       476       478
       476       478       480       481       476       478       480       482
       476       478       480       483       476       478       498       499
       476       478       498       500       477       476       478       479
       477       476       478       480       477       476       478       498
       478       480       483       484       478       480       483       489
       479       478       480       481       479       478       480       482
       479       478       480       483       479       478       498       499
       479       478       498       500       480       478       498       499
       480       478       498       500       480       483       484       485
       480       483       484       486       480       483       489       488
       480       483       489       490       481       480       478       498
       481       480       483       484       481       480       483       489
       482       480       478       498       482       480       483       484
       482       480       483       489       483       480       478       498
       483       484       486       487       483       484       486       488
       483       489       488       486       483       489       488       494
       483       489       490       491       483       489       490       492
       484       483       489       488       484       483       489       490
       484       486       488       489       484       486       488       494
       485       484       483       489       485       484       486       487
       485       484       486       488       486       484       483       489
       486       488       489       490       486       488       494       495
       486       488       494       496       487       486       488       489
       487       486       488       494       488       489       490       491
       488       489       490       492       488       494       496       492
       488       494       496       497       489       488       494       495
       489       488       494       496       489       490       492       493
       489       490       492       496       490       489       488       494
       490       492       496       494       490       492       496       497
       491       490       492       493       491       490       492       496
       492       496       494       495       493       492       496       494
       493       492       496       497       495       494       496       497
       501       502       517       518       501       502       517       519
       501       502       517       523       502       501       505       506
       502       501       505       507       502       501       505       508
       502       501       509       510       502       501       509       511
       502       501       509       512       502       501       513       514
       502       501       513       515       502       501       513       516
       502       517       523       520       503       502       501       505
       503       502       501       509       503       502       501       513
       503       502       517       518       503       502       517       519
       503       502       517       523       504       502       501       505
       504       502       501       509       504       502       501       513
       504       502       517       518       504       502       517       519
       504       502       517       523       505       501       502       517
       505       501       509       510       505       501       509       511
       505       501       509       512       505       501       513       514
       505       501       513       515       505       501       513       516
       506       505       501       509       506       505       501       513
       507       505       501       509       507       505       501       513
       508       505       501       509       508       505       501       513
       509       501       502       517       509       501       513       514
       509       501       513       515       509       501       513       516
       510       509       501       513       511       509       501       513
       512       509       501       513       513       501       502       517
       517       523       520       521       517       523       520       522
       517       523       520       524       518       517       523       520
       519       517       523       520       520       524       525       526
       520       524       525       527       520       524       525       528
       521       520       524       525       522       520       524       525
       523       520       524       525       524       525       528       529
       524       525       528       530       524       525       528       536
       525       528       530       531       525       528       536       537
       525       528       536       538       525       528       536       539
       526       525       528       529       526       525       528       530
       526       525       528       536       527       525       528       529
       527       525       528       530       527       525       528       536
       528       530       531       532       528       530       531       533
       528       536       539       540       529       528       530       531
       529       528       536       537       529       528       536       538
       529       528       536       539       530       528       536       537
       530       528       536       538       530       528       536       539
       530       531       533       534       530       531       533       535
       530       531       533       545       531       530       528       536
       531       533       545       546       531       533       545       547
       531       533       545       548       532       531       533       534
       532       531       533       535       532       531       533       545
       533       545       548       549       533       545       548       550
       533       545       548       551       534       533       545       546
       534       533       545       547       534       533       545       548
       535       533       545       546       535       533       545       547
       535       533       545       548       536       539       540       541
       536       539       540       542       537       536       539       540
       538       536       539       540       539       540       542       543
       539       540       542       544       539       540       542       592
       540       542       592       593       540       542       592       594
       540       542       592       595       541       540       542       543
       541       540       542       544       541       540       542       592
       542       592       595       596       542       592       595       597
       542       592       595       598       543       542       592       593
       543       542       592       594       543       542       592       595
       544       542       592       593       544       542       592       594
       544       542       592       595       545       548       551       552
       545       548       551       553       545       548       551       554
       546       545       548       549       546       545       548       550
       546       545       548       551       547       545       548       549
       547       545       548       550       547       545       548       551
       548       551       554       555       548       551       554       556
       548       551       554       557       549       548       551       552
       549       548       551       553       549       548       551       554
       550       548       551       552       550       548       551       553
       550       548       551       554       551       554       557       558
       551       554       557       559       551       554       557       560
       552       551       554       555       552       551       554       556
       552       551       554       557       553       551       554       555
       553       551       554       556       553       551       554       557
       554       557       560       561       554       557       560       562
       554       557       560       563       555       554       557       558
       555       554       557       559       555       554       557       560
       556       554       557       558       556       554       557       559
       556       554       557       560       557       560       563       564
       557       560       563       565       558       557       560       561
       558       557       560       562       558       557       560       563
       559       557       560       561       559       557       560       562
       559       557       560       563       560       563       565       566
       560       563       565       567       561       560       563       564
       561       560       563       565       562       560       563       564
       562       560       563       565       563       565       567       568
       563       565       567       569       563       565       567       570
       564       563       565       566       564       563       565       567
       565       567       570       571       565       567       570       572
       565       567       570       573       566       565       567       568
       566       565       567       569       566       565       567       570
       567       570       573       574       567       570       573       575
       567       570       573       576       568       567       570       571
       568       567       570       572       568       567       570       573
       569       567       570       571       569       567       570       572
       569       567       570       573       570       573       576       577
       570       573       576       578       570       573       576       579
       571       570       573       574       571       570       573       575
       571       570       573       576       572       570       573       574
       572       570       573       575       572       570       573       576
       573       576       579       580       573       576       579       581
       573       576       579       582       574       573       576       577
       574       573       576       578       574       573       576       579
       575       573       576       577       575       573       576       578
       575       573       576       579       576       579       582       583
       576       579       582       584       576       579       582       585
       577       576       579       580       577       576       579       581
       577       576       579       582       578       576       579       580
       578       576       579       581       578       576       579       582
       579       582       585       586       579       582       585       587
       579       582       585       588       580       579       582       583
       580       579       582       584       580       579       582       585
       581       579       582       583       581       579       582       584
       581       579       582       585       582       585       588       589
       582       585       588       590       582       585       588       591
       583       582       585       586       583       582       585       587
       583       582       585       588       584       582       585       586
       584       582       585       587       584       582       585       588
       586       585       588       589       586       585       588       590
       586       585       588       591       587       585       588       589
       587       585       588       590       587       585       588       591
       592       595       598       599       592       595       598       600
       592       595       598       601       593       592       595       596
       593       592       595       597       593       592       595       598
       594       592       595       596       594       592       595       597
       594       592       595       598       595       598       601       602
       595       598       601       603       595       598       601       604
       596       595       598       599       596       595       598       600
       596       595       598       601       597       595       598       599
       597       595       598       600       597       595       598       601
       598       601       604       605       598       601       604       606
       598       601       604       607       599       598       601       602
       599       598       601       603       599       598       601       604
       600       598       601       602       600       598       601       603
       600       598       601       604       601       604       607       608
       601       604       607       609       601       604       607       610
       602       601       604       605       602       601       604       606
       602       601       604       607       603       601       604       605
       603       601       604       606       603       601       604       607
       604       607       610       611       604       607       610       612
       605       604       607       608       605       604       607       609
       605       604       607       610       606       604       607       608
       606       604       607       609       606       604       607       610
       607       610       612       613       607       610       612       614
       608       607       610       611       608       607       610       612
       609       607       610       611       609       607       610       612
       610       612       614       615       610       612       614       616
       610       612       614       617       611       610       612       613
       611       610       612       614       612       614       617       618
       612       614       617       619       612       614       617       620
       613       612       614       615       613       612       614       616
       613       612       614       617       614       617       620       621
       614       617       620       622       614       617       620       623
       615       614       617       618       615       614       617       619
       615       614       617       620       616       614       617       618
       616       614       617       619       616       614       617       620
       617       620       623       624       617       620       623       625
       617       620       623       626       618       617       620       621
       618       617       620       622       618       617       620       623
       619       617       620       621       619       617       620       622
       619       617       620       623       620       623       626       627
       620       623       626       628       620       623       626       629
       621       620       623       624       621       620       623       625
       621       620       623       626       622       620       623       624
       622       620       623       625       622       620       623       626
       623       626       629       630       623       626       629       631
       623       626       629       632       624       623       626       627
       624       623       626       628       624       623       626       629
       625       623       626       627       625       623       626       628
       625       623       626       629       626       629       632       633
       626       629       632       634       626       629       632       635
       627       626       629       630       627       626       629       631
       627       626       629       632       628       626       629       630
       628       626       629       631       628       626       629       632
       629       632       635       636       629       632       635       637
       629       632       635       638       630       629       632       633
       630       629       632       634       630       629       632       635
       631       629       632       633       631       629       632       634
       631       629       632       635       633       632       635       636
       633       632       635       637       633       632       635       638
       634       632       635       636       634       632       635       637
       634       632       635       638       639       640       655       656
       639       640       655       657       639       640       655       661
       640       639       643       644       640       639       643       645
       640       639       643       646       640       639       647       648
       640       639       647       649       640       639       647       650
       640       639       651       652       640       639       651       653
       640       639       651       654       640       655       661       658
       641       640       639       643       641       640       639       647
       641       640       639       651       641       640       655       656
       641       640       655       657       641       640       655       661
       642       640       639       643       642       640       639       647
       642       640       639       651       642       640       655       656
       642       640       655       657       642       640       655       661
       643       639       640       655       643       639       647       648
       643       639       647       649       643       639       647       650
       643       639       651       652       643       639       651       653
       643       639       651       654       644       643       639       647
       644       643       639       651       645       643       639       647
       645       643       639       651       646       643       639       647
       646       643       639       651       647       639       640       655
       647       639       651       652       647       639       651       653
       647       639       651       654       648       647       639       651
       649       647       639       651       650       647       639       651
       651       639       640       655       655       661       658       659
       655       661       658       660       655       661       658       662
       656       655       661       658       657       655       661       658
       658       662       663       664       658       662       663       665
       658       662       663       666       659       658       662       663
       660       658       662       663       661       658       662       663
       662       663       666       667       662       663       666       668
       662       663       666       674       663       666       668       669
       663       666       674       675       663       666       674       676
       663       666       674       677       664       663       666       667
       664       663       666       668       664       663       666       674
       665       663       666       667       665       663       666       668
       665       663       666       674       666       668       669       670
       666       668       669       671       666       674       677       678
       667       666       668       669       667       666       674       675
       667       666       674       676       667       666       674       677
       668       666       674       675       668       666       674       676
       668       666       674       677       668       669       671       672
       668       669       671       673       668       669       671       683
       669       668       666       674       669       671       683       684
       669       671       683       685       669       671       683       686
       670       669       671       672       670       669       671       673
       670       669       671       683       671       683       686       687
       671       683       686       688       671       683       686       689
       672       671       683       684       672       671       683       685
       672       671       683       686       673       671       683       684
       673       671       683       685       673       671       683       686
       674       677       678       679       674       677       678       680
       675       674       677       678       676       674       677       678
       677       678       680       681       677       678       680       682
       677       678       680       730       678       680       730       731
       678       680       730       732       678       680       730       733
       679       678       680       681       679       678       680       682
       679       678       680       730       680       730       733       734
       680       730       733       735       680       730       733       736
       681       680       730       731       681       680       730       732
       681       680       730       733       682       680       730       731
       682       680       730       732       682       680       730       733
       683       686       689       690       683       686       689       691
       683       686       689       692       684       683       686       687
       684       683       686       688       684       683       686       689
       685       683       686       687       685       683       686       688
       685       683       686       689       686       689       692       693
       686       689       692       694       686       689       692       695
       687       686       689       690       687       686       689       691
       687       686       689       692       688       686       689       690
       688       686       689       691       688       686       689       692
       689       692       695       696       689       692       695       697
       689       692       695       698       690       689       692       693
       690       689       692       694       690       689       692       695
       691       689       692       693       691       689       692       694
       691       689       692       695       692       695       698       699
       692       695       698       700       692       695       698       701
       693       692       695       696       693       692       695       697
       693       692       695       698       694       692       695       696
       694       692       695       697       694       692       695       698
       695       698       701       702       695       698       701       703
       696       695       698       699       696       695       698       700
       696       695       698       701       697       695       698       699
       697       695       698       700       697       695       698       701
       698       701       703       704       698       701       703       705
       699       698       701       702       699       698       701       703
       700       698       701       702       700       698       701       703
       701       703       705       706       701       703       705       707
       701       703       705       708       702       701       703       704
       702       701       703       705       703       705       708       709
       703       705       708       710       703       705       708       711
       704       703       705       706       704       703       705       707
       704       703       705       708       705       708       711       712
       705       708       711       713       705       708       711       714
       706       705       708       709       706       705       708       710
       706       705       708       711       707       705       708       709
       707       705       708       710       707       705       708       711
       708       711       714       715       708       711       714       716
       708       711       714       717       709       708       711       712
       709       708       711       713       709       708       711       714
       710       708       711       712       710       708       711       713
       710       708       711       714       711       714       717       718
       711       714       717       719       711       714       717       720
       712       711       714       715       712       711       714       716
       712       711       714       717       713       711       714       715
       713       711       714       716       713       711       714       717
       714       717       720       721       714       717       720       722
       714       717       720       723       715       714       717       718
       715       714       717       719       715       714       717       720
       716       714       717       718       716       714       717       719
       716       714       717       720       717       720       723       724
       717       720       723       725       717       720       723       726
       718       717       720       721       718       717       720       722
       718       717       720       723       719       717       720       721
       719       717       720       722       719       717       720       723
       720       723       726       727       720       723       726       728
       720       723       726       729       721       720       723       724
       721       720       723       725       721       720       723       726
       722       720       723       724       722       720       723       725
       722       720       723       726       724       723       726       727
       724       723       726       728       724       723       726       729
       725       723       726       727       725       723       726       728
       725       723       726       729       730       733       736       737
       730       733       736       738       730       733       736       739
       731       730       733       734       731       730       733       735
       731       730       733       736       732       730       733       734
       732       730       733       735       732       730       733       736
       733       736       739       740       733       736       739       741
       733       736       739       742       734       733       736       737
       734       733       736       738       734       733       736       739
       735       733       736       737       735       733       736       738
       735       733       736       739       736       739       742       743
       736       739       742       744       736       739       742       745
       737       736       739       740       737       736       739       741
       737       736       739       742       738       736       739       740
       738       736       739       741       738       736       739       742
       739       742       745       746       739       742       745       747
       739       742       745       748       740       739       742       743
       740       739       742       744       740       739       742       745
       741       739       742       743       741       739       742       744
       741       739       742       745       742       745       748       749
       742       745       748       750       743       742       745       746
       743       742       745       747       743       742       745       748
       744       742       745       746       744       742       745       747
       744       742       745       748       745       748       750       751
       745       748       750       752       746       745       748       749
       746       745       748       750       747       745       748       749
       747       745       748       750       748       750       752       753
       748       750       752       754       748       750       752       755
       749       748       750       751       749       748       750       752
       750       752       755       756       750       752       755       757
       750       752       755       758       751       750       752       753
       751       750       752       754       751       750       752       755
       752       755       758       759       752       755       758       760
       752       755       758       761       753       752       755       756
       753       752       755       757       753       752       755       758
       754       752       755       756       754       752       755       757
       754       752       755       758       755       758       761       762
       755       758       761       763       755       758       761       764
       756       755       758       759       756       755       758       760
       756       755       758       761       757       755       758       759
       757       755       758       760       757       755       758       761
       758       761       764       765       758       761       764       766
       758       761       764       767       759       758       761       762
       759       758       761       763       759       758       761       764
       760       758       761       762       760       758       761       763
       760       758       761       764       761       764       767       768
       761       764       767       769       761       764       767       770
       762       761       764       765       762       761       764       766
       762       761       764       767       763       761       764       765
       763       761       764       766       763       761       764       767
       764       767       770       771       764       767       770       772
       764       767       770       773       765       764       767       768
       765       764       767       769       765       764       767       770
       766       764       767       768       766       764       767       769
       766       764       767       770       767       770       773       774
       767       770       773       775       767       770       773       776
       768       767       770       771       768       767       770       772
       768       767       770       773       769       767       770       771
       769       767       770       772       769       767       770       773
       771       770       773       774       771       770       773       775
       771       770       773       776       772       770       773       774
       772       770       773       775       772       770       773       776
       777       778       793       794       777       778       793       795
       777       778       793       799       778       777       781       782
       778       777       781       783       778       777       781       784
       778       777       785       786       778       777       785       787
       778       777       785       788       778       777       789       790
       778       777       789       791       778       777       789       792
       778       793       799       796       779       778       777       781
       779       778       777       785       779       778       777       789
       779       778       793       794       779       778       793       795
       779       778       793       799       780       778       777       781
       780       778       777       785       780       778       777       789
       780       778       793       794       780       778       793       795
       780       778       793       799       781       777       778       793
       781       777       785       786       781       777       785       787
       781       777       785       788       781       777       789       790
       781       777       789       791       781       777       789       792
       782       781       777       785       782       781       777       789
       783       781       777       785       783       781       777       789
       784       781       777       785       784       781       777       789
       785       777       778       793       785       777       789       790
       785       777       789       791       785       777       789       792
       786       785       777       789       787       785       777       789
       788       785       777       789       789       777       778       793
       793       799       796       797       793       799       796       798
       793       799       796       800       794       793       799       796
       795       793       799       796       796       800       801       802
       796       800       801       803       796       800       801       804
       797       796       800       801       798       796       800       801
       799       796       800       801       800       801       804       805
       800       801       804       806       800       801       804       812
       801       804       806       807       801       804       812       813
       801       804       812       814       801       804       812       815
       802       801       804       805       802       801       804       806
       802       801       804       812       803       801       804       805
       803       801       804       806       803       801       804       812
       804       806       807       808       804       806       807       809
       804       812       815       816       805       804       806       807
       805       804       812       813       805       804       812       814
       805       804       812       815       806       804       812       813
       806       804       812       814       806       804       812       815
       806       807       809       810       806       807       809       811
       806       807       809       821       807       806       804       812
       807       809       821       822       807       809       821       823
       807       809       821       824       808       807       809       810
       808       807       809       811       808       807       809       821
       809       821       824       825       809       821       824       826
       809       821       824       827       810       809       821       822
       810       809       821       823       810       809       821       824
       811       809       821       822       811       809       821       823
       811       809       821       824       812       815       816       817
       812       815       816       818       813       812       815       816
       814       812       815       816       815       816       818       819
       815       816       818       820       815       816       818       868
       816       818       868       869       816       818       868       870
       816       818       868       871       817       816       818       819
       817       816       818       820       817       816       818       868
       818       868       871       872       818       868       871       873
       818       868       871       874       819       818       868       869
       819       818       868       870       819       818       868       871
       820       818       868       869       820       818       868       870
       820       818       868       871       821       824       827       828
       821       824       827       829       821       824       827       830
       822       821       824       825       822       821       824       826
       822       821       824       827       823       821       824       825
       823       821       824       826       823       821       824       827
       824       827       830       831       824       827       830       832
       824       827       830       833       825       824       827       828
       825       824       827       829       825       824       827       830
       826       824       827       828       826       824       827       829
       826       824       827       830       827       830       833       834
       827       830       833       835       827       830       833       836
       828       827       830       831       828       827       830       832
       828       827       830       833       829       827       830       831
       829       827       830       832       829       827       830       833
       830       833       836       837       830       833       836       838
       830       833       836       839       831       830       833       834
       831       830       833       835       831       830       833       836
       832       830       833       834       832       830       833       835
       832       830       833       836       833       836       839       840
       833       836       839       841       834       833       836       837
       834       833       836       838       834       833       836       839
       835       833       836       837       835       833       836       838
       835       833       836       839       836       839       841       842
       836       839       841       843       837       836       839       840
       837       836       839       841       838       836       839       840
       838       836       839       841       839       841       843       844
       839       841       843       845       839       841       843       846
       840       839       841       842       840       839       841       843
       841       843       846       847       841       843       846       848
       841       843       846       849       842       841       843       844
       842       841       843       845       842       841       843       846
       843       846       849       850       843       846       849       851
       843       846       849       852       844       843       846       847
       844       843       846       848       844       843       846       849
       845       843       846       847       845       843       846       848
       845       843       846       849       846       849       852       853
       846       849       852       854       846       849       852       855
       847       846       849       850       847       846       849       851
       847       846       849       852       848       846       849       850
       848       846       849       851       848       846       849       852
       849       852       855       856       849       852       855       857
       849       852       855       858       850       849       852       853
       850       849       852       854       850       849       852       855
       851       849       852       853       851       849       852       854
       851       849       852       855       852       855       858       859
       852       855       858       860       852       855       858       861
       853       852       855       856       853       852       855       857
       853       852       855       858       854       852       855       856
       854       852       855       857       854       852       855       858
       855       858       861       862       855       858       861       863
       855       858       861       864       856       855       858       859
       856       855       858       860       856       855       858       861
       857       855       858       859       857       855       858       860
       857       855       858       861       858       861       864       865
       858       861       864       866       858       861       864       867
       859       858       861       862       859       858       861       863
       859       858       861       864       860       858       861       862
       860       858       861       863       860       858       861       864
       862       861       864       865       862       861       864       866
       862       861       864       867       863       861       864       865
       863       861       864       866       863       861       864       867
       868       871       874       875       868       871       874       876
       868       871       874       877       869       868       871       872
       869       868       871       873       869       868       871       874
       870       868       871       872       870       868       871       873
       870       868       871       874       871       874       877       878
       871       874       877       879       871       874       877       880
       872       871       874       875       872       871       874       876
       872       871       874       877       873       871       874       875
       873       871       874       876       873       871       874       877
       874       877       880       881       874       877       880       882
       874       877       880       883       875       874       877       878
       875       874       877       879       875       874       877       880
       876       874       877       878       876       874       877       879
       876       874       877       880       877       880       883       884
       877       880       883       885       877       880       883       886
       878       877       880       881       878       877       880       882
       878       877       880       883       879       877       880       881
       879       877       880       882       879       877       880       883
       880       883       886       887       880       883       886       888
       881       880       883       884       881       880       883       885
       881       880       883       886       882       880       883       884
       882       880       883       885       882       880       883       886
       883       886       888       889       883       886       888       890
       884       883       886       887       884       883       886       888
       885       883       886       887       885       883       886       888
       886       888       890       891       886       888       890       892
       886       888       890       893       887       886       888       889
       887       886       888       890       888       890       893       894
       888       890       893       895       888       890       893       896
       889       888       890       891       889       888       890       892
       889       888       890       893       890       893       896       897
       890       893       896       898       890       893       896       899
       891       890       893       894       891       890       893       895
       891       890       893       896       892       890       893       894
       892       890       893       895       892       890       893       896
       893       896       899       900       893       896       899       901
       893       896       899       902       894       893       896       897
       894       893       896       898       894       893       896       899
       895       893       896       897       895       893       896       898
       895       893       896       899       896       899       902       903
       896       899       902       904       896       899       902       905
       897       896       899       900       897       896       899       901
       897       896       899       902       898       896       899       900
       898       896       899       901       898       896       899       902
       899       902       905       906       899       902       905       907
       899       902       905       908       900       899       902       903
       900       899       902       904       900       899       902       905
       901       899       902       903       901       899       902       904
       901       899       902       905       902       905       908       909
       902       905       908       910       902       905       908       911
       903       902       905       906       903       902       905       907
       903       902       905       908       904       902       905       906
       904       902       905       907       904       902       905       908
       905       908       911       912       905       908       911       913
       905       908       911       914       906       905       908       909
       906       905       908       910       906       905       908       911
       907       905       908       909       907       905       908       910
       907       905       908       911       909       908       911       912
       909       908       911       913       909       908       911       914
       910       908       911       912       910       908       911       913
       910       908       911       914       915       916       931       932
       915       916       931       933       915       916       931       937
       916       915       919       920       916       915       919       921
       916       915       919       922       916       915       923       924
       916       915       923       925       916       915       923       926
       916       915       927       928       916       915       927       929
       916       915       927       930       916       931       937       934
       917       916       915       919       917       916       915       923
       917       916       915       927       917       916       931       932
       917       916       931       933       917       916       931       937
       918       916       915       919       918       916       915       923
       918       916       915       927       918       916       931       932
       918       916       931       933       918       916       931       937
       919       915       916       931       919       915       923       924
       919       915       923       925       919       915       923       926
       919       915       927       928       919       915       927       929
       919       915       927       930       920       919       915       923
       920       919       915       927       921       919       915       923
       921       919       915       927       922       919       915       923
       922       919       915       927       923       915       916       931
       923       915       927       928       923       915       927       929
       923       915       927       930       924       923       915       927
       925       923       915       927       926       923       915       927
       927       915       916       931       931       937       934       935
       931       937       934       936       931       937       934       938
       932       931       937       934       933       931       937       934
       934       938       939       940       934       938       939       941
       934       938       939       942       935       934       938       939
       936       934       938       939       937       934       938       939
       938       939       942       943       938       939       942       944
       938       939       942       950       939       942       944       945
       939       942       950       951       939       942       950       952
       939       942       950       953       940       939       942       943
       940       939       942       944       940       939       942       950
       941       939       942       943       941       939       942       944
       941       939       942       950       942       944       945       946
       942       944       945       947       942       950       953       954
       943       942       944       945       943       942       950       951
       943       942       950       952       943       942       950       953
       944       942       950       951       944       942       950       952
       944       942       950       953       944       945       947       948
       944       945       947       949       944       945       947       959
       945       944       942       950       945       947       959       960
       945       947       959       961       945       947       959       962
       946       945       947       948       946       945       947       949
       946       945       947       959       947       959       962       963
       947       959       962       964       947       959       962       965
       948       947       959       960       948       947       959       961
       948       947       959       962       949       947       959       960
       949       947       959       961       949       947       959       962
       950       953       954       955       950       953       954       956
       951       950       953       954       952       950       953       954
       953       954       956       957       953       954       956       958
       953       954       956      1006       954       956      1006      1007
       954       956      1006      1008       954       956      1006      1009
       955       954       956       957       955       954       956       958
       955       954       956      1006       956      1006      1009      1010
       956      1006      1009      1011       956      1006      1009      1012
       957       956      1006      1007       957       956      1006      1008
       957       956      1006      1009       958       956      1006      1007
       958       956      1006      1008       958       956      1006      1009
       959       962       965       966       959       962       965       967
       959       962       965       968       960       959       962       963
       960       959       962       964       960       959       962       965
       961       959       962       963       961       959       962       964
       961       959       962       965       962       965       968       969
       962       965       968       970       962       965       968       971
       963       962       965       966       963       962       965       967
       963       962       965       968       964       962       965       966
       964       962       965       967       964       962       965       968
       965       968       971       972       965       968       971       973
       965       968       971       974       966       965       968       969
       966       965       968       970       966       965       968       971
       967       965       968       969       967       965       968       970
       967       965       968       971       968       971       974       975
       968       971       974       976       968       971       974       977
       969       968       971       972       969       968       971       973
       969       968       971       974       970       968       971       972
       970       968       971       973       970       968       971       974
       971       974       977       978       971       974       977       979
       972       971       974       975       972       971       974       976
       972       971       974       977       973       971       974       975
       973       971       974       976       973       971       974       977
       974       977       979       980       974       977       979       981
       975       974       977       978       975       974       977       979
       976       974       977       978       976       974       977       979
       977       979       981       982       977       979       981       983
       977       979       981       984       978       977       979       980
       978       977       979       981       979       981       984       985
       979       981       984       986       979       981       984       987
       980       979       981       982       980       979       981       983
       980       979       981       984       981       984       987       988
       981       984       987       989       981       984       987       990
       982       981       984       985       982       981       984       986
       982       981       984       987       983       981       984       985
       983       981       984       986       983       981       984       987
       984       987       990       991       984       987       990       992
       984       987       990       993       985       984       987       988
       985       984       987       989       985       984       987       990
       986       984       987       988       986       984       987       989
       986       984       987       990       987       990       993       994
       987       990       993       995       987       990       993       996
       988       987       990       991       988       987       990       992
       988       987       990       993       989       987       990       991
       989       987       990       992       989       987       990       993
       990       993       996       997       990       993       996       998
       990       993       996       999       991       990       993       994
       991       990       993       995       991       990       993       996
       992       990       993       994       992       990       993       995
       992       990       993       996       993       996       999      1000
       993       996       999      1001       993       996       999      1002
       994       993       996       997       994       993       996       998
       994       993       996       999       995       993       996       997
       995       993       996       998       995       993       996       999
       996       999      1002      1003       996       999      1002      1004
       996       999      1002      1005       997       996       999      1000
       997       996       999      1001       997       996       999      1002
       998       996       999      1000       998       996       999      1001
       998       996       999      1002      1000       999      1002      1003
      1000       999      1002      1004      1000       999      1002      1005
      1001       999      1002      1003      1001       999      1002      1004
      1001       999      1002      1005      1006      1009      1012      1013
      1006      1009      1012      1014      1006      1009      1012      1015
      1007      1006      1009      1010      1007      1006      1009      1011
      1007      1006      1009      1012      1008      1006      1009      1010
      1008      1006      1009      1011      1008      1006      1009      1012
      1009      1012      1015      1016      1009      1012      1015      1017
      1009      1012      1015      1018      1010      1009      1012      1013
      1010      1009      1012      1014      1010      1009      1012      1015
      1011      1009      1012      1013      1011      1009      1012      1014
      1011      1009      1012      1015      1012      1015      1018      1019
      1012      1015      1018      1020      1012      1015      1018      1021
      1013      1012      1015      1016      1013      1012      1015      1017
      1013      1012      1015      1018      1014      1012      1015      1016
      1014      1012      1015      1017      1014      1012      1015      1018
      1015      1018      1021      1022      1015      1018      1021      1023
      1015      1018      1021      1024      1016      1015      1018      1019
      1016      1015      1018      1020      1016      1015      1018      1021
      1017      1015      1018      1019      1017      1015      1018      1020
      1017      1015      1018      1021      1018      1021      1024      1025
      1018      1021      1024      1026      1019      1018      1021      1022
      1019      1018      1021      1023      1019      1018      1021      1024
      1020      1018      1021      1022      1020      1018      1021      1023
      1020      1018      1021      1024      1021      1024      1026      1027
      1021      1024      1026      1028      1022      1021      1024      1025
      1022      1021      1024      1026      1023      1021      1024      1025
      1023      1021      1024      1026      1024      1026      1028      1029
      1024      1026      1028      1030      1024      1026      1028      1031
      1025      1024      1026      1027      1025      1024      1026      1028
      1026      1028      1031      1032      1026      1028      1031      1033
      1026      1028      1031      1034      1027      1026      1028      1029
      1027      1026      1028      1030      1027      1026      1028      1031
      1028      1031      1034      1035      1028      1031      1034      1036
      1028      1031      1034      1037      1029      1028      1031      1032
      1029      1028      1031      1033      1029      1028      1031      1034
      1030      1028      1031      1032      1030      1028      1031      1033
      1030      1028      1031      1034      1031      1034      1037      1038
      1031      1034      1037      1039      1031      1034      1037      1040
      1032      1031      1034      1035      1032      1031      1034      1036
      1032      1031      1034      1037      1033      1031      1034      1035
      1033      1031      1034      1036      1033      1031      1034      1037
      1034      1037      1040      1041      1034      1037      1040      1042
      1034      1037      1040      1043      1035      1034      1037      1038
      1035      1034      1037      1039      1035      1034      1037      1040
      1036      1034      1037      1038      1036      1034      1037      1039
      1036      1034      1037      1040      1037      1040      1043      1044
      1037      1040      1043      1045      1037      1040      1043      1046
      1038      1037      1040      1041      1038      1037      1040      1042
      1038      1037      1040      1043      1039      1037      1040      1041
      1039      1037      1040      1042      1039      1037      1040      1043
      1040      1043      1046      1047      1040      1043      1046      1048
      1040      1043      1046      1049      1041      1040      1043      1044
      1041      1040      1043      1045      1041      1040      1043      1046
      1042      1040      1043      1044      1042      1040      1043      1045
      1042      1040      1043      1046      1043      1046      1049      1050
      1043      1046      1049      1051      1043      1046      1049      1052
      1044      1043      1046      1047      1044      1043      1046      1048
      1044      1043      1046      1049      1045      1043      1046      1047
      1045      1043      1046      1048      1045      1043      1046      1049
      1047      1046      1049      1050      1047      1046      1049      1051
      1047      1046      1049      1052      1048      1046      1049      1050
      1048      1046      1049      1051      1048      1046      1049      1052
      1053      1054      1069      1070      1053      1054      1069      1071
      1053      1054      1069      1075      1054      1053      1057      1058
      1054      1053      1057      1059      1054      1053      1057      1060
      1054      1053      1061      1062      1054      1053      1061      1063
      1054      1053      1061      1064      1054      1053      1065      1066
      1054      1053      1065      1067      1054      1053      1065      1068
      1054      1069      1075      1072      1055      1054      1053      1057
      1055      1054      1053      1061      1055      1054      1053      1065
      1055      1054      1069      1070      1055      1054      1069      1071
      1055      1054      1069      1075      1056      1054      1053      1057
      1056      1054      1053      1061      1056      1054      1053      1065
      1056      1054      1069      1070      1056      1054      1069      1071
      1056      1054      1069      1075      1057      1053      1054      1069
      1057      1053      1061      1062      1057      1053      1061      1063
      1057      1053      1061      1064      1057      1053      1065      1066
      1057      1053      1065      1067      1057      1053      1065      1068
      1058      1057      1053      1061      1058      1057      1053      1065
      1059      1057      1053      1061      1059      1057      1053      1065
      1060      1057      1053      1061      1060      1057      1053      1065
      1061      1053      1054      1069      1061      1053      1065      1066
      1061      1053      1065      1067      1061      1053      1065      1068
      1062      1061      1053      1065      1063      1061      1053      1065
      1064      1061      1053      1065      1065      1053      1054      1069
      1069      1075      1072      1073      1069      1075      1072      1074
      1069      1075      1072      1076      1070      1069      1075      1072
      1071      1069      1075      1072      1072      1076      1077      1078
      1072      1076      1077      1079      1072      1076      1077      1080
      1073      1072      1076      1077      1074      1072      1076      1077
      1075      1072      1076      1077      1076      1077      1080      1081
      1076      1077      1080      1082      1076      1077      1080      1088
      1077      1080      1082      1083      1077      1080      1088      1089
      1077      1080      1088      1090      1077      1080      1088      1091
      1078      1077      1080      1081      1078      1077      1080      1082
      1078      1077      1080      1088      1079      1077      1080      1081
      1079      1077      1080      1082      1079      1077      1080      1088
      1080      1082      1083      1084      1080      1082      1083      1085
      1080      1088      1091      1092      1081      1080      1082      1083
      1081      1080      1088      1089      1081      1080      1088      1090
      1081      1080      1088      1091      1082      1080      1088      1089
      1082      1080      1088      1090      1082      1080      1088      1091
      1082      1083      1085      1086      1082      1083      1085      1087
      1082      1083      1085      1097      1083      1082      1080      1088
      1083      1085      1097      1098      1083      1085      1097      1099
      1083      1085      1097      1100      1084      1083      1085      1086
      1084      1083      1085      1087      1084      1083      1085      1097
      1085      1097      1100      1101      1085      1097      1100      1102
      1085      1097      1100      1103      1086      1085      1097      1098
      1086      1085      1097      1099      1086      1085      1097      1100
      1087      1085      1097      1098      1087      1085      1097      1099
      1087      1085      1097      1100      1088      1091      1092      1093
      1088      1091      1092      1094      1089      1088      1091      1092
      1090      1088      1091      1092      1091      1092      1094      1095
      1091      1092      1094      1096      1091      1092      1094      1144
      1092      1094      1144      1145      1092      1094      1144      1146
      1092      1094      1144      1147      1093      1092      1094      1095
      1093      1092      1094      1096      1093      1092      1094      1144
      1094      1144      1147      1148      1094      1144      1147      1149
      1094      1144      1147      1150      1095      1094      1144      1145
      1095      1094      1144      1146      1095      1094      1144      1147
      1096      1094      1144      1145      1096      1094      1144      1146
      1096      1094      1144      1147      1097      1100      1103      1104
      1097      1100      1103      1105      1097      1100      1103      1106
      1098      1097      1100      1101      1098      1097      1100      1102
      1098      1097      1100      1103      1099      1097      1100      1101
      1099      1097      1100      1102      1099      1097      1100      1103
      1100      1103      1106      1107      1100      1103      1106      1108
      1100      1103      1106      1109      1101      1100      1103      1104
      1101      1100      1103      1105      1101      1100      1103      1106
      1102      1100      1103      1104      1102      1100      1103      1105
      1102      1100      1103      1106      1103      1106      1109      1110
      1103      1106      1109      1111      1103      1106      1109      1112
      1104      1103      1106      1107      1104      1103      1106      1108
      1104      1103      1106      1109      1105      1103      1106      1107
      1105      1103      1106      1108      1105      1103      1106      1109
      1106      1109      1112      1113      1106      1109      1112      1114
      1106      1109      1112      1115      1107      1106      1109      1110
      1107      1106      1109      1111      1107      1106      1109      1112
      1108      1106      1109      1110      1108      1106      1109      1111
      1108      1106      1109      1112      1109      1112      1115      1116
      1109      1112      1115      1117      1110      1109      1112      1113
      1110      1109      1112      1114      1110      1109      1112      1115
      1111      1109      1112      1113      1111      1109      1112      1114
      1111      1109      1112      1115      1112      1115      1117      1118
      1112      1115      1117      1119      1113      1112      1115      1116
      1113      1112      1115      1117      1114      1112      1115      1116
      1114      1112      1115      1117      1115      1117      1119      1120
      1115      1117      1119      1121      1115      1117      1119      1122
      1116      1115      1117      1118      1116      1115      1117      1119
      1117      1119      1122      1123      1117      1119      1122      1124
      1117      1119      1122      1125      1118      1117      1119      1120
      1118      1117      1119      1121      1118      1117      1119      1122
      1119      1122      1125      1126      1119      1122      1125      1127
      1119      1122      1125      1128      1120      1119      1122      1123
      1120      1119      1122      1124      1120      1119      1122      1125
      1121      1119      1122      1123      1121      1119      1122      1124
      1121      1119      1122      1125      1122      1125      1128      1129
      1122      1125      1128      1130      1122      1125      1128      1131
      1123      1122      1125      1126      1123      1122      1125      1127
      1123      1122      1125      1128      1124      1122      1125      1126
      1124      1122      1125      1127      1124      1122      1125      1128
      1125      1128      1131      1132      1125      1128      1131      1133
      1125      1128      1131      1134      1126      1125      1128      1129
      1126      1125      1128      1130      1126      1125      1128      1131
      1127      1125      1128      1129      1127      1125      1128      1130
      1127      1125      1128      1131      1128      1131      1134      1135
      1128      1131      1134      1136      1128      1131      1134      1137
      1129      1128      1131      1132      1129      1128      1131      1133
      1129      1128      1131      1134      1130      1128      1131      1132
      1130      1128      1131      1133      1130      1128      1131      1134
      1131      1134      1137      1138      1131      1134      1137      1139
      1131      1134      1137      1140      1132      1131      1134      1135
      1132      1131      1134      1136      1132      1131      1134      1137
      1133      1131      1134      1135      1133      1131      1134      1136
      1133      1131      1134      1137      1134      1137      1140      1141
      1134      1137      1140      1142      1134      1137      1140      1143
      1135      1134      1137      1138      1135      1134      1137      1139
      1135      1134      1137      1140      1136      1134      1137      1138
      1136      1134      1137      1139      1136      1134      1137      1140
      1138      1137      1140      1141      1138      1137      1140      1142
      1138      1137      1140      1143      1139      1137      1140      1141
      1139      1137      1140      1142      1139      1137      1140      1143
      1144      1147      1150      1151      1144      1147      1150      1152
      1144      1147      1150      1153      1145      1144      1147      1148
      1145      1144      1147      1149      1145      1144      1147      1150
      1146      1144      1147      1148      1146      1144      1147      1149
      1146      1144      1147      1150      1147      1150      1153      1154
      1147      1150      1153      1155      1147      1150      1153      1156
      1148      1147      1150      1151      1148      1147      1150      1152
      1148      1147      1150      1153      1149      1147      1150      1151
      1149      1147      1150      1152      1149      1147      1150      1153
      1150      1153      1156      1157      1150      1153      1156      1158
      1150      1153      1156      1159      1151      1150      1153      1154
      1151      1150      1153      1155      1151      1150      1153      1156
      1152      1150      1153      1154      1152      1150      1153      1155
      1152      1150      1153      1156      1153      1156      1159      1160
      1153      1156      1159      1161      1153      1156      1159      1162
      1154      1153      1156      1157      1154      1153      1156      1158
      1154      1153      1156      1159      1155      1153      1156      1157
      1155      1153      1156      1158      1155      1153      1156      1159
      1156      1159      1162      1163      1156      1159      1162      1164
      1157      1156      1159      1160      1157      1156      1159      1161
      1157      1156      1159      1162      1158      1156      1159      1160
      1158      1156      1159      1161      1158      1156      1159      1162
      1159      1162      1164      1165      1159      1162      1164      1166
      1160      1159      1162      1163      1160      1159      1162      1164
      1161      1159      1162      1163      1161      1159      1162      1164
      1162      1164      1166      1167      1162      1164      1166      1168
      1162      1164      1166      1169      1163      1162      1164      1165
      1163      1162      1164      1166      1164      1166      1169      1170
      1164      1166      1169      1171      1164      1166      1169      1172
      1165      1164      1166      1167      1165      1164      1166      1168
      1165      1164      1166      1169      1166      1169      1172      1173
      1166      1169      1172      1174      1166      1169      1172      1175
      1167      1166      1169      1170      1167      1166      1169      1171
      1167      1166      1169      1172      1168      1166      1169      1170
      1168      1166      1169      1171      1168      1166      1169      1172
      1169      1172      1175      1176      1169      1172      1175      1177
      1169      1172      1175      1178      1170      1169      1172      1173
      1170      1169      1172      1174      1170      1169      1172      1175
      1171      1169      1172      1173      1171      1169      1172      1174
      1171      1169      1172      1175      1172      1175      1178      1179
      1172      1175      1178      1180      1172      1175      1178      1181
      1173      1172      1175      1176      1173      1172      1175      1177
      1173      1172      1175      1178      1174      1172      1175      1176
      1174      1172      1175      1177      1174      1172      1175      1178
      1175      1178      1181      1182      1175      1178      1181      1183
      1175      1178      1181      1184      1176      1175      1178      1179
      1176      1175      1178      1180      1176      1175      1178      1181
      1177      1175      1178      1179      1177      1175      1178      1180
      1177      1175      1178      1181      1178      1181      1184      1185
      1178      1181      1184      1186      1178      1181      1184      1187
      1179      1178      1181      1182      1179      1178      1181      1183
      1179      1178      1181      1184      1180      1178      1181      1182
      1180      1178      1181      1183      1180      1178      1181      1184
      1181      1184      1187      1188      1181      1184      1187      1189
      1181      1184      1187      1190      1182      1181      1184      1185
      1182      1181      1184      1186      1182      1181      1184      1187
      1183      1181      1184      1185      1183      1181      1184      1186
      1183      1181      1184      1187      1185      1184      1187      1188
      1185      1184      1187      1189      1185      1184      1187      1190
      1186      1184      1187      1188      1186      1184      1187      1189
      1186      1184      1187      1190      1191      1192      1207      1208
      1191      1192      1207      1209      1191      1192      1207      1213
      1192      1191      1195      1196      1192      1191      1195      1197
      1192      1191      1195      1198      1192      1191      1199      1200
      1192      1191      1199      1201      1192      1191      1199      1202
      1192      1191      1203      1204      1192      1191      1203      1205
      1192      1191      1203      1206      1192      1207      1213      1210
      1193      1192      1191      1195      1193      1192      1191      1199
      1193      1192      1191      1203      1193      1192      1207      1208
      1193      1192      1207      1209      1193      1192      1207      1213
      1194      1192      1191      1195      1194      1192      1191      1199
      1194      1192      1191      1203      1194      1192      1207      1208
      1194      1192      1207      1209      1194      1192      1207      1213
      1195      1191      1192      1207      1195      1191      1199      1200
      1195      1191      1199      1201      1195      1191      1199      1202
      1195      1191      1203      1204      1195      1191      1203      1205
      1195      1191      1203      1206      1196      1195      1191      1199
      1196      1195      1191      1203      1197      1195      1191      1199
      1197      1195      1191      1203      1198      1195      1191      1199
      1198      1195      1191      1203      1199      1191      1192      1207
      1199      1191      1203      1204      1199      1191      1203      1205
      1199      1191      1203      1206      1200      1199      1191      1203
      1201      1199      1191      1203      1202      1199      1191      1203
      1203      1191      1192      1207      1207      1213      1210      1211
      1207      1213      1210      1212      1207      1213      1210      1214
      1208      1207      1213      1210      1209      1207      1213      1210
      1210      1214      1215      1216      1210      1214      1215      1217
      1210      1214      1215      1218      1211      1210      1214      1215
      1212      1210      1214      1215      1213      1210      1214      1215
      1214      1215      1218      1219      1214      1215      1218      1220
      1214      1215      1218      1226      1215      1218      1220      1221
      1215      1218      1226      1227      1215      1218      1226      1228
      1215      1218      1226      1229      1216      1215      1218      1219
      1216      1215      1218      1220      1216      1215      1218      1226
      1217      1215      1218      1219      1217      1215      1218      1220
      1217      1215      1218      1226      1218      1220      1221      1222
      1218      1220      1221      1223      1218      1226      1229      1230
      1219      1218      1220      1221      1219      1218      1226      1227
      1219      1218      1226      1228      1219      1218      1226      1229
      1220      1218      1226      1227      1220      1218      1226      1228
      1220      1218      1226      1229      1220      1221      1223      1224
      1220      1221      1223      1225      1220      1221      1223      1235
      1221      1220      1218      1226      1221      1223      1235      1236
      1221      1223      1235      1237      1221      1223      1235      1238
      1222      1221      1223      1224      1222      1221      1223      1225
      1222      1221      1223      1235      1223      1235      1238      1239
      1223      1235      1238      1240      1223      1235      1238      1241
      1224      1223      1235      1236      1224      1223      1235      1237
      1224      1223      1235      1238      1225      1223      1235      1236
      1225      1223      1235      1237      1225      1223      1235      1238
      1226      1229      1230      1231      1226      1229      1230      1232
      1227      1226      1229      1230      1228      1226      1229      1230
      1229      1230      1232      1233      1229      1230      1232      1234
      1229      1230      1232      1282      1230      1232      1282      1283
      1230      1232      1282      1284      1230      1232      1282      1285
      1231      1230      1232      1233      1231      1230      1232      1234
      1231      1230      1232      1282      1232      1282      1285      1286
      1232      1282      1285      1287      1232      1282      1285      1288
      1233      1232      1282      1283      1233      1232      1282      1284
      1233      1232      1282      1285      1234      1232      1282      1283
      1234      1232      1282      1284      1234      1232      1282      1285
      1235      1238      1241      1242      1235      1238      1241      1243
      1235      1238      1241      1244      1236      1235      1238      1239
      1236      1235      1238      1240      1236      1235      1238      1241
      1237      1235      1238      1239      1237      1235      1238      1240
      1237      1235      1238      1241      1238      1241      1244      1245
      1238      1241      1244      1246      1238      1241      1244      1247
      1239      1238      1241      1242      1239      1238      1241      1243
      1239      1238      1241      1244      1240      1238      1241      1242
      1240      1238      1241      1243      1240      1238      1241      1244
      1241      1244      1247      1248      1241      1244      1247      1249
      1241      1244      1247      1250      1242      1241      1244      1245
      1242      1241      1244      1246      1242      1241      1244      1247
      1243      1241      1244      1245      1243      1241      1244      1246
      1243      1241      1244      1247      1244      1247      1250      1251
      1244      1247      1250      1252      1244      1247      1250      1253
      1245      1244      1247      1248      1245      1244      1247      1249
      1245      1244      1247      1250      1246      1244      1247      1248
      1246      1244      1247      1249      1246      1244      1247      1250
      1247      1250      1253      1254      1247      1250      1253      1255
      1248      1247      1250      1251      1248      1247      1250      1252
      1248      1247      1250      1253      1249      1247      1250      1251
      1249      1247      1250      1252      1249      1247      1250      1253
      1250      1253      1255      1256      1250      1253      1255      1257
      1251      1250      1253      1254      1251      1250      1253      1255
      1252      1250      1253      1254      1252      1250      1253      1255
      1253      1255      1257      1258      1253      1255      1257      1259
      1253      1255      1257      1260      1254      1253      1255      1256
      1254      1253      1255      1257      1255      1257      1260      1261
      1255      1257      1260      1262      1255      1257      1260      1263
      1256      1255      1257      1258      1256      1255      1257      1259
      1256      1255      1257      1260      1257      1260      1263      1264
      1257      1260      1263      1265      1257      1260      1263      1266
      1258      1257      1260      1261      1258      1257      1260      1262
      1258      1257      1260      1263      1259      1257      1260      1261
      1259      1257      1260      1262      1259      1257      1260      1263
      1260      1263      1266      1267      1260      1263      1266      1268
      1260      1263      1266      1269      1261      1260      1263      1264
      1261      1260      1263      1265      1261      1260      1263      1266
      1262      1260      1263      1264      1262      1260      1263      1265
      1262      1260      1263      1266      1263      1266      1269      1270
      1263      1266      1269      1271      1263      1266      1269      1272
      1264      1263      1266      1267      1264      1263      1266      1268
      1264      1263      1266      1269      1265      1263      1266      1267
      1265      1263      1266      1268      1265      1263      1266      1269
      1266      1269      1272      1273      1266      1269      1272      1274
      1266      1269      1272      1275      1267      1266      1269      1270
      1267      1266      1269      1271      1267      1266      1269      1272
      1268      1266      1269      1270      1268      1266      1269      1271
      1268      1266      1269      1272      1269      1272      1275      1276
      1269      1272      1275      1277      1269      1272      1275      1278
      1270      1269      1272      1273      1270      1269      1272      1274
      1270      1269      1272      1275      1271      1269      1272      1273
      1271      1269      1272      1274      1271      1269      1272      1275
      1272      1275      1278      1279      1272      1275      1278      1280
      1272      1275      1278      1281      1273      1272      1275      1276
      1273      1272      1275      1277      1273      1272      1275      1278
      1274      1272      1275      1276      1274      1272      1275      1277
      1274      1272      1275      1278      1276      1275      1278      1279
      1276      1275      1278      1280      1276      1275      1278      1281
      1277      1275      1278      1279      1277      1275      1278      1280
      1277      1275      1278      1281      1282      1285      1288      1289
      1282      1285      1288      1290      1282      1285      1288      1291
      1283      1282      1285      1286      1283      1282      1285      1287
      1283      1282      1285      1288      1284      1282      1285      1286
      1284      1282      1285      1287      1284      1282      1285      1288
      1285      1288      1291      1292      1285      1288      1291      1293
      1285      1288      1291      1294      1286      1285      1288      1289
      1286      1285      1288      1290      1286      1285      1288      1291
      1287      1285      1288      1289      1287      1285      1288      1290
      1287      1285      1288      1291      1288      1291      1294      1295
      1288      1291      1294      1296      1288      1291      1294      1297
      1289      1288      1291      1292      1289      1288      1291      1293
      1289      1288      1291      1294      1290      1288      1291      1292
      1290      1288      1291      1293      1290      1288      1291      1294
      1291      1294      1297      1298      1291      1294      1297      1299
      1291      1294      1297      1300      1292      1291      1294      1295
      1292      1291      1294      1296      1292      1291      1294      1297
      1293      1291      1294      1295      1293      1291      1294      1296
      1293      1291      1294      1297      1294      1297      1300      1301
      1294      1297      1300      1302      1295      1294      1297      1298
      1295      1294      1297      1299      1295      1294      1297      1300
      1296      1294      1297      1298      1296      1294      1297      1299
      1296      1294      1297      1300      1297      1300      1302      1303
      1297      1300      1302      1304      1298      1297      1300      1301
      1298      1297      1300      1302      1299      1297      1300      1301
      1299      1297      1300      1302      1300      1302      1304      1305
      1300      1302      1304      1306      1300      1302      1304      1307
      1301      1300      1302      1303      1301      1300      1302      1304
      1302      1304      1307      1308      1302      1304      1307      1309
      1302      1304      1307      1310      1303      1302      1304      1305
      1303      1302      1304      1306      1303      1302      1304      1307
      1304      1307      1310      1311      1304      1307      1310      1312
      1304      1307      1310      1313      1305      1304      1307      1308
      1305      1304      1307      1309      1305      1304      1307      1310
      1306      1304      1307      1308      1306      1304      1307      1309
      1306      1304      1307      1310      1307      1310      1313      1314
      1307      1310      1313      1315      1307      1310      1313      1316
      1308      1307      1310      1311      1308      1307      1310      1312
      1308      1307      1310      1313      1309      1307      1310      1311
      1309      1307      1310      1312      1309      1307      1310      1313
      1310      1313      1316      1317      1310      1313      1316      1318
      1310      1313      1316      1319      1311      1310      1313      1314
      1311      1310      1313      1315      1311      1310      1313      1316
      1312      1310      1313      1314      1312      1310      1313      1315
      1312      1310      1313      1316      1313      1316      1319      1320
      1313      1316      1319      1321      1313      1316      1319      1322
      1314      1313      1316      1317      1314      1313      1316      1318
      1314      1313      1316      1319      1315      1313      1316      1317
      1315      1313      1316      1318      1315      1313      1316      1319
      1316      1319      1322      1323      1316      1319      1322      1324
      1316      1319      1322      1325      1317      1316      1319      1320
      1317      1316      1319      1321      1317      1316      1319      1322
      1318      1316      1319      1320      1318      1316      1319      1321
      1318      1316      1319      1322      1319      1322      1325      1326
      1319      1322      1325      1327      1319      1322      1325      1328
      1320      1319      1322      1323      1320      1319      1322      1324
      1320      1319      1322      1325      1321      1319      1322      1323
      1321      1319      1322      1324      1321      1319      1322      1325
      1323      1322      1325      1326      1323      1322      1325      1327
      1323      1322      1325      1328      1324      1322      1325      1326
      1324      1322      1325      1327      1324      1322      1325      1328
      1329      1330      1345      1346      1329      1330      1345      1347
      1329      1330      1345      1351      1330      1329      1333      1334
      1330      1329      1333      1335      1330      1329      1333      1336
      1330      1329      1337      1338      1330      1329      1337      1339
      1330      1329      1337      1340      1330      1329      1341      1342
      1330      1329      1341      1343      1330      1329      1341      1344
      1330      1345      1351      1348      1331      1330      1329      1333
      1331      1330      1329      1337      1331      1330      1329      1341
      1331      1330      1345      1346      1331      1330      1345      1347
      1331      1330      1345      1351      1332      1330      1329      1333
      1332      1330      1329      1337      1332      1330      1329      1341
      1332      1330      1345      1346      1332      1330      1345      1347
      1332      1330      1345      1351      1333      1329      1330      1345
      1333      1329      1337      1338      1333      1329      1337      1339
      1333      1329      1337      1340      1333      1329      1341      1342
      1333      1329      1341      1343      1333      1329      1341      1344
      1334      1333      1329      1337      1334      1333      1329      1341
      1335      1333      1329      1337      1335      1333      1329      1341
      1336      1333      1329      1337      1336      1333      1329      1341
      1337      1329      1330      1345      1337      1329      1341      1342
      1337      1329      1341      1343      1337      1329      1341      1344
      1338      1337      1329      1341      1339      1337      1329      1341
      1340      1337      1329      1341      1341      1329      1330      1345
      1345      1351      1348      1349      1345      1351      1348      1350
      1345      1351      1348      1352      1346      1345      1351      1348
      1347      1345      1351      1348      1348      1352      1353      1354
      1348      1352      1353      1355      1348      1352      1353      1356
      1349      1348      1352      1353      1350      1348      1352      1353
      1351      1348      1352      1353      1352      1353      1356      1357
      1352      1353      1356      1358      1352      1353      1356      1364
      1353      1356      1358      1359      1353      1356      1364      1365
      1353      1356      1364      1366      1353      1356      1364      1367
      1354      1353      1356      1357      1354      1353      1356      1358
      1354      1353      1356      1364      1355      1353      1356      1357
      1355      1353      1356      1358      1355      1353      1356      1364
      1356      1358      1359      1360      1356      1358      1359      1361
      1356      1364      1367      1368      1357      1356      1358      1359
      1357      1356      1364      1365      1357      1356      1364      1366
      1357      1356      1364      1367      1358      1356      1364      1365
      1358      1356      1364      1366      1358      1356      1364      1367
      1358      1359      1361      1362      1358      1359      1361      1363
      1358      1359      1361      1373      1359      1358      1356      1364
      1359      1361      1373      1374      1359      1361      1373      1375
      1359      1361      1373      1376      1360      1359      1361      1362
      1360      1359      1361      1363      1360      1359      1361      1373
      1361      1373      1376      1377      1361      1373      1376      1378
      1361      1373      1376      1379      1362      1361      1373      1374
      1362      1361      1373      1375      1362      1361      1373      1376
      1363      1361      1373      1374      1363      1361      1373      1375
      1363      1361      1373      1376      1364      1367      1368      1369
      1364      1367      1368      1370      1365      1364      1367      1368
      1366      1364      1367      1368      1367      1368      1370      1371
      1367      1368      1370      1372      1367      1368      1370      1420
      1368      1370      1420      1421      1368      1370      1420      1422
      1368      1370      1420      1423      1369      1368      1370      1371
      1369      1368      1370      1372      1369      1368      1370      1420
      1370      1420      1423      1424      1370      1420      1423      1425
      1370      1420      1423      1426      1371      1370      1420      1421
      1371      1370      1420      1422      1371      1370      1420      1423
      1372      1370      1420      1421      1372      1370      1420      1422
      1372      1370      1420      1423      1373      1376      1379      1380
      1373      1376      1379      1381      1373      1376      1379      1382
      1374      1373      1376      1377      1374      1373      1376      1378
      1374      1373      1376      1379      1375      1373      1376      1377
      1375      1373      1376      1378      1375      1373      1376      1379
      1376      1379      1382      1383      1376      1379      1382      1384
      1376      1379      1382      1385      1377      1376      1379      1380
      1377      1376      1379      1381      1377      1376      1379      1382
      1378      1376      1379      1380      1378      1376      1379      1381
      1378      1376      1379      1382      1379      1382      1385      1386
      1379      1382      1385      1387      1379      1382      1385      1388
      1380      1379      1382      1383      1380      1379      1382      1384
      1380      1379      1382      1385      1381      1379      1382      1383
      1381      1379      1382      1384      1381      1379      1382      1385
      1382      1385      1388      1389      1382      1385      1388      1390
      1382      1385      1388      1391      1383      1382      1385      1386
      1383      1382      1385      1387      1383      1382      1385      1388
      1384      1382      1385      1386      1384      1382      1385      1387
      1384      1382      1385      1388      1385      1388      1391      1392
      1385      1388      1391      1393      1386      1385      1388      1389
      1386      1385      1388      1390      1386      1385      1388      1391
      1387      1385      1388      1389      1387      1385      1388      1390
      1387      1385      1388      1391      1388      1391      1393      1394
      1388      1391      1393      1395      1389      1388      1391      1392
      1389      1388      1391      1393      1390      1388      1391      1392
      1390      1388      1391      1393      1391      1393      1395      1396
      1391      1393      1395      1397      1391      1393      1395      1398
      1392      1391      1393      1394      1392      1391      1393      1395
      1393      1395      1398      1399      1393      1395      1398      1400
      1393      1395      1398      1401      1394      1393      1395      1396
      1394      1393      1395      1397      1394      1393      1395      1398
      1395      1398      1401      1402      1395      1398      1401      1403
      1395      1398      1401      1404      1396      1395      1398      1399
      1396      1395      1398      1400      1396      1395      1398      1401
      1397      1395      1398      1399      1397      1395      1398      1400
      1397      1395      1398      1401      1398      1401      1404      1405
      1398      1401      1404      1406      1398      1401      1404      1407
      1399      1398      1401      1402      1399      1398      1401      1403
      1399      1398      1401      1404      1400      1398      1401      1402
      1400      1398      1401      1403      1400      1398      1401      1404
      1401      1404      1407      1408      1401      1404      1407      1409
      1401      1404      1407      1410      1402      1401      1404      1405
      1402      1401      1404      1406      1402      1401      1404      1407
      1403      1401      1404      1405      1403      1401      1404      1406
      1403      1401      1404      1407      1404      1407      1410      1411
      1404      1407      1410      1412      1404      1407      1410      1413
      1405      1404      1407      1408      1405      1404      1407      1409
      1405      1404      1407      1410      1406      1404      1407      1408
      1406      1404      1407      1409      1406      1404      1407      1410
      1407      1410      1413      1414      1407      1410      1413      1415
      1407      1410      1413      1416      1408      1407      1410      1411
      1408      1407      1410      1412      1408      1407      1410      1413
      1409      1407      1410      1411      1409      1407      1410      1412
      1409      1407      1410      1413      1410      1413      1416      1417
      1410      1413      1416      1418      1410      1413      1416      1419
      1411      1410      1413      1414      1411      1410      1413      1415
      1411      1410      1413      1416      1412      1410      1413      1414
      1412      1410      1413      1415      1412      1410      1413      1416
      1414      1413      1416      1417      1414      1413      1416      1418
      1414      1413      1416      1419      1415      1413      1416      1417
      1415      1413      1416      1418      1415      1413      1416      1419
      1420      1423      1426      1427      1420      1423      1426      1428
      1420      1423      1426      1429      1421      1420      1423      1424
      1421      1420      1423      1425      1421      1420      1423      1426
      1422      1420      1423      1424      1422      1420      1423      1425
      1422      1420      1423      1426      1423      1426      1429      1430
      1423      1426      1429      1431      1423      1426      1429      1432
      1424      1423      1426      1427      1424      1423      1426      1428
      1424      1423      1426      1429      1425      1423      1426      1427
      1425      1423      1426      1428      1425      1423      1426      1429
      1426      1429      1432      1433      1426      1429      1432      1434
      1426      1429      1432      1435      1427      1426      1429      1430
      1427      1426      1429      1431      1427      1426      1429      1432
      1428      1426      1429      1430      1428      1426      1429      1431
      1428      1426      1429      1432      1429      1432      1435      1436
      1429      1432      1435      1437      1429      1432      1435      1438
      1430      1429      1432      1433      1430      1429      1432      1434
      1430      1429      1432      1435      1431      1429      1432      1433
      1431      1429      1432      1434      1431      1429      1432      1435
      1432      1435      1438      1439      1432      1435      1438      1440
      1433      1432      1435      1436      1433      1432      1435      1437
      1433      1432      1435      1438      1434      1432      1435      1436
      1434      1432      1435      1437      1434      1432      1435      1438
      1435      1438      1440      1441      1435      1438      1440      1442
      1436      1435      1438      1439      1436      1435      1438      1440
      1437      1435      1438      1439      1437      1435      1438      1440
      1438      1440      1442      1443      1438      1440      1442      1444
      1438      1440      1442      1445      1439      1438      1440      1441
      1439      1438      1440      1442      1440      1442      1445      1446
      1440      1442      1445      1447      1440      1442      1445      1448
      1441      1440      1442      1443      1441      1440      1442      1444
      1441      1440      1442      1445      1442      1445      1448      1449
      1442      1445      1448      1450      1442      1445      1448      1451
      1443      1442      1445      1446      1443      1442      1445      1447
      1443      1442      1445      1448      1444      1442      1445      1446
      1444      1442      1445      1447      1444      1442      1445      1448
      1445      1448      1451      1452      1445      1448      1451      1453
      1445      1448      1451      1454      1446      1445      1448      1449
      1446      1445      1448      1450      1446      1445      1448      1451
      1447      1445      1448      1449      1447      1445      1448      1450
      1447      1445      1448      1451      1448      1451      1454      1455
      1448      1451      1454      1456      1448      1451      1454      1457
      1449      1448      1451      1452      1449      1448      1451      1453
      1449      1448      1451      1454      1450      1448      1451      1452
      1450      1448      1451      1453      1450      1448      1451      1454
      1451      1454      1457      1458      1451      1454      1457      1459
      1451      1454      1457      1460      1452      1451      1454      1455
      1452      1451      1454      1456      1452      1451      1454      1457
      1453      1451      1454      1455      1453      1451      1454      1456
      1453      1451      1454      1457      1454      1457      1460      1461
      1454      1457      1460      1462      1454      1457      1460      1463
      1455      1454      1457      1458      1455      1454      1457      1459
      1455      1454      1457      1460      1456      1454      1457      1458
      1456      1454      1457      1459      1456      1454      1457      1460
      1457      1460      1463      1464      1457      1460      1463      1465
      1457      1460      1463      1466      1458      1457      1460      1461
      1458      1457      1460      1462      1458      1457      1460      1463
      1459      1457      1460      1461      1459      1457      1460      1462
      1459      1457      1460      1463      1461      1460      1463      1464
      1461      1460      1463      1465      1461      1460      1463      1466
      1462      1460      1463      1464      1462      1460      1463      1465
      1462      1460      1463      1466      1467      1468      1483      1484
      1467      1468      1483      1485      1467      1468      1483      1489
      1468      1467      1471      1472      1468      1467      1471      1473
      1468      1467      1471      1474      1468      1467      1475      1476
      1468      1467      1475      1477      1468      1467      1475      1478
      1468      1467      1479      1480      1468      1467      1479      1481
      1468      1467      1479      1482      1468      1483      1489      1486
      1469      1468      1467      1471      1469      1468      1467      1475
      1469      1468      1467      1479      1469      1468      1483      1484
      1469      1468      1483      1485      1469      1468      1483      1489
      1470      1468      1467      1471      1470      1468      1467      1475
      1470      1468      1467      1479      1470      1468      1483      1484
      1470      1468      1483      1485      1470      1468      1483      1489
      1471      1467      1468      1483      1471      1467      1475      1476
      1471      1467      1475      1477      1471      1467      1475      1478
      1471      1467      1479      1480      1471      1467      1479      1481
      1471      1467      1479      1482      1472      1471      1467      1475
      1472      1471      1467      1479      1473      1471      1467      1475
      1473      1471      1467      1479      1474      1471      1467      1475
      1474      1471      1467      1479      1475      1467      1468      1483
      1475      1467      1479      1480      1475      1467      1479      1481
      1475      1467      1479      1482      1476      1475      1467      1479
      1477      1475      1467      1479      1478      1475      1467      1479
      1479      1467      1468      1483      1483      1489      1486      1487
      1483      1489      1486      1488      1483      1489      1486      1490
      1484      1483      1489      1486      1485      1483      1489      1486
      1486      1490      1491      1492      1486      1490      1491      1493
      1486      1490      1491      1494      1487      1486      1490      1491
      1488      1486      1490      1491      1489      1486      1490      1491
      1490      1491      1494      1495      1490      1491      1494      1496
      1490      1491      1494      1502      1491      1494      1496      1497
      1491      1494      1502      1503      1491      1494      1502      1504
      1491      1494      1502      1505      1492      1491      1494      1495
      1492      1491      1494      1496      1492      1491      1494      1502
      1493      1491      1494      1495      1493      1491      1494      1496
      1493      1491      1494      1502      1494      1496      1497      1498
      1494      1496      1497      1499      1494      1502      1505      1506
      1495      1494      1496      1497      1495      1494      1502      1503
      1495      1494      1502      1504      1495      1494      1502      1505
      1496      1494      1502      1503      1496      1494      1502      1504
      1496      1494      1502      1505      1496      1497      1499      1500
      1496      1497      1499      1501      1496      1497      1499      1511
      1497      1496      1494      1502      1497      1499      1511      1512
      1497      1499      1511      1513      1497      1499      1511      1514
      1498      1497      1499      1500      1498      1497      1499      1501
      1498      1497      1499      1511      1499      1511      1514      1515
      1499      1511      1514      1516      1499      1511      1514      1517
      1500      1499      1511      1512      1500      1499      1511      1513
      1500      1499      1511      1514      1501      1499      1511      1512
      1501      1499      1511      1513      1501      1499      1511      1514
      1502      1505      1506      1507      1502      1505      1506      1508
      1503      1502      1505      1506      1504      1502      1505      1506
      1505      1506      1508      1509      1505      1506      1508      1510
      1505      1506      1508      1558      1506      1508      1558      1559
      1506      1508      1558      1560      1506      1508      1558      1561
      1507      1506      1508      1509      1507      1506      1508      1510
      1507      1506      1508      1558      1508      1558      1561      1562
      1508      1558      1561      1563      1508      1558      1561      1564
      1509      1508      1558      1559      1509      1508      1558      1560
      1509      1508      1558      1561      1510      1508      1558      1559
      1510      1508      1558      1560      1510      1508      1558      1561
      1511      1514      1517      1518      1511      1514      1517      1519
      1511      1514      1517      1520      1512      1511      1514      1515
      1512      1511      1514      1516      1512      1511      1514      1517
      1513      1511      1514      1515      1513      1511      1514      1516
      1513      1511      1514      1517      1514      1517      1520      1521
      1514      1517      1520      1522      1514      1517      1520      1523
      1515      1514      1517      1518      1515      1514      1517      1519
      1515      1514      1517      1520      1516      1514      1517      1518
      1516      1514      1517      1519      1516      1514      1517      1520
      1517      1520      1523      1524      1517      1520      1523      1525
      1517      1520      1523      1526      1518      1517      1520      1521
      1518      1517      1520      1522      1518      1517      1520      1523
      1519      1517      1520      1521      1519      1517      1520      1522
      1519      1517      1520      1523      1520      1523      1526      1527
      1520      1523      1526      1528      1520      1523      1526      1529
      1521      1520      1523      1524      1521      1520      1523      1525
      1521      1520      1523      1526      1522      1520      1523      1524
      1522      1520      1523      1525      1522      1520      1523      1526
      1523      1526      1529      1530      1523      1526      1529      1531
      1524      1523      1526      1527      1524      1523      1526      1528
      1524      1523      1526      1529      1525      1523      1526      1527
      1525      1523      1526      1528      1525      1523      1526      1529
      1526      1529      1531      1532      1526      1529      1531      1533
      1527      1526      1529      1530      1527      1526      1529      1531
      1528      1526      1529      1530      1528      1526      1529      1531
      1529      1531      1533      1534      1529      1531      1533      1535
      1529      1531      1533      1536      1530      1529      1531      1532
      1530      1529      1531      1533      1531      1533      1536      1537
      1531      1533      1536      1538      1531      1533      1536      1539
      1532      1531      1533      1534      1532      1531      1533      1535
      1532      1531      1533      1536      1533      1536      1539      1540
      1533      1536      1539      1541      1533      1536      1539      1542
      1534      1533      1536      1537      1534      1533      1536      1538
      1534      1533      1536      1539      1535      1533      1536      1537
      1535      1533      1536      1538      1535      1533      1536      1539
      1536      1539      1542      1543      1536      1539      1542      1544
      1536      1539      1542      1545      1537      1536      1539      1540
      1537      1536      1539      1541      1537      1536      1539      1542
      1538      1536      1539      1540      1538      1536      1539      1541
      1538      1536      1539      1542      1539      1542      1545      1546
      1539      1542      1545      1547      1539      1542      1545      1548
      1540      1539      1542      1543      1540      1539      1542      1544
      1540      1539      1542      1545      1541      1539      1542      1543
      1541      1539      1542      1544      1541      1539      1542      1545
      1542      1545      1548      1549      1542      1545      1548      1550
      1542      1545      1548      1551      1543      1542      1545      1546
      1543      1542      1545      1547      1543      1542      1545      1548
      1544      1542      1545      1546      1544      1542      1545      1547
      1544      1542      1545      1548      1545      1548      1551      1552
      1545      1548      1551      1553      1545      1548      1551      1554
      1546      1545      1548      1549      1546      1545      1548      1550
      1546      1545      1548      1551      1547      1545      1548      1549
      1547      1545      1548      1550      1547      1545      1548      1551
      1548      1551      1554      1555      1548      1551      1554      1556
      1548      1551      1554      1557      1549      1548      1551      1552
      1549      1548      1551      1553      1549      1548      1551      1554
      1550      1548      1551      1552      1550      1548      1551      1553
      1550      1548      1551      1554      1552      1551      1554      1555
      1552      1551      1554      1556      1552      1551      1554      1557
      1553      1551      1554      1555      1553      1551      1554      1556
      1553      1551      1554      1557      1558      1561      1564      1565
      1558      1561      1564      1566      1558      1561      1564      1567
      1559      1558      1561      1562      1559      1558      1561      1563
      1559      1558      1561      1564      1560      1558      1561      1562
      1560      1558      1561      1563      1560      1558      1561      1564
      1561      1564      1567      1568      1561      1564      1567      1569
      1561      1564      1567      1570      1562      1561      1564      1565
      1562      1561      1564      1566      1562      1561      1564      1567
      1563      1561      1564      1565      1563      1561      1564      1566
      1563      1561      1564      1567      1564      1567      1570      1571
      1564      1567      1570      1572      1564      1567      1570      1573
      1565      1564      1567      1568      1565      1564      1567      1569
      1565      1564      1567      1570      1566      1564      1567      1568
      1566      1564      1567      1569      1566      1564      1567      1570
      1567      1570      1573      1574      1567      1570      1573      1575
      1567      1570      1573      1576      1568      1567      1570      1571
      1568      1567      1570      1572      1568      1567      1570      1573
      1569      1567      1570      1571      1569      1567      1570      1572
      1569      1567      1570      1573      1570      1573      1576      1577
      1570      1573      1576      1578      1571      1570      1573      1574
      1571      1570      1573      1575      1571      1570      1573      1576
      1572      1570      1573      1574      1572      1570      1573      1575
      1572      1570      1573      1576      1573      1576      1578      1579
      1573      1576      1578      1580      1574      1573      1576      1577
      1574      1573      1576      1578      1575      1573      1576      1577
      1575      1573      1576      1578      1576      1578      1580      1581
      1576      1578      1580      1582      1576      1578      1580      1583
      1577      1576      1578      1579      1577      1576      1578      1580
      1578      1580      1583      1584      1578      1580      1583      1585
      1578      1580      1583      1586      1579      1578      1580      1581
      1579      1578      1580      1582      1579      1578      1580      1583
      1580      1583      1586      1587      1580      1583      1586      1588
      1580      1583      1586      1589      1581      1580      1583      1584
      1581      1580      1583      1585      1581      1580      1583      1586
      1582      1580      1583      1584      1582      1580      1583      1585
      1582      1580      1583      1586      1583      1586      1589      1590
      1583      1586      1589      1591      1583      1586      1589      1592
      1584      1583      1586      1587      1584      1583      1586      1588
      1584      1583      1586      1589      1585      1583      1586      1587
      1585      1583      1586      1588      1585      1583      1586      1589
      1586      1589      1592      1593      1586      1589      1592      1594
      1586      1589      1592      1595      1587      1586      1589      1590
      1587      1586      1589      1591      1587      1586      1589      1592
      1588      1586      1589      1590      1588      1586      1589      1591
      1588      1586      1589      1592      1589      1592      1595      1596
      1589      1592      1595      1597      1589      1592      1595      1598
      1590      1589      1592      1593      1590      1589      1592      1594
      1590      1589      1592      1595      1591      1589      1592      1593
      1591      1589      1592      1594      1591      1589      1592      1595
      1592      1595      1598      1599      1592      1595      1598      1600
      1592      1595      1598      1601      1593      1592      1595      1596
      1593      1592      1595      1597      1593      1592      1595      1598
      1594      1592      1595      1596      1594      1592      1595      1597
      1594      1592      1595      1598      1595      1598      1601      1602
      1595      1598      1601      1603      1595      1598      1601      1604
      1596      1595      1598      1599      1596      1595      1598      1600
      1596      1595      1598      1601      1597      1595      1598      1599
      1597      1595      1598      1600      1597      1595      1598      1601
      1599      1598      1601      1602      1599      1598      1601      1603
      1599      1598      1601      1604      1600      1598      1601      1602
      1600      1598      1601      1603      1600      1598      1601      1604
      1605      1606      1621      1622      1605      1606      1621      1623
      1605      1606      1621      1627      1606      1605      1609      1610
      1606      1605      1609      1611      1606      1605      1609      1612
      1606      1605      1613      1614      1606      1605      1613      1615
      1606      1605      1613      1616      1606      1605      1617      1618
      1606      1605      1617      1619      1606      1605      1617      1620
      1606      1621      1627      1624      1607      1606      1605      1609
      1607      1606      1605      1613      1607      1606      1605      1617
      1607      1606      1621      1622      1607      1606      1621      1623
      1607      1606      1621      1627      1608      1606      1605      1609
      1608      1606      1605      1613      1608      1606      1605      1617
      1608      1606      1621      1622      1608      1606      1621      1623
      1608      1606      1621      1627      1609      1605      1606      1621
      1609      1605      1613      1614      1609      1605      1613      1615
      1609      1605      1613      1616      1609      1605      1617      1618
      1609      1605      1617      1619      1609      1605      1617      1620
      1610      1609      1605      1613      1610      1609      1605      1617
      1611      1609      1605      1613      1611      1609      1605      1617
      1612      1609      1605      1613      1612      1609      1605      1617
      1613      1605      1606      1621      1613      1605      1617      1618
      1613      1605      1617      1619      1613      1605      1617      1620
      1614      1613      1605      1617      1615      1613      1605      1617
      1616      1613      1605      1617      1617      1605      1606      1621
      1621      1627      1624      1625      1621      1627      1624      1626
      1621      1627      1624      1628      1622      1621      1627      1624
      1623      1621      1627      1624      1624      1628      1629      1630
      1624      1628      1629      1631      1624      1628      1629      1632
      1625      1624      1628      1629      1626      1624      1628      1629
      1627      1624      1628      1629      1628      1629      1632      1633
      1628      1629      1632      1634      1628      1629      1632      1640
      1629      1632      1634      1635      1629      1632      1640      1641
      1629      1632      1640      1642      1629      1632      1640      1643
      1630      1629      1632      1633      1630      1629      1632      1634
      1630      1629      1632      1640      1631      1629      1632      1633
      1631      1629      1632      1634      1631      1629      1632      1640
      1632      1634      1635      1636      1632      1634      1635      1637
      1632      1640      1643      1644      1633      1632      1634      1635
      1633      1632      1640      1641      1633      1632      1640      1642
      1633      1632      1640      1643      1634      1632      1640      1641
      1634      1632      1640      1642      1634      1632      1640      1643
      1634      1635      1637      1638      1634      1635      1637      1639
      1634      1635      1637      1649      1635      1634      1632      1640
      1635      1637      1649      1650      1635      1637      1649      1651
      1635      1637      1649      1652      1636      1635      1637      1638
      1636      1635      1637      1639      1636      1635      1637      1649
      1637      1649      1652      1653      1637      1649      1652      1654
      1637      1649      1652      1655      1638      1637      1649      1650
      1638      1637      1649      1651      1638      1637      1649      1652
      1639      1637      1649      1650      1639      1637      1649      1651
      1639      1637      1649      1652      1640      1643      1644      1645
      1640      1643      1644      1646      1641      1640      1643      1644
      1642      1640      1643      1644      1643      1644      1646      1647
      1643      1644      1646      1648      1643      1644      1646      1696
      1644      1646      1696      1697      1644      1646      1696      1698
      1644      1646      1696      1699      1645      1644      1646      1647
      1645      1644      1646      1648      1645      1644      1646      1696
      1646      1696      1699      1700      1646      1696      1699      1701
      1646      1696      1699      1702      1647      1646      1696      1697
      1647      1646      1696      1698      1647      1646      1696      1699
      1648      1646      1696      1697      1648      1646      1696      1698
      1648      1646      1696      1699      1649      1652      1655      1656
      1649      1652      1655      1657      1649      1652      1655      1658
      1650      1649      1652      1653      1650      1649      1652      1654
      1650      1649      1652      1655      1651      1649      1652      1653
      1651      1649      1652      1654      1651      1649      1652      1655
      1652      1655      1658      1659      1652      1655      1658      1660
      1652      1655      1658      1661      1653      1652      1655      1656
      1653      1652      1655      1657      1653      1652      1655      1658
      1654      1652      1655      1656      1654      1652      1655      1657
      1654      1652      1655      1658      1655      1658      1661      1662
      1655      1658      1661      1663      1655      1658      1661      1664
      1656      1655      1658      1659      1656      1655      1658      1660
      1656      1655      1658      1661      1657      1655      1658      1659
      1657      1655      1658      1660      1657      1655      1658      1661
      1658      1661      1664      1665      1658      1661      1664      1666
      1658      1661      1664      1667      1659      1658      1661      1662
      1659      1658      1661      1663      1659      1658      1661      1664
      1660      1658      1661      1662      1660      1658      1661      1663
      1660      1658      1661      1664      1661      1664      1667      1668
      1661      1664      1667      1669      1662      1661      1664      1665
      1662      1661      1664      1666      1662      1661      1664      1667
      1663      1661      1664      1665      1663      1661      1664      1666
      1663      1661      1664      1667      1664      1667      1669      1670
      1664      1667      1669      1671      1665      1664      1667      1668
      1665      1664      1667      1669      1666      1664      1667      1668
      1666      1664      1667      1669      1667      1669      1671      1672
      1667      1669      1671      1673      1667      1669      1671      1674
      1668      1667      1669      1670      1668      1667      1669      1671
      1669      1671      1674      1675      1669      1671      1674      1676
      1669      1671      1674      1677      1670      1669      1671      1672
      1670      1669      1671      1673      1670      1669      1671      1674
      1671      1674      1677      1678      1671      1674      1677      1679
      1671      1674      1677      1680      1672      1671      1674      1675
      1672      1671      1674      1676      1672      1671      1674      1677
      1673      1671      1674      1675      1673      1671      1674      1676
      1673      1671      1674      1677      1674      1677      1680      1681
      1674      1677      1680      1682      1674      1677      1680      1683
      1675      1674      1677      1678      1675      1674      1677      1679
      1675      1674      1677      1680      1676      1674      1677      1678
      1676      1674      1677      1679      1676      1674      1677      1680
      1677      1680      1683      1684      1677      1680      1683      1685
      1677      1680      1683      1686      1678      1677      1680      1681
      1678      1677      1680      1682      1678      1677      1680      1683
      1679      1677      1680      1681      1679      1677      1680      1682
      1679      1677      1680      1683      1680      1683      1686      1687
      1680      1683      1686      1688      1680      1683      1686      1689
      1681      1680      1683      1684      1681      1680      1683      1685
      1681      1680      1683      1686      1682      1680      1683      1684
      1682      1680      1683      1685      1682      1680      1683      1686
      1683      1686      1689      1690      1683      1686      1689      1691
      1683      1686      1689      1692      1684      1683      1686      1687
      1684      1683      1686      1688      1684      1683      1686      1689
      1685      1683      1686      1687      1685      1683      1686      1688
      1685      1683      1686      1689      1686      1689      1692      1693
      1686      1689      1692      1694      1686      1689      1692      1695
      1687      1686      1689      1690      1687      1686      1689      1691
      1687      1686      1689      1692      1688      1686      1689      1690
      1688      1686      1689      1691      1688      1686      1689      1692
      1690      1689      1692      1693      1690      1689      1692      1694
      1690      1689      1692      1695      1691      1689      1692      1693
      1691      1689      1692      1694      1691      1689      1692      1695
      1696      1699      1702      1703      1696      1699      1702      1704
      1696      1699      1702      1705      1697      1696      1699      1700
      1697      1696      1699      1701      1697      1696      1699      1702
      1698      1696      1699      1700      1698      1696      1699      1701
      1698      1696      1699      1702      1699      1702      1705      1706
      1699      1702      1705      1707      1699      1702      1705      1708
      1700      1699      1702      1703      1700      1699      1702      1704
      1700      1699      1702      1705      1701      1699      1702      1703
      1701      1699      1702      1704      1701      1699      1702      1705
      1702      1705      1708      1709      1702      1705      1708      1710
      1702      1705      1708      1711      1703      1702      1705      1706
      1703      1702      1705      1707      1703      1702      1705      1708
      1704      1702      1705      1706      1704      1702      1705      1707
      1704      1702      1705      1708      1705      1708      1711      1712
      1705      1708      1711      1713      1705      1708      1711      1714
      1706      1705      1708      1709      1706      1705      1708      1710
      1706      1705      1708      1711      1707      1705      1708      1709
      1707      1705      1708      1710      1707      1705      1708      1711
      1708      1711      1714      1715      1708      1711      1714      1716
      1709      1708      1711      1712      1709      1708      1711      1713
      1709      1708      1711      1714      1710      1708      1711      1712
      1710      1708      1711      1713      1710      1708      1711      1714
      1711      1714      1716      1717      1711      1714      1716      1718
      1712      1711      1714      1715      1712      1711      1714      1716
      1713      1711      1714      1715      1713      1711      1714      1716
      1714      1716      1718      1719      1714      1716      1718      1720
      1714      1716      1718      1721      1715      1714      1716      1717
      1715      1714      1716      1718      1716      1718      1721      1722
      1716      1718      1721      1723      1716      1718      1721      1724
      1717      1716      1718      1719      1717      1716      1718      1720
      1717      1716      1718      1721      1718      1721      1724      1725
      1718      1721      1724      1726      1718      1721      1724      1727
      1719      1718      1721      1722      1719      1718      1721      1723
      1719      1718      1721      1724      1720      1718      1721      1722
      1720      1718      1721      1723      1720      1718      1721      1724
      1721      1724      1727      1728      1721      1724      1727      1729
      1721      1724      1727      1730      1722      1721      1724      1725
      1722      1721      1724      1726      1722      1721      1724      1727
      1723      1721      1724      1725      1723      1721      1724      1726
      1723      1721      1724      1727      1724      1727      1730      1731
      1724      1727      1730      1732      1724      1727      1730      1733
      1725      1724      1727      1728      1725      1724      1727      1729
      1725      1724      1727      1730      1726      1724      1727      1728
      1726      1724      1727      1729      1726      1724      1727      1730
      1727      1730      1733      1734      1727      1730      1733      1735
      1727      1730      1733      1736      1728      1727      1730      1731
      1728      1727      1730      1732      1728      1727      1730      1733
      1729      1727      1730      1731      1729      1727      1730      1732
      1729      1727      1730      1733      1730      1733      1736      1737
      1730      1733      1736      1738      1730      1733      1736      1739
      1731      1730      1733      1734      1731      1730      1733      1735
      1731      1730      1733      1736      1732      1730      1733      1734
      1732      1730      1733      1735      1732      1730      1733      1736
      1733      1736      1739      1740      1733      1736      1739      1741
      1733      1736      1739      1742      1734      1733      1736      1737
      1734      1733      1736      1738      1734      1733      1736      1739
      1735      1733      1736      1737      1735      1733      1736      1738
      1735      1733      1736      1739      1737      1736      1739      1740
      1737      1736      1739      1741      1737      1736      1739      1742
      1738      1736      1739      1740      1738      1736      1739      1741
      1738      1736      1739      1742      1743      1744      1759      1760
      1743      1744      1759      1761      1743      1744      1759      1765
      1744      1743      1747      1748      1744      1743      1747      1749
      1744      1743      1747      1750      1744      1743      1751      1752
      1744      1743      1751      1753      1744      1743      1751      1754
      1744      1743      1755      1756      1744      1743      1755      1757
      1744      1743      1755      1758      1744      1759      1765      1762
      1745      1744      1743      1747      1745      1744      1743      1751
      1745      1744      1743      1755      1745      1744      1759      1760
      1745      1744      1759      1761      1745      1744      1759      1765
      1746      1744      1743      1747      1746      1744      1743      1751
      1746      1744      1743      1755      1746      1744      1759      1760
      1746      1744      1759      1761      1746      1744      1759      1765
      1747      1743      1744      1759      1747      1743      1751      1752
      1747      1743      1751      1753      1747      1743      1751      1754
      1747      1743      1755      1756      1747      1743      1755      1757
      1747      1743      1755      1758      1748      1747      1743      1751
      1748      1747      1743      1755      1749      1747      1743      1751
      1749      1747      1743      1755      1750      1747      1743      1751
      1750      1747      1743      1755      1751      1743      1744      1759
      1751      1743      1755      1756      1751      1743      1755      1757
      1751      1743      1755      1758      1752      1751      1743      1755
      1753      1751      1743      1755      1754      1751      1743      1755
      1755      1743      1744      1759      1759      1765      1762      1763
      1759      1765      1762      1764      1759      1765      1762      1766
      1760      1759      1765      1762      1761      1759      1765      1762
      1762      1766      1767      1768      1762      1766      1767      1769
      1762      1766      1767      1770      1763      1762      1766      1767
      1764      1762      1766      1767      1765      1762      1766      1767
      1766      1767      1770      1771      1766      1767      1770      1772
      1766      1767      1770      1778      1767      1770      1772      1773
      1767      1770      1778      1779      1767      1770      1778      1780
      1767      1770      1778      1781      1768      1767      1770      1771
      1768      1767      1770      1772      1768      1767      1770      1778
      1769      1767      1770      1771      1769      1767      1770      1772
      1769      1767      1770      1778      1770      1772      1773      1774
      1770      1772      1773      1775      1770      1778      1781      1782
      1771      1770      1772      1773      1771      1770      1778      1779
      1771      1770      1778      1780      1771      1770      1778      1781
      1772      1770      1778      1779      1772      1770      1778      1780
      1772      1770      1778      1781      1772      1773      1775      1776
      1772      1773      1775      1777      1772      1773      1775      1787
      1773      1772      1770      1778      1773      1775      1787      1788
      1773      1775      1787      1789      1773      1775      1787      1790
      1774      1773      1775      1776      1774      1773      1775      1777
      1774      1773      1775      1787      1775      1787      1790      1791
      1775      1787      1790      1792      1775      1787      1790      1793
      1776      1775      1787      1788      1776      1775      1787      1789
      1776      1775      1787      1790      1777      1775      1787      1788
      1777      1775      1787      1789      1777      1775      1787      1790
      1778      1781      1782      1783      1778      1781      1782      1784
      1779      1778      1781      1782      1780      1778      1781      1782
      1781      1782      1784      1785      1781      1782      1784      1786
      1781      1782      1784      1834      1782      1784      1834      1835
      1782      1784      1834      1836      1782      1784      1834      1837
      1783      1782      1784      1785      1783      1782      1784      1786
      1783      1782      1784      1834      1784      1834      1837      1838
      1784      1834      1837      1839      1784      1834      1837      1840
      1785      1784      1834      1835      1785      1784      1834      1836
      1785      1784      1834      1837      1786      1784      1834      1835
      1786      1784      1834      1836      1786      1784      1834      1837
      1787      1790      1793      1794      1787      1790      1793      1795
      1787      1790      1793      1796      1788      1787      1790      1791
      1788      1787      1790      1792      1788      1787      1790      1793
      1789      1787      1790      1791      1789      1787      1790      1792
      1789      1787      1790      1793      1790      1793      1796      1797
      1790      1793      1796      1798      1790      1793      1796      1799
      1791      1790      1793      1794      1791      1790      1793      1795
      1791      1790      1793      1796      1792      1790      1793      1794
      1792      1790      1793      1795      1792      1790      1793      1796
      1793      1796      1799      1800      1793      1796      1799      1801
      1793      1796      1799      1802      1794      1793      1796      1797
      1794      1793      1796      1798      1794      1793      1796      1799
      1795      1793      1796      1797      1795      1793      1796      1798
      1795      1793      1796      1799      1796      1799      1802      1803
      1796      1799      1802      1804      1796      1799      1802      1805
      1797      1796      1799      1800      1797      1796      1799      1801
      1797      1796      1799      1802      1798      1796      1799      1800
      1798      1796      1799      1801      1798      1796      1799      1802
      1799      1802      1805      1806      1799      1802      1805      1807
      1800      1799      1802      1803      1800      1799      1802      1804
      1800      1799      1802      1805      1801      1799      1802      1803
      1801      1799      1802      1804      1801      1799      1802      1805
      1802      1805      1807      1808      1802      1805      1807      1809
      1803      1802      1805      1806      1803      1802      1805      1807
      1804      1802      1805      1806      1804      1802      1805      1807
      1805      1807      1809      1810      1805      1807      1809      1811
      1805      1807      1809      1812      1806      1805      1807      1808
      1806      1805      1807      1809      1807      1809      1812      1813
      1807      1809      1812      1814      1807      1809      1812      1815
      1808      1807      1809      1810      1808      1807      1809      1811
      1808      1807      1809      1812      1809      1812      1815      1816
      1809      1812      1815      1817      1809      1812      1815      1818
      1810      1809      1812      1813      1810      1809      1812      1814
      1810      1809      1812      1815      1811      1809      1812      1813
      1811      1809      1812      1814      1811      1809      1812      1815
      1812      1815      1818      1819      1812      1815      1818      1820
      1812      1815      1818      1821      1813      1812      1815      1816
      1813      1812      1815      1817      1813      1812      1815      1818
      1814      1812      1815      1816      1814      1812      1815      1817
      1814      1812      1815      1818      1815      1818      1821      1822
      1815      1818      1821      1823      1815      1818      1821      1824
      1816      1815      1818      1819      1816      1815      1818      1820
      1816      1815      1818      1821      1817      1815      1818      1819
      1817      1815      1818      1820      1817      1815      1818      1821
      1818      1821      1824      1825      1818      1821      1824      1826
      1818      1821      1824      1827      1819      1818      1821      1822
      1819      1818      1821      1823      1819      1818      1821      1824
      1820      1818      1821      1822      1820      1818      1821      1823
      1820      1818      1821      1824      1821      1824      1827      1828
      1821      1824      1827      1829      1821      1824      1827      1830
      1822      1821      1824      1825      1822      1821      1824      1826
      1822      1821      1824      1827      1823      1821      1824      1825
      1823      1821      1824      1826      1823      1821      1824      1827
      1824      1827      1830      1831      1824      1827      1830      1832
      1824      1827      1830      1833      1825      1824      1827      1828
      1825      1824      1827      1829      1825      1824      1827      1830
      1826      1824      1827      1828      1826      1824      1827      1829
      1826      1824      1827      1830      1828      1827      1830      1831
      1828      1827      1830      1832      1828      1827      1830      1833
      1829      1827      1830      1831      1829      1827      1830      1832
      1829      1827      1830      1833      1834      1837      1840      1841
      1834      1837      1840      1842      1834      1837      1840      1843
      1835      1834      1837      1838      1835      1834      1837      1839
      1835      1834      1837      1840      1836      1834      1837      1838
      1836      1834      1837      1839      1836      1834      1837      1840
      1837      1840      1843      1844      1837      1840      1843      1845
      1837      1840      1843      1846      1838      1837      1840      1841
      1838      1837      1840      1842      1838      1837      1840      1843
      1839      1837      1840      1841      1839      1837      1840      1842
      1839      1837      1840      1843      1840      1843      1846      1847
      1840      1843      1846      1848      1840      1843      1846      1849
      1841      1840      1843      1844      1841      1840      1843      1845
      1841      1840      1843      1846      1842      1840      1843      1844
      1842      1840      1843      1845      1842      1840      1843      1846
      1843      1846      1849      1850      1843      1846      1849      1851
      1843      1846      1849      1852      1844      1843      1846      1847
      1844      1843      1846      1848      1844      1843      1846      1849
      1845      1843      1846      1847      1845      1843      1846      1848
      1845      1843      1846      1849      1846      1849      1852      1853
      1846      1849      1852      1854      1847      1846      1849      1850
      1847      1846      1849      1851      1847      1846      1849      1852
      1848      1846      1849      1850      1848      1846      1849      1851
      1848      1846      1849      1852      1849      1852      1854      1855
      1849      1852      1854      1856      1850      1849      1852      1853
      1850      1849      1852      1854      1851      1849      1852      1853
      1851      1849      1852      1854      1852      1854      1856      1857
      1852      1854      1856      1858      1852      1854      1856      1859
      1853      1852      1854      1855      1853      1852      1854      1856
      1854      1856      1859      1860      1854      1856      1859      1861
      1854      1856      1859      1862      1855      1854      1856      1857
      1855      1854      1856      1858      1855      1854      1856      1859
      1856      1859      1862      1863      1856      1859      1862      1864
      1856      1859      1862      1865      1857      1856      1859      1860
      1857      1856      1859      1861      1857      1856      1859      1862
      1858      1856      1859      1860      1858      1856      1859      1861
      1858      1856      1859      1862      1859      1862      1865      1866
      1859      1862      1865      1867      1859      1862      1865      1868
      1860      1859      1862      1863      1860      1859      1862      1864
      1860      1859      1862      1865      1861      1859      1862      1863
      1861      1859      1862      1864      1861      1859      1862      1865
      1862      1865      1868      1869      1862      1865      1868      1870
      1862      1865      1868      1871      1863      1862      1865      1866
      1863      1862      1865      1867      1863      1862      1865      1868
      1864      1862      1865      1866      1864      1862      1865      1867
      1864      1862      1865      1868      1865      1868      1871      1872
      1865      1868      1871      1873      1865      1868      1871      1874
      1866      1865      1868      1869      1866      1865      1868      1870
      1866      1865      1868      1871      1867      1865      1868      1869
      1867      1865      1868      1870      1867      1865      1868      1871
      1868      1871      1874      1875      1868      1871      1874      1876
      1868      1871      1874      1877      1869      1868      1871      1872
      1869      1868      1871      1873      1869      1868      1871      1874
      1870      1868      1871      1872      1870      1868      1871      1873
      1870      1868      1871      1874      1871      1874      1877      1878
      1871      1874      1877      1879      1871      1874      1877      1880
      1872      1871      1874      1875      1872      1871      1874      1876
      1872      1871      1874      1877      1873      1871      1874      1875
      1873      1871      1874      1876      1873      1871      1874      1877
      1875      1874      1877      1878      1875      1874      1877      1879
      1875      1874      1877      1880      1876      1874      1877      1878
      1876      1874      1877      1879      1876      1874      1877      1880
      1881      1882      1897      1898      1881      1882      1897      1899
      1881      1882      1897      1903      1882      1881      1885      1886
      1882      1881      1885      1887      1882      1881      1885      1888
      1882      1881      1889      1890      1882      1881      1889      1891
      1882      1881      1889      1892      1882      1881      1893      1894
      1882      1881      1893      1895      1882      1881      1893      1896
      1882      1897      1903      1900      1883      1882      1881      1885
      1883      1882      1881      1889      1883      1882      1881      1893
      1883      1882      1897      1898      1883      1882      1897      1899
      1883      1882      1897      1903      1884      1882      1881      1885
      1884      1882      1881      1889      1884      1882      1881      1893
      1884      1882      1897      1898      1884      1882      1897      1899
      1884      1882      1897      1903      1885      1881      1882      1897
      1885      1881      1889      1890      1885      1881      1889      1891
      1885      1881      1889      1892      1885      1881      1893      1894
      1885      1881      1893      1895      1885      1881      1893      1896
      1886      1885      1881      1889      1886      1885      1881      1893
      1887      1885      1881      1889      1887      1885      1881      1893
      1888      1885      1881      1889      1888      1885      1881      1893
      1889      1881      1882      1897      1889      1881      1893      1894
      1889      1881      1893      1895      1889      1881      1893      1896
      1890      1889      1881      1893      1891      1889      1881      1893
      1892      1889      1881      1893      1893      1881      1882      1897
      1897      1903      1900      1901      1897      1903      1900      1902
      1897      1903      1900      1904      1898      1897      1903      1900
      1899      1897      1903      1900      1900      1904      1905      1906
      1900      1904      1905      1907      1900      1904      1905      1908
      1901      1900      1904      1905      1902      1900      1904      1905
      1903      1900      1904      1905      1904      1905      1908      1909
      1904      1905      1908      1910      1904      1905      1908      1916
      1905      1908      1910      1911      1905      1908      1916      1917
      1905      1908      1916      1918      1905      1908      1916      1919
      1906      1905      1908      1909      1906      1905      1908      1910
      1906      1905      1908      1916      1907      1905      1908      1909
      1907      1905      1908      1910      1907      1905      1908      1916
      1908      1910      1911      1912      1908      1910      1911      1913
      1908      1916      1919      1920      1909      1908      1910      1911
      1909      1908      1916      1917      1909      1908      1916      1918
      1909      1908      1916      1919      1910      1908      1916      1917
      1910      1908      1916      1918      1910      1908      1916      1919
      1910      1911      1913      1914      1910      1911      1913      1915
      1910      1911      1913      1925      1911      1910      1908      1916
      1911      1913      1925      1926      1911      1913      1925      1927
      1911      1913      1925      1928      1912      1911      1913      1914
      1912      1911      1913      1915      1912      1911      1913      1925
      1913      1925      1928      1929      1913      1925      1928      1930
      1913      1925      1928      1931      1914      1913      1925      1926
      1914      1913      1925      1927      1914      1913      1925      1928
      1915      1913      1925      1926      1915      1913      1925      1927
      1915      1913      1925      1928      1916      1919      1920      1921
      1916      1919      1920      1922      1917      1916      1919      1920
      1918      1916      1919      1920      1919      1920      1922      1923
      1919      1920      1922      1924      1919      1920      1922      1972
      1920      1922      1972      1973      1920      1922      1972      1974
      1920      1922      1972      1975      1921      1920      1922      1923
      1921      1920      1922      1924      1921      1920      1922      1972
      1922      1972      1975      1976      1922      1972      1975      1977
      1922      1972      1975      1978      1923      1922      1972      1973
      1923      1922      1972      1974      1923      1922      1972      1975
      1924      1922      1972      1973      1924      1922      1972      1974
      1924      1922      1972      1975      1925      1928      1931      1932
      1925      1928      1931      1933      1925      1928      1931      1934
      1926      1925      1928      1929      1926      1925      1928      1930
      1926      1925      1928      1931      1927      1925      1928      1929
      1927      1925      1928      1930      1927      1925      1928      1931
      1928      1931      1934      1935      1928      1931      1934      1936
      1928      1931      1934      1937      1929      1928      1931      1932
      1929      1928      1931      1933      1929      1928      1931      1934
      1930      1928      1931      1932      1930      1928      1931      1933
      1930      1928      1931      1934      1931      1934      1937      1938
      1931      1934      1937      1939      1931      1934      1937      1940
      1932      1931      1934      1935      1932      1931      1934      1936
      1932      1931      1934      1937      1933      1931      1934      1935
      1933      1931      1934      1936      1933      1931      1934      1937
      1934      1937      1940      1941      1934      1937      1940      1942
      1934      1937      1940      1943      1935      1934      1937      1938
      1935      1934      1937      1939      1935      1934      1937      1940
      1936      1934      1937      1938      1936      1934      1937      1939
      1936      1934      1937      1940      1937      1940      1943      1944
      1937      1940      1943      1945      1938      1937      1940      1941
      1938      1937      1940      1942      1938      1937      1940      1943
      1939      1937      1940      1941      1939      1937      1940      1942
      1939      1937      1940      1943      1940      1943      1945      1946
      1940      1943      1945      1947      1941      1940      1943      1944
      1941      1940      1943      1945      1942      1940      1943      1944
      1942      1940      1943      1945      1943      1945      1947      1948
      1943      1945      1947      1949      1943      1945      1947      1950
      1944      1943      1945      1946      1944      1943      1945      1947
      1945      1947      1950      1951      1945      1947      1950      1952
      1945      1947      1950      1953      1946      1945      1947      1948
      1946      1945      1947      1949      1946      1945      1947      1950
      1947      1950      1953      1954      1947      1950      1953      1955
      1947      1950      1953      1956      1948      1947      1950      1951
      1948      1947      1950      1952      1948      1947      1950      1953
      1949      1947      1950      1951      1949      1947      1950      1952
      1949      1947      1950      1953      1950      1953      1956      1957
      1950      1953      1956      1958      1950      1953      1956      1959
      1951      1950      1953      1954      1951      1950      1953      1955
      1951      1950      1953      1956      1952      1950      1953      1954
      1952      1950      1953      1955      1952      1950      1953      1956
      1953      1956      1959      1960      1953      1956      1959      1961
      1953      1956      1959      1962      1954      1953      1956      1957
      1954      1953      1956      1958      1954      1953      1956      1959
      1955      1953      1956      1957      1955      1953      1956      1958
      1955      1953      1956      1959      1956      1959      1962      1963
      1956      1959      1962      1964      1956      1959      1962      1965
      1957      1956      1959      1960      1957      1956      1959      1961
      1957      1956      1959      1962      1958      1956      1959      1960
      1958      1956      1959      1961      1958      1956      1959      1962
      1959      1962      1965      1966      1959      1962      1965      1967
      1959      1962      1965      1968      1960      1959      1962      1963
      1960      1959      1962      1964      1960      1959      1962      1965
      1961      1959      1962      1963      1961      1959      1962      1964
      1961      1959      1962      1965      1962      1965      1968      1969
      1962      1965      1968      1970      1962      1965      1968      1971
      1963      1962      1965      1966      1963      1962      1965      1967
      1963      1962      1965      1968      1964      1962      1965      1966
      1964      1962      1965      1967      1964      1962      1965      1968
      1966      1965      1968      1969      1966      1965      1968      1970
      1966      1965      1968      1971      1967      1965      1968      1969
      1967      1965      1968      1970      1967      1965      1968      1971
      1972      1975      1978      1979      1972      1975      1978      1980
      1972      1975      1978      1981      1973      1972      1975      1976
      1973      1972      1975      1977      1973      1972      1975      1978
      1974      1972      1975      1976      1974      1972      1975      1977
      1974      1972      1975      1978      1975      1978      1981      1982
      1975      1978      1981      1983      1975      1978      1981      1984
      1976      1975      1978      1979      1976      1975      1978      1980
      1976      1975      1978      1981      1977      1975      1978      1979
      1977      1975      1978      1980      1977      1975      1978      1981
      1978      1981      1984      1985      1978      1981      1984      1986
      1978      1981      1984      1987      1979      1978      1981      1982
      1979      1978      1981      1983      1979      1978      1981      1984
      1980      1978      1981      1982      1980      1978      1981      1983
      1980      1978      1981      1984      1981      1984      1987      1988
      1981      1984      1987      1989      1981      1984      1987      1990
      1982      1981      1984      1985      1982      1981      1984      1986
      1982      1981      1984      1987      1983      1981      1984      1985
      1983      1981      1984      1986      1983      1981      1984      1987
      1984      1987      1990      1991      1984      1987      1990      1992
      1985      1984      1987      1988      1985      1984      1987      1989
      1985      1984      1987      1990      1986      1984      1987      1988
      1986      1984      1987      1989      1986      1984      1987      1990
      1987      1990      1992      1993      1987      1990      1992      1994
      1988      1987      1990      1991      1988      1987      1990      1992
      1989      1987      1990      1991      1989      1987      1990      1992
      1990      1992      1994      1995      1990      1992      1994      1996
      1990      1992      1994      1997      1991      1990      1992      1993
      1991      1990      1992      1994      1992      1994      1997      1998
      1992      1994      1997      1999      1992      1994      1997      2000
      1993      1992      1994      1995      1993      1992      1994      1996
      1993      1992      1994      1997      1994      1997      2000      2001
      1994      1997      2000      2002      1994      1997      2000      2003
      1995      1994      1997      1998      1995      1994      1997      1999
      1995      1994      1997      2000      1996      1994      1997      1998
      1996      1994      1997      1999      1996      1994      1997      2000
      1997      2000      2003      2004      1997      2000      2003      2005
      1997      2000      2003      2006      1998      1997      2000      2001
      1998      1997      2000      2002      1998      1997      2000      2003
      1999      1997      2000      2001      1999      1997      2000      2002
      1999      1997      2000      2003      2000      2003      2006      2007
      2000      2003      2006      2008      2000      2003      2006      2009
      2001      2000      2003      2004      2001      2000      2003      2005
      2001      2000      2003      2006      2002      2000      2003      2004
      2002      2000      2003      2005      2002      2000      2003      2006
      2003      2006      2009      2010      2003      2006      2009      2011
      2003      2006      2009      2012      2004      2003      2006      2007
      2004      2003      2006      2008      2004      2003      2006      2009
      2005      2003      2006      2007      2005      2003      2006      2008
      2005      2003      2006      2009      2006      2009      2012      2013
      2006      2009      2012      2014      2006      2009      2012      2015
      2007      2006      2009      2010      2007      2006      2009      2011
      2007      2006      2009      2012      2008      2006      2009      2010
      2008      2006      2009      2011      2008      2006      2009      2012
      2009      2012      2015      2016      2009      2012      2015      2017
      2009      2012      2015      2018      2010      2009      2012      2013
      2010      2009      2012      2014      2010      2009      2012      2015
      2011      2009      2012      2013      2011      2009      2012      2014
      2011      2009      2012      2015      2013      2012      2015      2016
      2013      2012      2015      2017      2013      2012      2015      2018
      2014      2012      2015      2016      2014      2012      2015      2017
      2014      2012      2015      2018      2019      2020      2035      2036
      2019      2020      2035      2037      2019      2020      2035      2041
      2020      2019      2023      2024      2020      2019      2023      2025
      2020      2019      2023      2026      2020      2019      2027      2028
      2020      2019      2027      2029      2020      2019      2027      2030
      2020      2019      2031      2032      2020      2019      2031      2033
      2020      2019      2031      2034      2020      2035      2041      2038
      2021      2020      2019      2023      2021      2020      2019      2027
      2021      2020      2019      2031      2021      2020      2035      2036
      2021      2020      2035      2037      2021      2020      2035      2041
      2022      2020      2019      2023      2022      2020      2019      2027
      2022      2020      2019      2031      2022      2020      2035      2036
      2022      2020      2035      2037      2022      2020      2035      2041
      2023      2019      2020      2035      2023      2019      2027      2028
      2023      2019      2027      2029      2023      2019      2027      2030
      2023      2019      2031      2032      2023      2019      2031      2033
      2023      2019      2031      2034      2024      2023      2019      2027
      2024      2023      2019      2031      2025      2023      2019      2027
      2025      2023      2019      2031      2026      2023      2019      2027
      2026      2023      2019      2031      2027      2019      2020      2035
      2027      2019      2031      2032      2027      2019      2031      2033
      2027      2019      2031      2034      2028      2027      2019      2031
      2029      2027      2019      2031      2030      2027      2019      2031
      2031      2019      2020      2035      2035      2041      2038      2039
      2035      2041      2038      2040      2035      2041      2038      2042
      2036      2035      2041      2038      2037      2035      2041      2038
      2038      2042      2043      2044      2038      2042      2043      2045
      2038      2042      2043      2046      2039      2038      2042      2043
      2040      2038      2042      2043      2041      2038      2042      2043
      2042      2043      2046      2047      2042      2043      2046      2048
      2042      2043      2046      2054      2043      2046      2048      2049
      2043      2046      2054      2055      2043      2046      2054      2056
      2043      2046      2054      2057      2044      2043      2046      2047
      2044      2043      2046      2048      2044      2043      2046      2054
      2045      2043      2046      2047      2045      2043      2046      2048
      2045      2043      2046      2054      2046      2048      2049      2050
      2046      2048      2049      2051      2046      2054      2057      2058
      2047      2046      2048      2049      2047      2046      2054      2055
      2047      2046      2054      2056      2047      2046      2054      2057
      2048      2046      2054      2055      2048      2046      2054      2056
      2048      2046      2054      2057      2048      2049      2051      2052
      2048      2049      2051      2053      2048      2049      2051      2063
      2049      2048      2046      2054      2049      2051      2063      2064
      2049      2051      2063      2065      2049      2051      2063      2066
      2050      2049      2051      2052      2050      2049      2051      2053
      2050      2049      2051      2063      2051      2063      2066      2067
      2051      2063      2066      2068      2051      2063      2066      2069
      2052      2051      2063      2064      2052      2051      2063      2065
      2052      2051      2063      2066      2053      2051      2063      2064
      2053      2051      2063      2065      2053      2051      2063      2066
      2054      2057      2058      2059      2054      2057      2058      2060
      2055      2054      2057      2058      2056      2054      2057      2058
      2057      2058      2060      2061      2057      2058      2060      2062
      2057      2058      2060      2110      2058      2060      2110      2111
      2058      2060      2110      2112      2058      2060      2110      2113
      2059      2058      2060      2061      2059      2058      2060      2062
      2059      2058      2060      2110      2060      2110      2113      2114
      2060      2110      2113      2115      2060      2110      2113      2116
      2061      2060      2110      2111      2061      2060      2110      2112
      2061      2060      2110      2113      2062      2060      2110      2111
      2062      2060      2110      2112      2062      2060      2110      2113
      2063      2066      2069      2070      2063      2066      2069      2071
      2063      2066      2069      2072      2064      2063      2066      2067
      2064      2063      2066      2068      2064      2063      2066      2069
      2065      2063      2066      2067      2065      2063      2066      2068
      2065      2063      2066      2069      2066      2069      2072      2073
      2066      2069      2072      2074      2066      2069      2072      2075
      2067      2066      2069      2070      2067      2066      2069      2071
      2067      2066      2069      2072      2068      2066      2069      2070
      2068      2066      2069      2071      2068      2066      2069      2072
      2069      2072      2075      2076      2069      2072      2075      2077
      2069      2072      2075      2078      2070      2069      2072      2073
      2070      2069      2072      2074      2070      2069      2072      2075
      2071      2069      2072      2073      2071      2069      2072      2074
      2071      2069      2072      2075      2072      2075      2078      2079
      2072      2075      2078      2080      2072      2075      2078      2081
      2073      2072      2075      2076      2073      2072      2075      2077
      2073      2072      2075      2078      2074      2072      2075      2076
      2074      2072      2075      2077      2074      2072      2075      2078
      2075      2078      2081      2082      2075      2078      2081      2083
      2076      2075      2078      2079      2076      2075      2078      2080
      2076      2075      2078      2081      2077      2075      2078      2079
      2077      2075      2078      2080      2077      2075      2078      2081
      2078      2081      2083      2084      2078      2081      2083      2085
      2079      2078      2081      2082      2079      2078      2081      2083
      2080      2078      2081      2082      2080      2078      2081      2083
      2081      2083      2085      2086      2081      2083      2085      2087
      2081      2083      2085      2088      2082      2081      2083      2084
      2082      2081      2083      2085      2083      2085      2088      2089
      2083      2085      2088      2090      2083      2085      2088      2091
      2084      2083      2085      2086      2084      2083      2085      2087
      2084      2083      2085      2088      2085      2088      2091      2092
      2085      2088      2091      2093      2085      2088      2091      2094
      2086      2085      2088      2089      2086      2085      2088      2090
      2086      2085      2088      2091      2087      2085      2088      2089
      2087      2085      2088      2090      2087      2085      2088      2091
      2088      2091      2094      2095      2088      2091      2094      2096
      2088      2091      2094      2097      2089      2088      2091      2092
      2089      2088      2091      2093      2089      2088      2091      2094
      2090      2088      2091      2092      2090      2088      2091      2093
      2090      2088      2091      2094      2091      2094      2097      2098
      2091      2094      2097      2099      2091      2094      2097      2100
      2092      2091      2094      2095      2092      2091      2094      2096
      2092      2091      2094      2097      2093      2091      2094      2095
      2093      2091      2094      2096      2093      2091      2094      2097
      2094      2097      2100      2101      2094      2097      2100      2102
      2094      2097      2100      2103      2095      2094      2097      2098
      2095      2094      2097      2099      2095      2094      2097      2100
      2096      2094      2097      2098      2096      2094      2097      2099
      2096      2094      2097      2100      2097      2100      2103      2104
      2097      2100      2103      2105      2097      2100      2103      2106
      2098      2097      2100      2101      2098      2097      2100      2102
      2098      2097      2100      2103      2099      2097      2100      2101
      2099      2097      2100      2102      2099      2097      2100      2103
      2100      2103      2106      2107      2100      2103      2106      2108
      2100      2103      2106      2109      2101      2100      2103      2104
      2101      2100      2103      2105      2101      2100      2103      2106
      2102      2100      2103      2104      2102      2100      2103      2105
      2102      2100      2103      2106      2104      2103      2106      2107
      2104      2103      2106      2108      2104      2103      2106      2109
      2105      2103      2106      2107      2105      2103      2106      2108
      2105      2103      2106      2109      2110      2113      2116      2117
      2110      2113      2116      2118      2110      2113      2116      2119
      2111      2110      2113      2114      2111      2110      2113      2115
      2111      2110      2113      2116      2112      2110      2113      2114
      2112      2110      2113      2115      2112      2110      2113      2116
      2113      2116      2119      2120      2113      2116      2119      2121
      2113      2116      2119      2122      2114      2113      2116      2117
      2114      2113      2116      2118      2114      2113      2116      2119
      2115      2113      2116      2117      2115      2113      2116      2118
      2115      2113      2116      2119      2116      2119      2122      2123
      2116      2119      2122      2124      2116      2119      2122      2125
      2117      2116      2119      2120      2117      2116      2119      2121
      2117      2116      2119      2122      2118      2116      2119      2120
      2118      2116      2119      2121      2118      2116      2119      2122
      2119      2122      2125      2126      2119      2122      2125      2127
      2119      2122      2125      2128      2120      2119      2122      2123
      2120      2119      2122      2124      2120      2119      2122      2125
      2121      2119      2122      2123      2121      2119      2122      2124
      2121      2119      2122      2125      2122      2125      2128      2129
      2122      2125      2128      2130      2123      2122      2125      2126
      2123      2122      2125      2127      2123      2122      2125      2128
      2124      2122      2125      2126      2124      2122      2125      2127
      2124      2122      2125      2128      2125      2128      2130      2131
      2125      2128      2130      2132      2126      2125      2128      2129
      2126      2125      2128      2130      2127      2125      2128      2129
      2127      2125      2128      2130      2128      2130      2132      2133
      2128      2130      2132      2134      2128      2130      2132      2135
      2129      2128      2130      2131      2129      2128      2130      2132
      2130      2132      2135      2136      2130      2132      2135      2137
      2130      2132      2135      2138      2131      2130      2132      2133
      2131      2130      2132      2134      2131      2130      2132      2135
      2132      2135      2138      2139      2132      2135      2138      2140
      2132      2135      2138      2141      2133      2132      2135      2136
      2133      2132      2135      2137      2133      2132      2135      2138
      2134      2132      2135      2136      2134      2132      2135      2137
      2134      2132      2135      2138      2135      2138      2141      2142
      2135      2138      2141      2143      2135      2138      2141      2144
      2136      2135      2138      2139      2136      2135      2138      2140
      2136      2135      2138      2141      2137      2135      2138      2139
      2137      2135      2138      2140      2137      2135      2138      2141
      2138      2141      2144      2145      2138      2141      2144      2146
      2138      2141      2144      2147      2139      2138      2141      2142
      2139      2138      2141      2143      2139      2138      2141      2144
      2140      2138      2141      2142      2140      2138      2141      2143
      2140      2138      2141      2144      2141      2144      2147      2148
      2141      2144      2147      2149      2141      2144      2147      2150
      2142      2141      2144      2145      2142      2141      2144      2146
      2142      2141      2144      2147      2143      2141      2144      2145
      2143      2141      2144      2146      2143      2141      2144      2147
      2144      2147      2150      2151      2144      2147      2150      2152
      2144      2147      2150      2153      2145      2144      2147      2148
      2145      2144      2147      2149      2145      2144      2147      2150
      2146      2144      2147      2148      2146      2144      2147      2149
      2146      2144      2147      2150      2147      2150      2153      2154
      2147      2150      2153      2155      2147      2150      2153      2156
      2148      2147      2150      2151      2148      2147      2150      2152
      2148      2147      2150      2153      2149      2147      2150      2151
      2149      2147      2150      2152      2149      2147      2150      2153
      2151      2150      2153      2154      2151      2150      2153      2155
      2151      2150      2153      2156      2152      2150      2153      2154
      2152      2150      2153      2155      2152      2150      2153      2156
      2157      2158      2173      2174      2157      2158      2173      2175
      2157      2158      2173      2179      2158      2157      2161      2162
      2158      2157      2161      2163      2158      2157      2161      2164
      2158      2157      2165      2166      2158      2157      2165      2167
      2158      2157      2165      2168      2158      2157      2169      2170
      2158      2157      2169      2171      2158      2157      2169      2172
      2158      2173      2179      2176      2159      2158      2157      2161
      2159      2158      2157      2165      2159      2158      2157      2169
      2159      2158      2173      2174      2159      2158      2173      2175
      2159      2158      2173      2179      2160      2158      2157      2161
      2160      2158      2157      2165      2160      2158      2157      2169
      2160      2158      2173      2174      2160      2158      2173      2175
      2160      2158      2173      2179      2161      2157      2158      2173
      2161      2157      2165      2166      2161      2157      2165      2167
      2161      2157      2165      2168      2161      2157      2169      2170
      2161      2157      2169      2171      2161      2157      2169      2172
      2162      2161      2157      2165      2162      2161      2157      2169
      2163      2161      2157      2165      2163      2161      2157      2169
      2164      2161      2157      2165      2164      2161      2157      2169
      2165      2157      2158      2173      2165      2157      2169      2170
      2165      2157      2169      2171      2165      2157      2169      2172
      2166      2165      2157      2169      2167      2165      2157      2169
      2168      2165      2157      2169      2169      2157      2158      2173
      2173      2179      2176      2177      2173      2179      2176      2178
      2173      2179      2176      2180      2174      2173      2179      2176
      2175      2173      2179      2176      2176      2180      2181      2182
      2176      2180      2181      2183      2176      2180      2181      2184
      2177      2176      2180      2181      2178      2176      2180      2181
      2179      2176      2180      2181      2180      2181      2184      2185
      2180      2181      2184      2186      2180      2181      2184      2192
      2181      2184      2186      2187      2181      2184      2192      2193
      2181      2184      2192      2194      2181      2184      2192      2195
      2182      2181      2184      2185      2182      2181      2184      2186
      2182      2181      2184      2192      2183      2181      2184      2185
      2183      2181      2184      2186      2183      2181      2184      2192
      2184      2186      2187      2188      2184      2186      2187      2189
      2184      2192      2195      2196      2185      2184      2186      2187
      2185      2184      2192      2193      2185      2184      2192      2194
      2185      2184      2192      2195      2186      2184      2192      2193
      2186      2184      2192      2194      2186      2184      2192      2195
      2186      2187      2189      2190      2186      2187      2189      2191
      2186      2187      2189      2201      2187      2186      2184      2192
      2187      2189      2201      2202      2187      2189      2201      2203
      2187      2189      2201      2204      2188      2187      2189      2190
      2188      2187      2189      2191      2188      2187      2189      2201
      2189      2201      2204      2205      2189      2201      2204      2206
      2189      2201      2204      2207      2190      2189      2201      2202
      2190      2189      2201      2203      2190      2189      2201      2204
      2191      2189      2201      2202      2191      2189      2201      2203
      2191      2189      2201      2204      2192      2195      2196      2197
      2192      2195      2196      2198      2193      2192      2195      2196
      2194      2192      2195      2196      2195      2196      2198      2199
      2195      2196      2198      2200      2195      2196      2198      2248
      2196      2198      2248      2249      2196      2198      2248      2250
      2196      2198      2248      2251      2197      2196      2198      2199
      2197      2196      2198      2200      2197      2196      2198      2248
      2198      2248      2251      2252      2198      2248      2251      2253
      2198      2248      2251      2254      2199      2198      2248      2249
      2199      2198      2248      2250      2199      2198      2248      2251
      2200      2198      2248      2249      2200      2198      2248      2250
      2200      2198      2248      2251      2201      2204      2207      2208
      2201      2204      2207      2209      2201      2204      2207      2210
      2202      2201      2204      2205      2202      2201      2204      2206
      2202      2201      2204      2207      2203      2201      2204      2205
      2203      2201      2204      2206      2203      2201      2204      2207
      2204      2207      2210      2211      2204      2207      2210      2212
      2204      2207      2210      2213      2205      2204      2207      2208
      2205      2204      2207      2209      2205      2204      2207      2210
      2206      2204      2207      2208      2206      2204      2207      2209
      2206      2204      2207      2210      2207      2210      2213      2214
      2207      2210      2213      2215      2207      2210      2213      2216
      2208      2207      2210      2211      2208      2207      2210      2212
      2208      2207      2210      2213      2209      2207      2210      2211
      2209      2207      2210      2212      2209      2207      2210      2213
      2210      2213      2216      2217      2210      2213      2216      2218
      2210      2213      2216      2219      2211      2210      2213      2214
      2211      2210      2213      2215      2211      2210      2213      2216
      2212      2210      2213      2214      2212      2210      2213      2215
      2212      2210      2213      2216      2213      2216      2219      2220
      2213      2216      2219      2221      2214      2213      2216      2217
      2214      2213      2216      2218      2214      2213      2216      2219
      2215      2213      2216      2217      2215      2213      2216      2218
      2215      2213      2216      2219      2216      2219      2221      2222
      2216      2219      2221      2223      2217      2216      2219      2220
      2217      2216      2219      2221      2218      2216      2219      2220
      2218      2216      2219      2221      2219      2221      2223      2224
      2219      2221      2223      2225      2219      2221      2223      2226
      2220      2219      2221      2222      2220      2219      2221      2223
      2221      2223      2226      2227      2221      2223      2226      2228
      2221      2223      2226      2229      2222      2221      2223      2224
      2222      2221      2223      2225      2222      2221      2223      2226
      2223      2226      2229      2230      2223      2226      2229      2231
      2223      2226      2229      2232      2224      2223      2226      2227
      2224      2223      2226      2228      2224      2223      2226      2229
      2225      2223      2226      2227      2225      2223      2226      2228
      2225      2223      2226      2229      2226      2229      2232      2233
      2226      2229      2232      2234      2226      2229      2232      2235
      2227      2226      2229      2230      2227      2226      2229      2231
      2227      2226      2229      2232      2228      2226      2229      2230
      2228      2226      2229      2231      2228      2226      2229      2232
      2229      2232      2235      2236      2229      2232      2235      2237
      2229      2232      2235      2238      2230      2229      2232      2233
      2230      2229      2232      2234      2230      2229      2232      2235
      2231      2229      2232      2233      2231      2229      2232      2234
      2231      2229      2232      2235      2232      2235      2238      2239
      2232      2235      2238      2240      2232      2235      2238      2241
      2233      2232      2235      2236      2233      2232      2235      2237
      2233      2232      2235      2238      2234      2232      2235      2236
      2234      2232      2235      2237      2234      2232      2235      2238
      2235      2238      2241      2242      2235      2238      2241      2243
      2235      2238      2241      2244      2236      2235      2238      2239
      2236      2235      2238      2240      2236      2235      2238      2241
      2237      2235      2238      2239      2237      2235      2238      2240
      2237      2235      2238      2241      2238      2241      2244      2245
      2238      2241      2244      2246      2238      2241      2244      2247
      2239      2238      2241      2242      2239      2238      2241      2243
      2239      2238      2241      2244      2240      2238      2241      2242
      2240      2238      2241      2243      2240      2238      2241      2244
      2242      2241      2244      2245      2242      2241      2244      2246
      2242      2241      2244      2247      2243      2241      2244      2245
      2243      2241      2244      2246      2243      2241      2244      2247
      2248      2251      2254      2255      2248      2251      2254      2256
      2248      2251      2254      2257      2249      2248      2251      2252
      2249      2248      2251      2253      2249      2248      2251      2254
      2250      2248      2251      2252      2250      2248      2251      2253
      2250      2248      2251      2254      2251      2254      2257      2258
      2251      2254      2257      2259      2251      2254      2257      2260
      2252      2251      2254      2255      2252      2251      2254      2256
      2252      2251      2254      2257      2253      2251      2254      2255
      2253      2251      2254      2256      2253      2251      2254      2257
      2254      2257      2260      2261      2254      2257      2260      2262
      2254      2257      2260      2263      2255      2254      2257      2258
      2255      2254      2257      2259      2255      2254      2257      2260
      2256      2254      2257      2258      2256      2254      2257      2259
      2256      2254      2257      2260      2257      2260      2263      2264
      2257      2260      2263      2265      2257      2260      2263      2266
      2258      2257      2260      2261      2258      2257      2260      2262
      2258      2257      2260      2263      2259      2257      2260      2261
      2259      2257      2260      2262      2259      2257      2260      2263
      2260      2263      2266      2267      2260      2263      2266      2268
      2261      2260      2263      2264      2261      2260      2263      2265
      2261      2260      2263      2266      2262      2260      2263      2264
      2262      2260      2263      2265      2262      2260      2263      2266
      2263      2266      2268      2269      2263      2266      2268      2270
      2264      2263      2266      2267      2264      2263      2266      2268
      2265      2263      2266      2267      2265      2263      2266      2268
      2266      2268      2270      2271      2266      2268      2270      2272
      2266      2268      2270      2273      2267      2266      2268      2269
      2267      2266      2268      2270      2268      2270      2273      2274
      2268      2270      2273      2275      2268      2270      2273      2276
      2269      2268      2270      2271      2269      2268      2270      2272
      2269      2268      2270      2273      2270      2273      2276      2277
      2270      2273      2276      2278      2270      2273      2276      2279
      2271      2270      2273      2274      2271      2270      2273      2275
      2271      2270      2273      2276      2272      2270      2273      2274
      2272      2270      2273      2275      2272      2270      2273      2276
      2273      2276      2279      2280      2273      2276      2279      2281
      2273      2276      2279      2282      2274      2273      2276      2277
      2274      2273      2276      2278      2274      2273      2276      2279
      2275      2273      2276      2277      2275      2273      2276      2278
      2275      2273      2276      2279      2276      2279      2282      2283
      2276      2279      2282      2284      2276      2279      2282      2285
      2277      2276      2279      2280      2277      2276      2279      2281
      2277      2276      2279      2282      2278      2276      2279      2280
      2278      2276      2279      2281      2278      2276      2279      2282
      2279      2282      2285      2286      2279      2282      2285      2287
      2279      2282      2285      2288      2280      2279      2282      2283
      2280      2279      2282      2284      2280      2279      2282      2285
      2281      2279      2282      2283      2281      2279      2282      2284
      2281      2279      2282      2285      2282      2285      2288      2289
      2282      2285      2288      2290      2282      2285      2288      2291
      2283      2282      2285      2286      2283      2282      2285      2287
      2283      2282      2285      2288      2284      2282      2285      2286
      2284      2282      2285      2287      2284      2282      2285      2288
      2285      2288      2291      2292      2285      2288      2291      2293
      2285      2288      2291      2294      2286      2285      2288      2289
      2286      2285      2288      2290      2286      2285      2288      2291
      2287      2285      2288      2289      2287      2285      2288      2290
      2287      2285      2288      2291      2289      2288      2291      2292
      2289      2288      2291      2293      2289      2288      2291      2294
      2290      2288      2291      2292      2290      2288      2291      2293
      2290      2288      2291      2294      2295      2296      2311      2312
      2295      2296      2311      2313      2295      2296      2311      2317
      2296      2295      2299      2300      2296      2295      2299      2301
      2296      2295      2299      2302      2296      2295      2303      2304
      2296      2295      2303      2305      2296      2295      2303      2306
      2296      2295      2307      2308      2296      2295      2307      2309
      2296      2295      2307      2310      2296      2311      2317      2314
      2297      2296      2295      2299      2297      2296      2295      2303
      2297      2296      2295      2307      2297      2296      2311      2312
      2297      2296      2311      2313      2297      2296      2311      2317
      2298      2296      2295      2299      2298      2296      2295      2303
      2298      2296      2295      2307      2298      2296      2311      2312
      2298      2296      2311      2313      2298      2296      2311      2317
      2299      2295      2296      2311      2299      2295      2303      2304
      2299      2295      2303      2305      2299      2295      2303      2306
      2299      2295      2307      2308      2299      2295      2307      2309
      2299      2295      2307      2310      2300      2299      2295      2303
      2300      2299      2295      2307      2301      2299      2295      2303
      2301      2299      2295      2307      2302      2299      2295      2303
      2302      2299      2295      2307      2303      2295      2296      2311
      2303      2295      2307      2308      2303      2295      2307      2309
      2303      2295      2307      2310      2304      2303      2295      2307
      2305      2303      2295      2307      2306      2303      2295      2307
      2307      2295      2296      2311      2311      2317      2314      2315
      2311      2317      2314      2316      2311      2317      2314      2318
      2312      2311      2317      2314      2313      2311      2317      2314
      2314      2318      2319      2320      2314      2318      2319      2321
      2314      2318      2319      2322      2315      2314      2318      2319
      2316      2314      2318      2319      2317      2314      2318      2319
      2318      2319      2322      2323      2318      2319      2322      2324
      2318      2319      2322      2330      2319      2322      2324      2325
      2319      2322      2330      2331      2319      2322      2330      2332
      2319      2322      2330      2333      2320      2319      2322      2323
      2320      2319      2322      2324      2320      2319      2322      2330
      2321      2319      2322      2323      2321      2319      2322      2324
      2321      2319      2322      2330      2322      2324      2325      2326
      2322      2324      2325      2327      2322      2330      2333      2334
      2323      2322      2324      2325      2323      2322      2330      2331
      2323      2322      2330      2332      2323      2322      2330      2333
      2324      2322      2330      2331      2324      2322      2330      2332
      2324      2322      2330      2333      2324      2325      2327      2328
      2324      2325      2327      2329      2324      2325      2327      2339
      2325      2324      2322      2330      2325      2327      2339      2340
      2325      2327      2339      2341      2325      2327      2339      2342
      2326      2325      2327      2328      2326      2325      2327      2329
      2326      2325      2327      2339      2327      2339      2342      2343
      2327      2339      2342      2344      2327      2339      2342      2345
      2328      2327      2339      2340      2328      2327      2339      2341
      2328      2327      2339      2342      2329      2327      2339      2340
      2329      2327      2339      2341      2329      2327      2339      2342
      2330      2333      2334      2335      2330      2333      2334      2336
      2331      2330      2333      2334      2332      2330      2333      2334
      2333      2334      2336      2337      2333      2334      2336      2338
      2333      2334      2336      2386      2334      2336      2386      2387
      2334      2336      2386      2388      2334      2336      2386      2389
      2335      2334      2336      2337      2335      2334      2336      2338
      2335      2334      2336      2386      2336      2386      2389      2390
      2336      2386      2389      2391      2336      2386      2389      2392
      2337      2336      2386      2387      2337      2336      2386      2388
      2337      2336      2386      2389      2338      2336      2386      2387
      2338      2336      2386      2388      2338      2336      2386      2389
      2339      2342      2345      2346      2339      2342      2345      2347
      2339      2342      2345      2348      2340      2339      2342      2343
      2340      2339      2342      2344      2340      2339      2342      2345
      2341      2339      2342      2343      2341      2339      2342      2344
      2341      2339      2342      2345      2342      2345      2348      2349
      2342      2345      2348      2350      2342      2345      2348      2351
      2343      2342      2345      2346      2343      2342      2345      2347
      2343      2342      2345      2348      2344      2342      2345      2346
      2344      2342      2345      2347      2344      2342      2345      2348
      2345      2348      2351      2352      2345      2348      2351      2353
      2345      2348      2351      2354      2346      2345      2348      2349
      2346      2345      2348      2350      2346      2345      2348      2351
      2347      2345      2348      2349      2347      2345      2348      2350
      2347      2345      2348      2351      2348      2351      2354      2355
      2348      2351      2354      2356      2348      2351      2354      2357
      2349      2348      2351      2352      2349      2348      2351      2353
      2349      2348      2351      2354      2350      2348      2351      2352
      2350      2348      2351      2353      2350      2348      2351      2354
      2351      2354      2357      2358      2351      2354      2357      2359
      2352      2351      2354      2355      2352      2351      2354      2356
      2352      2351      2354      2357      2353      2351      2354      2355
      2353      2351      2354      2356      2353      2351      2354      2357
      2354      2357      2359      2360      2354      2357      2359      2361
      2355      2354      2357      2358      2355      2354      2357      2359
      2356      2354      2357      2358      2356      2354      2357      2359
      2357      2359      2361      2362      2357      2359      2361      2363
      2357      2359      2361      2364      2358      2357      2359      2360
      2358      2357      2359      2361      2359      2361      2364      2365
      2359      2361      2364      2366      2359      2361      2364      2367
      2360      2359      2361      2362      2360      2359      2361      2363
      2360      2359      2361      2364      2361      2364      2367      2368
      2361      2364      2367      2369      2361      2364      2367      2370
      2362      2361      2364      2365      2362      2361      2364      2366
      2362      2361      2364      2367      2363      2361      2364      2365
      2363      2361      2364      2366      2363      2361      2364      2367
      2364      2367      2370      2371      2364      2367      2370      2372
      2364      2367      2370      2373      2365      2364      2367      2368
      2365      2364      2367      2369      2365      2364      2367      2370
      2366      2364      2367      2368      2366      2364      2367      2369
      2366      2364      2367      2370      2367      2370      2373      2374
      2367      2370      2373      2375      2367      2370      2373      2376
      2368      2367      2370      2371      2368      2367      2370      2372
      2368      2367      2370      2373      2369      2367      2370      2371
      2369      2367      2370      2372      2369      2367      2370      2373
      2370      2373      2376      2377      2370      2373      2376      2378
      2370      2373      2376      2379      2371      2370      2373      2374
      2371      2370      2373      2375      2371      2370      2373      2376
      2372      2370      2373      2374      2372      2370      2373      2375
      2372      2370      2373      2376      2373      2376      2379      2380
      2373      2376      2379      2381      2373      2376      2379      2382
      2374      2373      2376      2377      2374      2373      2376      2378
      2374      2373      2376      2379      2375      2373      2376      2377
      2375      2373      2376      2378      2375      2373      2376      2379
      2376      2379      2382      2383      2376      2379      2382      2384
      2376      2379      2382      2385      2377      2376      2379      2380
      2377      2376      2379      2381      2377      2376      2379      2382
      2378      2376      2379      2380      2378      2376      2379      2381
      2378      2376      2379      2382      2380      2379      2382      2383
      2380      2379      2382      2384      2380      2379      2382      2385
      2381      2379      2382      2383      2381      2379      2382      2384
      2381      2379      2382      2385      2386      2389      2392      2393
      2386      2389      2392      2394      2386      2389      2392      2395
      2387      2386      2389      2390      2387      2386      2389      2391
      2387      2386      2389      2392      2388      2386      2389      2390
      2388      2386      2389      2391      2388      2386      2389      2392
      2389      2392      2395      2396      2389      2392      2395      2397
      2389      2392      2395      2398      2390      2389      2392      2393
      2390      2389      2392      2394      2390      2389      2392      2395
      2391      2389      2392      2393      2391      2389      2392      2394
      2391      2389      2392      2395      2392      2395      2398      2399
      2392      2395      2398      2400      2392      2395      2398      2401
      2393      2392      2395      2396      2393      2392      2395      2397
      2393      2392      2395      2398      2394      2392      2395      2396
      2394      2392      2395      2397      2394      2392      2395      2398
      2395      2398      2401      2402      2395      2398      2401      2403
      2395      2398      2401      2404      2396      2395      2398      2399
      2396      2395      2398      2400      2396      2395      2398      2401
      2397      2395      2398      2399      2397      2395      2398      2400
      2397      2395      2398      2401      2398      2401      2404      2405
      2398      2401      2404      2406      2399      2398      2401      2402
      2399      2398      2401      2403      2399      2398      2401      2404
      2400      2398      2401      2402      2400      2398      2401      2403
      2400      2398      2401      2404      2401      2404      2406      2407
      2401      2404      2406      2408      2402      2401      2404      2405
      2402      2401      2404      2406      2403      2401      2404      2405
      2403      2401      2404      2406      2404      2406      2408      2409
      2404      2406      2408      2410      2404      2406      2408      2411
      2405      2404      2406      2407      2405      2404      2406      2408
      2406      2408      2411      2412      2406      2408      2411      2413
      2406      2408      2411      2414      2407      2406      2408      2409
      2407      2406      2408      2410      2407      2406      2408      2411
      2408      2411      2414      2415      2408      2411      2414      2416
      2408      2411      2414      2417      2409      2408      2411      2412
      2409      2408      2411      2413      2409      2408      2411      2414
      2410      2408      2411      2412      2410      2408      2411      2413
      2410      2408      2411      2414      2411      2414      2417      2418
      2411      2414      2417      2419      2411      2414      2417      2420
      2412      2411      2414      2415      2412      2411      2414      2416
      2412      2411      2414      2417      2413      2411      2414      2415
      2413      2411      2414      2416      2413      2411      2414      2417
      2414      2417      2420      2421      2414      2417      2420      2422
      2414      2417      2420      2423      2415      2414      2417      2418
      2415      2414      2417      2419      2415      2414      2417      2420
      2416      2414      2417      2418      2416      2414      2417      2419
      2416      2414      2417      2420      2417      2420      2423      2424
      2417      2420      2423      2425      2417      2420      2423      2426
      2418      2417      2420      2421      2418      2417      2420      2422
      2418      2417      2420      2423      2419      2417      2420      2421
      2419      2417      2420      2422      2419      2417      2420      2423
      2420      2423      2426      2427      2420      2423      2426      2428
      2420      2423      2426      2429      2421      2420      2423      2424
      2421      2420      2423      2425      2421      2420      2423      2426
      2422      2420      2423      2424      2422      2420      2423      2425
      2422      2420      2423      2426      2423      2426      2429      2430
      2423      2426      2429      2431      2423      2426      2429      2432
      2424      2423      2426      2427      2424      2423      2426      2428
      2424      2423      2426      2429      2425      2423      2426      2427
      2425      2423      2426      2428      2425      2423      2426      2429
      2427      2426      2429      2430      2427      2426      2429      2431
      2427      2426      2429      2432      2428      2426      2429      2430
      2428      2426      2429      2431      2428      2426      2429      2432
      2433      2434      2449      2450      2433      2434      2449      2451
      2433      2434      2449      2455      2434      2433      2437      2438
      2434      2433      2437      2439      2434      2433      2437      2440
      2434      2433      2441      2442      2434      2433      2441      2443
      2434      2433      2441      2444      2434      2433      2445      2446
      2434      2433      2445      2447      2434      2433      2445      2448
      2434      2449      2455      2452      2435      2434      2433      2437
      2435      2434      2433      2441      2435      2434      2433      2445
      2435      2434      2449      2450      2435      2434      2449      2451
      2435      2434      2449      2455      2436      2434      2433      2437
      2436      2434      2433      2441      2436      2434      2433      2445
      2436      2434      2449      2450      2436      2434      2449      2451
      2436      2434      2449      2455      2437      2433      2434      2449
      2437      2433      2441      2442      2437      2433      2441      2443
      2437      2433      2441      2444      2437      2433      2445      2446
      2437      2433      2445      2447      2437      2433      2445      2448
      2438      2437      2433      2441      2438      2437      2433      2445
      2439      2437      2433      2441      2439      2437      2433      2445
      2440      2437      2433      2441      2440      2437      2433      2445
      2441      2433      2434      2449      2441      2433      2445      2446
      2441      2433      2445      2447      2441      2433      2445      2448
      2442      2441      2433      2445      2443      2441      2433      2445
      2444      2441      2433      2445      2445      2433      2434      2449
      2449      2455      2452      2453      2449      2455      2452      2454
      2449      2455      2452      2456      2450      2449      2455      2452
      2451      2449      2455      2452      2452      2456      2457      2458
      2452      2456      2457      2459      2452      2456      2457      2460
      2453      2452      2456      2457      2454      2452      2456      2457
      2455      2452      2456      2457      2456      2457      2460      2461
      2456      2457      2460      2462      2456      2457      2460      2468
      2457      2460      2462      2463      2457      2460      2468      2469
      2457      2460      2468      2470      2457      2460      2468      2471
      2458      2457      2460      2461      2458      2457      2460      2462
      2458      2457      2460      2468      2459      2457      2460      2461
      2459      2457      2460      2462      2459      2457      2460      2468
      2460      2462      2463      2464      2460      2462      2463      2465
      2460      2468      2471      2472      2461      2460      2462      2463
      2461      2460      2468      2469      2461      2460      2468      2470
      2461      2460      2468      2471      2462      2460      2468      2469
      2462      2460      2468      2470      2462      2460      2468      2471
      2462      2463      2465      2466      2462      2463      2465      2467
      2462      2463      2465      2477      2463      2462      2460      2468
      2463      2465      2477      2478      2463      2465      2477      2479
      2463      2465      2477      2480      2464      2463      2465      2466
      2464      2463      2465      2467      2464      2463      2465      2477
      2465      2477      2480      2481      2465      2477      2480      2482
      2465      2477      2480      2483      2466      2465      2477      2478
      2466      2465      2477      2479      2466      2465      2477      2480
      2467      2465      2477      2478      2467      2465      2477      2479
      2467      2465      2477      2480      2468      2471      2472      2473
      2468      2471      2472      2474      2469      2468      2471      2472
      2470      2468      2471      2472      2471      2472      2474      2475
      2471      2472      2474      2476      2471      2472      2474      2524
      2472      2474      2524      2525      2472      2474      2524      2526
      2472      2474      2524      2527      2473      2472      2474      2475
      2473      2472      2474      2476      2473      2472      2474      2524
      2474      2524      2527      2528      2474      2524      2527      2529
      2474      2524      2527      2530      2475      2474      2524      2525
      2475      2474      2524      2526      2475      2474      2524      2527
      2476      2474      2524      2525      2476      2474      2524      2526
      2476      2474      2524      2527      2477      2480      2483      2484
      2477      2480      2483      2485      2477      2480      2483      2486
      2478      2477      2480      2481      2478      2477      2480      2482
      2478      2477      2480      2483      2479      2477      2480      2481
      2479      2477      2480      2482      2479      2477      2480      2483
      2480      2483      2486      2487      2480      2483      2486      2488
      2480      2483      2486      2489      2481      2480      2483      2484
      2481      2480      2483      2485      2481      2480      2483      2486
      2482      2480      2483      2484      2482      2480      2483      2485
      2482      2480      2483      2486      2483      2486      2489      2490
      2483      2486      2489      2491      2483      2486      2489      2492
      2484      2483      2486      2487      2484      2483      2486      2488
      2484      2483      2486      2489      2485      2483      2486      2487
      2485      2483      2486      2488      2485      2483      2486      2489
      2486      2489      2492      2493      2486      2489      2492      2494
      2486      2489      2492      2495      2487      2486      2489      2490
      2487      2486      2489      2491      2487      2486      2489      2492
      2488      2486      2489      2490      2488      2486      2489      2491
      2488      2486      2489      2492      2489      2492      2495      2496
      2489      2492      2495      2497      2490      2489      2492      2493
      2490      2489      2492      2494      2490      2489      2492      2495
      2491      2489      2492      2493      2491      2489      2492      2494
      2491      2489      2492      2495      2492      2495      2497      2498
      2492      2495      2497      2499      2493      2492      2495      2496
      2493      2492      2495      2497      2494      2492      2495      2496
      2494      2492      2495      2497      2495      2497      2499      2500
      2495      2497      2499      2501      2495      2497      2499      2502
      2496      2495      2497      2498      2496      2495      2497      2499
      2497      2499      2502      2503      2497      2499      2502      2504
      2497      2499      2502      2505      2498      2497      2499      2500
      2498      2497      2499      2501      2498      2497      2499      2502
      2499      2502      2505      2506      2499      2502      2505      2507
      2499      2502      2505      2508      2500      2499      2502      2503
      2500      2499      2502      2504      2500      2499      2502      2505
      2501      2499      2502      2503      2501      2499      2502      2504
      2501      2499      2502      2505      2502      2505      2508      2509
      2502      2505      2508      2510      2502      2505      2508      2511
      2503      2502      2505      2506      2503      2502      2505      2507
      2503      2502      2505      2508      2504      2502      2505      2506
      2504      2502      2505      2507      2504      2502      2505      2508
      2505      2508      2511      2512      2505      2508      2511      2513
      2505      2508      2511      2514      2506      2505      2508      2509
      2506      2505      2508      2510      2506      2505      2508      2511
      2507      2505      2508      2509      2507      2505      2508      2510
      2507      2505      2508      2511      2508      2511      2514      2515
      2508      2511      2514      2516      2508      2511      2514      2517
      2509      2508      2511      2512      2509      2508      2511      2513
      2509      2508      2511      2514      2510      2508      2511      2512
      2510      2508      2511      2513      2510      2508      2511      2514
      2511      2514      2517      2518      2511      2514      2517      2519
      2511      2514      2517      2520      2512      2511      2514      2515
      2512      2511      2514      2516      2512      2511      2514      2517
      2513      2511      2514      2515      2513      2511      2514      2516
      2513      2511      2514      2517      2514      2517      2520      2521
      2514      2517      2520      2522      2514      2517      2520      2523
      2515      2514      2517      2518      2515      2514      2517      2519
      2515      2514      2517      2520      2516      2514      2517      2518
      2516      2514      2517      2519      2516      2514      2517      2520
      2518      2517      2520      2521      2518      2517      2520      2522
      2518      2517      2520      2523      2519      2517      2520      2521
      2519      2517      2520      2522      2519      2517      2520      2523
      2524      2527      2530      2531      2524      2527      2530      2532
      2524      2527      2530      2533      2525      2524      2527      2528
      2525      2524      2527      2529      2525      2524      2527      2530
      2526      2524      2527      2528      2526      2524      2527      2529
      2526      2524      2527      2530      2527      2530      2533      2534
      2527      2530      2533      2535      2527      2530      2533      2536
      2528      2527      2530      2531      2528      2527      2530      2532
      2528      2527      2530      2533      2529      2527      2530      2531
      2529      2527      2530      2532      2529      2527      2530      2533
      2530      2533      2536      2537      2530      2533      2536      2538
      2530      2533      2536      2539      2531      2530      2533      2534
      2531      2530      2533      2535      2531      2530      2533      2536
      2532      2530      2533      2534      2532      2530      2533      2535
      2532      2530      2533      2536      2533      2536      2539      2540
      2533      2536      2539      2541      2533      2536      2539      2542
      2534      2533      2536      2537      2534      2533      2536      2538
      2534      2533      2536      2539      2535      2533      2536      2537
      2535      2533      2536      2538      2535      2533      2536      2539
      2536      2539      2542      2543      2536      2539      2542      2544
      2537      2536      2539      2540      2537      2536      2539      2541
      2537      2536      2539      2542      2538      2536      2539      2540
      2538      2536      2539      2541      2538      2536      2539      2542
      2539      2542      2544      2545      2539      2542      2544      2546
      2540      2539      2542      2543      2540      2539      2542      2544
      2541      2539      2542      2543      2541      2539      2542      2544
      2542      2544      2546      2547      2542      2544      2546      2548
      2542      2544      2546      2549      2543      2542      2544      2545
      2543      2542      2544      2546      2544      2546      2549      2550
      2544      2546      2549      2551      2544      2546      2549      2552
      2545      2544      2546      2547      2545      2544      2546      2548
      2545      2544      2546      2549      2546      2549      2552      2553
      2546      2549      2552      2554      2546      2549      2552      2555
      2547      2546      2549      2550      2547      2546      2549      2551
      2547      2546      2549      2552      2548      2546      2549      2550
      2548      2546      2549      2551      2548      2546      2549      2552
      2549      2552      2555      2556      2549      2552      2555      2557
      2549      2552      2555      2558      2550      2549      2552      2553
      2550      2549      2552      2554      2550      2549      2552      2555
      2551      2549      2552      2553      2551      2549      2552      2554
      2551      2549      2552      2555      2552      2555      2558      2559
      2552      2555      2558      2560      2552      2555      2558      2561
      2553      2552      2555      2556      2553      2552      2555      2557
      2553      2552      2555      2558      2554      2552      2555      2556
      2554      2552      2555      2557      2554      2552      2555      2558
      2555      2558      2561      2562      2555      2558      2561      2563
      2555      2558      2561      2564      2556      2555      2558      2559
      2556      2555      2558      2560      2556      2555      2558      2561
      2557      2555      2558      2559      2557      2555      2558      2560
      2557      2555      2558      2561      2558      2561      2564      2565
      2558      2561      2564      2566      2558      2561      2564      2567
      2559      2558      2561      2562      2559      2558      2561      2563
      2559      2558      2561      2564      2560      2558      2561      2562
      2560      2558      2561      2563      2560      2558      2561      2564
      2561      2564      2567      2568      2561      2564      2567      2569
      2561      2564      2567      2570      2562      2561      2564      2565
      2562      2561      2564      2566      2562      2561      2564      2567
      2563      2561      2564      2565      2563      2561      2564      2566
      2563      2561      2564      2567      2565      2564      2567      2568
      2565      2564      2567      2569      2565      2564      2567      2570
      2566      2564      2567      2568      2566      2564      2567      2569
      2566      2564      2567      2570      2571      2572      2587      2588
      2571      2572      2587      2589      2571      2572      2587      2593
      2572      2571      2575      2576      2572      2571      2575      2577
      2572      2571      2575      2578      2572      2571      2579      2580
      2572      2571      2579      2581      2572      2571      2579      2582
      2572      2571      2583      2584      2572      2571      2583      2585
      2572      2571      2583      2586      2572      2587      2593      2590
      2573      2572      2571      2575      2573      2572      2571      2579
      2573      2572      2571      2583      2573      2572      2587      2588
      2573      2572      2587      2589      2573      2572      2587      2593
      2574      2572      2571      2575      2574      2572      2571      2579
      2574      2572      2571      2583      2574      2572      2587      2588
      2574      2572      2587      2589      2574      2572      2587      2593
      2575      2571      2572      2587      2575      2571      2579      2580
      2575      2571      2579      2581      2575      2571      2579      2582
      2575      2571      2583      2584      2575      2571      2583      2585
      2575      2571      2583      2586      2576      2575      2571      2579
      2576      2575      2571      2583      2577      2575      2571      2579
      2577      2575      2571      2583      2578      2575      2571      2579
      2578      2575      2571      2583      2579      2571      2572      2587
      2579      2571      2583      2584      2579      2571      2583      2585
      2579      2571      2583      2586      2580      2579      2571      2583
      2581      2579      2571      2583      2582      2579      2571      2583
      2583      2571      2572      2587      2587      2593      2590      2591
      2587      2593      2590      2592      2587      2593      2590      2594
      2588      2587      2593      2590      2589      2587      2593      2590
      2590      2594      2595      2596      2590      2594      2595      2597
      2590      2594      2595      2598      2591      2590      2594      2595
      2592      2590      2594      2595      2593      2590      2594      2595
      2594      2595      2598      2599      2594      2595      2598      2600
      2594      2595      2598      2606      2595      2598      2600      2601
      2595      2598      2606      2607      2595      2598      2606      2608
      2595      2598      2606      2609      2596      2595      2598      2599
      2596      2595      2598      2600      2596      2595      2598      2606
      2597      2595      2598      2599      2597      2595      2598      2600
      2597      2595      2598      2606      2598      2600      2601      2602
      2598      2600      2601      2603      2598      2606      2609      2610
      2599      2598      2600      2601      2599      2598      2606      2607
      2599      2598      2606      2608      2599      2598      2606      2609
      2600      2598      2606      2607      2600      2598      2606      2608
      2600      2598      2606      2609      2600      2601      2603      2604
      2600      2601      2603      2605      2600      2601      2603      2615
      2601      2600      2598      2606      2601      2603      2615      2616
      2601      2603      2615      2617      2601      2603      2615      2618
      2602      2601      2603      2604      2602      2601      2603      2605
      2602      2601      2603      2615      2603      2615      2618      2619
      2603      2615      2618      2620      2603      2615      2618      2621
      2604      2603      2615      2616      2604      2603      2615      2617
      2604      2603      2615      2618      2605      2603      2615      2616
      2605      2603      2615      2617      2605      2603      2615      2618
      2606      2609      2610      2611      2606      2609      2610      2612
      2607      2606      2609      2610      2608      2606      2609      2610
      2609      2610      2612      2613      2609      2610      2612      2614
      2609      2610      2612      2662      2610      2612      2662      2663
      2610      2612      2662      2664      2610      2612      2662      2665
      2611      2610      2612      2613      2611      2610      2612      2614
      2611      2610      2612      2662      2612      2662      2665      2666
      2612      2662      2665      2667      2612      2662      2665      2668
      2613      2612      2662      2663      2613      2612      2662      2664
      2613      2612      2662      2665      2614      2612      2662      2663
      2614      2612      2662      2664      2614      2612      2662      2665
      2615      2618      2621      2622      2615      2618      2621      2623
      2615      2618      2621      2624      2616      2615      2618      2619
      2616      2615      2618      2620      2616      2615      2618      2621
      2617      2615      2618      2619      2617      2615      2618      2620
      2617      2615      2618      2621      2618      2621      2624      2625
      2618      2621      2624      2626      2618      2621      2624      2627
      2619      2618      2621      2622      2619      2618      2621      2623
      2619      2618      2621      2624      2620      2618      2621      2622
      2620      2618      2621      2623      2620      2618      2621      2624
      2621      2624      2627      2628      2621      2624      2627      2629
      2621      2624      2627      2630      2622      2621      2624      2625
      2622      2621      2624      2626      2622      2621      2624      2627
      2623      2621      2624      2625      2623      2621      2624      2626
      2623      2621      2624      2627      2624      2627      2630      2631
      2624      2627      2630      2632      2624      2627      2630      2633
      2625      2624      2627      2628      2625      2624      2627      2629
      2625      2624      2627      2630      2626      2624      2627      2628
      2626      2624      2627      2629      2626      2624      2627      2630
      2627      2630      2633      2634      2627      2630      2633      2635
      2628      2627      2630      2631      2628      2627      2630      2632
      2628      2627      2630      2633      2629      2627      2630      2631
      2629      2627      2630      2632      2629      2627      2630      2633
      2630      2633      2635      2636      2630      2633      2635      2637
      2631      2630      2633      2634      2631      2630      2633      2635
      2632      2630      2633      2634      2632      2630      2633      2635
      2633      2635      2637      2638      2633      2635      2637      2639
      2633      2635      2637      2640      2634      2633      2635      2636
      2634      2633      2635      2637      2635      2637      2640      2641
      2635      2637      2640      2642      2635      2637      2640      2643
      2636      2635      2637      2638      2636      2635      2637      2639
      2636      2635      2637      2640      2637      2640      2643      2644
      2637      2640      2643      2645      2637      2640      2643      2646
      2638      2637      2640      2641      2638      2637      2640      2642
      2638      2637      2640      2643      2639      2637      2640      2641
      2639      2637      2640      2642      2639      2637      2640      2643
      2640      2643      2646      2647      2640      2643      2646      2648
      2640      2643      2646      2649      2641      2640      2643      2644
      2641      2640      2643      2645      2641      2640      2643      2646
      2642      2640      2643      2644      2642      2640      2643      2645
      2642      2640      2643      2646      2643      2646      2649      2650
      2643      2646      2649      2651      2643      2646      2649      2652
      2644      2643      2646      2647      2644      2643      2646      2648
      2644      2643      2646      2649      2645      2643      2646      2647
      2645      2643      2646      2648      2645      2643      2646      2649
      2646      2649      2652      2653      2646      2649      2652      2654
      2646      2649      2652      2655      2647      2646      2649      2650
      2647      2646      2649      2651      2647      2646      2649      2652
      2648      2646      2649      2650      2648      2646      2649      2651
      2648      2646      2649      2652      2649      2652      2655      2656
      2649      2652      2655      2657      2649      2652      2655      2658
      2650      2649      2652      2653      2650      2649      2652      2654
      2650      2649      2652      2655      2651      2649      2652      2653
      2651      2649      2652      2654      2651      2649      2652      2655
      2652      2655      2658      2659      2652      2655      2658      2660
      2652      2655      2658      2661      2653      2652      2655      2656
      2653      2652      2655      2657      2653      2652      2655      2658
      2654      2652      2655      2656      2654      2652      2655      2657
      2654      2652      2655      2658      2656      2655      2658      2659
      2656      2655      2658      2660      2656      2655      2658      2661
      2657      2655      2658      2659      2657      2655      2658      2660
      2657      2655      2658      2661      2662      2665      2668      2669
      2662      2665      2668      2670      2662      2665      2668      2671
      2663      2662      2665      2666      2663      2662      2665      2667
      2663      2662      2665      2668      2664      2662      2665      2666
      2664      2662      2665      2667      2664      2662      2665      2668
      2665      2668      2671      2672      2665      2668      2671      2673
      2665      2668      2671      2674      2666      2665      2668      2669
      2666      2665      2668      2670      2666      2665      2668      2671
      2667      2665      2668      2669      2667      2665      2668      2670
      2667      2665      2668      2671      2668      2671      2674      2675
      2668      2671      2674      2676      2668      2671      2674      2677
      2669      2668      2671      2672      2669      2668      2671      2673
      2669      2668      2671      2674      2670      2668      2671      2672
      2670      2668      2671      2673      2670      2668      2671      2674
      2671      2674      2677      2678      2671      2674      2677      2679
      2671      2674      2677      2680      2672      2671      2674      2675
      2672      2671      2674      2676      2672      2671      2674      2677
      2673      2671      2674      2675      2673      2671      2674      2676
      2673      2671      2674      2677      2674      2677      2680      2681
      2674      2677      2680      2682      2675      2674      2677      2678
      2675      2674      2677      2679      2675      2674      2677      2680
      2676      2674      2677      2678      2676      2674      2677      2679
      2676      2674      2677      2680      2677      2680      2682      2683
      2677      2680      2682      2684      2678      2677      2680      2681
      2678      2677      2680      2682      2679      2677      2680      2681
      2679      2677      2680      2682      2680      2682      2684      2685
      2680      2682      2684      2686      2680      2682      2684      2687
      2681      2680      2682      2683      2681      2680      2682      2684
      2682      2684      2687      2688      2682      2684      2687      2689
      2682      2684      2687      2690      2683      2682      2684      2685
      2683      2682      2684      2686      2683      2682      2684      2687
      2684      2687      2690      2691      2684      2687      2690      2692
      2684      2687      2690      2693      2685      2684      2687      2688
      2685      2684      2687      2689      2685      2684      2687      2690
      2686      2684      2687      2688      2686      2684      2687      2689
      2686      2684      2687      2690      2687      2690      2693      2694
      2687      2690      2693      2695      2687      2690      2693      2696
      2688      2687      2690      2691      2688      2687      2690      2692
      2688      2687      2690      2693      2689      2687      2690      2691
      2689      2687      2690      2692      2689      2687      2690      2693
      2690      2693      2696      2697      2690      2693      2696      2698
      2690      2693      2696      2699      2691      2690      2693      2694
      2691      2690      2693      2695      2691      2690      2693      2696
      2692      2690      2693      2694      2692      2690      2693      2695
      2692      2690      2693      2696      2693      2696      2699      2700
      2693      2696      2699      2701      2693      2696      2699      2702
      2694      2693      2696      2697      2694      2693      2696      2698
      2694      2693      2696      2699      2695      2693      2696      2697
      2695      2693      2696      2698      2695      2693      2696      2699
      2696      2699      2702      2703      2696      2699      2702      2704
      2696      2699      2702      2705      2697      2696      2699      2700
      2697      2696      2699      2701      2697      2696      2699      2702
      2698      2696      2699      2700      2698      2696      2699      2701
      2698      2696      2699      2702      2699      2702      2705      2706
      2699      2702      2705      2707      2699      2702      2705      2708
      2700      2699      2702      2703      2700      2699      2702      2704
      2700      2699      2702      2705      2701      2699      2702      2703
      2701      2699      2702      2704      2701      2699      2702      2705
      2703      2702      2705      2706      2703      2702      2705      2707
      2703      2702      2705      2708      2704      2702      2705      2706
      2704      2702      2705      2707      2704      2702      2705      2708
      2709      2710      2725      2726      2709      2710      2725      2727
      2709      2710      2725      2731      2710      2709      2713      2714
      2710      2709      2713      2715      2710      2709      2713      2716
      2710      2709      2717      2718      2710      2709      2717      2719
      2710      2709      2717      2720      2710      2709      2721      2722
      2710      2709      2721      2723      2710      2709      2721      2724
      2710      2725      2731      2728      2711      2710      2709      2713
      2711      2710      2709      2717      2711      2710      2709      2721
      2711      2710      2725      2726      2711      2710      2725      2727
      2711      2710      2725      2731      2712      2710      2709      2713
      2712      2710      2709      2717      2712      2710      2709      2721
      2712      2710      2725      2726      2712      2710      2725      2727
      2712      2710      2725      2731      2713      2709      2710      2725
      2713      2709      2717      2718      2713      2709      2717      2719
      2713      2709      2717      2720      2713      2709      2721      2722
      2713      2709      2721      2723      2713      2709      2721      2724
      2714      2713      2709      2717      2714      2713      2709      2721
      2715      2713      2709      2717      2715      2713      2709      2721
      2716      2713      2709      2717      2716      2713      2709      2721
      2717      2709      2710      2725      2717      2709      2721      2722
      2717      2709      2721      2723      2717      2709      2721      2724
      2718      2717      2709      2721      2719      2717      2709      2721
      2720      2717      2709      2721      2721      2709      2710      2725
      2725      2731      2728      2729      2725      2731      2728      2730
      2725      2731      2728      2732      2726      2725      2731      2728
      2727      2725      2731      2728      2728      2732      2733      2734
      2728      2732      2733      2735      2728      2732      2733      2736
      2729      2728      2732      2733      2730      2728      2732      2733
      2731      2728      2732      2733      2732      2733      2736      2737
      2732      2733      2736      2738      2732      2733      2736      2744
      2733      2736      2738      2739      2733      2736      2744      2745
      2733      2736      2744      2746      2733      2736      2744      2747
      2734      2733      2736      2737      2734      2733      2736      2738
      2734      2733      2736      2744      2735      2733      2736      2737
      2735      2733      2736      2738      2735      2733      2736      2744
      2736      2738      2739      2740      2736      2738      2739      2741
      2736      2744      2747      2748      2737      2736      2738      2739
      2737      2736      2744      2745      2737      2736      2744      2746
      2737      2736      2744      2747      2738      2736      2744      2745
      2738      2736      2744      2746      2738      2736      2744      2747
      2738      2739      2741      2742      2738      2739      2741      2743
      2738      2739      2741      2753      2739      2738      2736      2744
      2739      2741      2753      2754      2739      2741      2753      2755
      2739      2741      2753      2756      2740      2739      2741      2742
      2740      2739      2741      2743      2740      2739      2741      2753
      2741      2753      2756      2757      2741      2753      2756      2758
      2741      2753      2756      2759      2742      2741      2753      2754
      2742      2741      2753      2755      2742      2741      2753      2756
      2743      2741      2753      2754      2743      2741      2753      2755
      2743      2741      2753      2756      2744      2747      2748      2749
      2744      2747      2748      2750      2745      2744      2747      2748
      2746      2744      2747      2748      2747      2748      2750      2751
      2747      2748      2750      2752      2747      2748      2750      2800
      2748      2750      2800      2801      2748      2750      2800      2802
      2748      2750      2800      2803      2749      2748      2750      2751
      2749      2748      2750      2752      2749      2748      2750      2800
      2750      2800      2803      2804      2750      2800      2803      2805
      2750      2800      2803      2806      2751      2750      2800      2801
      2751      2750      2800      2802      2751      2750      2800      2803
      2752      2750      2800      2801      2752      2750      2800      2802
      2752      2750      2800      2803      2753      2756      2759      2760
      2753      2756      2759      2761      2753      2756      2759      2762
      2754      2753      2756      2757      2754      2753      2756      2758
      2754      2753      2756      2759      2755      2753      2756      2757
      2755      2753      2756      2758      2755      2753      2756      2759
      2756      2759      2762      2763      2756      2759      2762      2764
      2756      2759      2762      2765      2757      2756      2759      2760
      2757      2756      2759      2761      2757      2756      2759      2762
      2758      2756      2759      2760      2758      2756      2759      2761
      2758      2756      2759      2762      2759      2762      2765      2766
      2759      2762      2765      2767      2759      2762      2765      2768
      2760      2759      2762      2763      2760      2759      2762      2764
      2760      2759      2762      2765      2761      2759      2762      2763
      2761      2759      2762      2764      2761      2759      2762      2765
      2762      2765      2768      2769      2762      2765      2768      2770
      2762      2765      2768      2771      2763      2762      2765      2766
      2763      2762      2765      2767      2763      2762      2765      2768
      2764      2762      2765      2766      2764      2762      2765      2767
      2764      2762      2765      2768      2765      2768      2771      2772
      2765      2768      2771      2773      2766      2765      2768      2769
      2766      2765      2768      2770      2766      2765      2768      2771
      2767      2765      2768      2769      2767      2765      2768      2770
      2767      2765      2768      2771      2768      2771      2773      2774
      2768      2771      2773      2775      2769      2768      2771      2772
      2769      2768      2771      2773      2770      2768      2771      2772
      2770      2768      2771      2773      2771      2773      2775      2776
      2771      2773      2775      2777      2771      2773      2775      2778
      2772      2771      2773      2774      2772      2771      2773      2775
      2773      2775      2778      2779      2773      2775      2778      2780
      2773      2775      2778      2781      2774      2773      2775      2776
      2774      2773      2775      2777      2774      2773      2775      2778
      2775      2778      2781      2782      2775      2778      2781      2783
      2775      2778      2781      2784      2776      2775      2778      2779
      2776      2775      2778      2780      2776      2775      2778      2781
      2777      2775      2778      2779      2777      2775      2778      2780
      2777      2775      2778      2781      2778      2781      2784      2785
      2778      2781      2784      2786      2778      2781      2784      2787
      2779      2778      2781      2782      2779      2778      2781      2783
      2779      2778      2781      2784      2780      2778      2781      2782
      2780      2778      2781      2783      2780      2778      2781      2784
      2781      2784      2787      2788      2781      2784      2787      2789
      2781      2784      2787      2790      2782      2781      2784      2785
      2782      2781      2784      2786      2782      2781      2784      2787
      2783      2781      2784      2785      2783      2781      2784      2786
      2783      2781      2784      2787      2784      2787      2790      2791
      2784      2787      2790      2792      2784      2787      2790      2793
      2785      2784      2787      2788      2785      2784      2787      2789
      2785      2784      2787      2790      2786      2784      2787      2788
      2786      2784      2787      2789      2786      2784      2787      2790
      2787      2790      2793      2794      2787      2790      2793      2795
      2787      2790      2793      2796      2788      2787      2790      2791
      2788      2787      2790      2792      2788      2787      2790      2793
      2789      2787      2790      2791      2789      2787      2790      2792
      2789      2787      2790      2793      2790      2793      2796      2797
      2790      2793      2796      2798      2790      2793      2796      2799
      2791      2790      2793      2794      2791      2790      2793      2795
      2791      2790      2793      2796      2792      2790      2793      2794
      2792      2790      2793      2795      2792      2790      2793      2796
      2794      2793      2796      2797      2794      2793      2796      2798
      2794      2793      2796      2799      2795      2793      2796      2797
      2795      2793      2796      2798      2795      2793      2796      2799
      2800      2803      2806      2807      2800      2803      2806      2808
      2800      2803      2806      2809      2801      2800      2803      2804
      2801      2800      2803      2805      2801      2800      2803      2806
      2802      2800      2803      2804      2802      2800      2803      2805
      2802      2800      2803      2806      2803      2806      2809      2810
      2803      2806      2809      2811      2803      2806      2809      2812
      2804      2803      2806      2807      2804      2803      2806      2808
      2804      2803      2806      2809      2805      2803      2806      2807
      2805      2803      2806      2808      2805      2803      2806      2809
      2806      2809      2812      2813      2806      2809      2812      2814
      2806      2809      2812      2815      2807      2806      2809      2810
      2807      2806      2809      2811      2807      2806      2809      2812
      2808      2806      2809      2810      2808      2806      2809      2811
      2808      2806      2809      2812      2809      2812      2815      2816
      2809      2812      2815      2817      2809      2812      2815      2818
      2810      2809      2812      2813      2810      2809      2812      2814
      2810      2809      2812      2815      2811      2809      2812      2813
      2811      2809      2812      2814      2811      2809      2812      2815
      2812      2815      2818      2819      2812      2815      2818      2820
      2813      2812      2815      2816      2813      2812      2815      2817
      2813      2812      2815      2818      2814      2812      2815      2816
      2814      2812      2815      2817      2814      2812      2815      2818
      2815      2818      2820      2821      2815      2818      2820      2822
      2816      2815      2818      2819      2816      2815      2818      2820
      2817      2815      2818      2819      2817      2815      2818      2820
      2818      2820      2822      2823      2818      2820      2822      2824
      2818      2820      2822      2825      2819      2818      2820      2821
      2819      2818      2820      2822      2820      2822      2825      2826
      2820      2822      2825      2827      2820      2822      2825      2828
      2821      2820      2822      2823      2821      2820      2822      2824
      2821      2820      2822      2825      2822      2825      2828      2829
      2822      2825      2828      2830      2822      2825      2828      2831
      2823      2822      2825      2826      2823      2822      2825      2827
      2823      2822      2825      2828      2824      2822      2825      2826
      2824      2822      2825      2827      2824      2822      2825      2828
      2825      2828      2831      2832      2825      2828      2831      2833
      2825      2828      2831      2834      2826      2825      2828      2829
      2826      2825      2828      2830      2826      2825      2828      2831
      2827      2825      2828      2829      2827      2825      2828      2830
      2827      2825      2828      2831      2828      2831      2834      2835
      2828      2831      2834      2836      2828      2831      2834      2837
      2829      2828      2831      2832      2829      2828      2831      2833
      2829      2828      2831      2834      2830      2828      2831      2832
      2830      2828      2831      2833      2830      2828      2831      2834
      2831      2834      2837      2838      2831      2834      2837      2839
      2831      2834      2837      2840      2832      2831      2834      2835
      2832      2831      2834      2836      2832      2831      2834      2837
      2833      2831      2834      2835      2833      2831      2834      2836
      2833      2831      2834      2837      2834      2837      2840      2841
      2834      2837      2840      2842      2834      2837      2840      2843
      2835      2834      2837      2838      2835      2834      2837      2839
      2835      2834      2837      2840      2836      2834      2837      2838
      2836      2834      2837      2839      2836      2834      2837      2840
      2837      2840      2843      2844      2837      2840      2843      2845
      2837      2840      2843      2846      2838      2837      2840      2841
      2838      2837      2840      2842      2838      2837      2840      2843
      2839      2837      2840      2841      2839      2837      2840      2842
      2839      2837      2840      2843      2841      2840      2843      2844
      2841      2840      2843      2845      2841      2840      2843      2846
      2842      2840      2843      2844      2842      2840      2843      2845
      2842      2840      2843      2846      2847      2848      2863      2864
      2847      2848      2863      2865      2847      2848      2863      2869
      2848      2847      2851      2852      2848      2847      2851      2853
      2848      2847      2851      2854      2848      2847      2855      2856
      2848      2847      2855      2857      2848      2847      2855      2858
      2848      2847      2859      2860      2848      2847      2859      2861
      2848      2847      2859      2862      2848      2863      2869      2866
      2849      2848      2847      2851      2849      2848      2847      2855
      2849      2848      2847      2859      2849      2848      2863      2864
      2849      2848      2863      2865      2849      2848      2863      2869
      2850      2848      2847      2851      2850      2848      2847      2855
      2850      2848      2847      2859      2850      2848      2863      2864
      2850      2848      2863      2865      2850      2848      2863      2869
      2851      2847      2848      2863      2851      2847      2855      2856
      2851      2847      2855      2857      2851      2847      2855      2858
      2851      2847      2859      2860      2851      2847      2859      2861
      2851      2847      2859      2862      2852      2851      2847      2855
      2852      2851      2847      2859      2853      2851      2847      2855
      2853      2851      2847      2859      2854      2851      2847      2855
      2854      2851      2847      2859      2855      2847      2848      2863
      2855      2847      2859      2860      2855      2847      2859      2861
      2855      2847      2859      2862      2856      2855      2847      2859
      2857      2855      2847      2859      2858      2855      2847      2859
      2859      2847      2848      2863      2863      2869      2866      2867
      2863      2869      2866      2868      2863      2869      2866      2870
      2864      2863      2869      2866      2865      2863      2869      2866
      2866      2870      2871      2872      2866      2870      2871      2873
      2866      2870      2871      2874      2867      2866      2870      2871
      2868      2866      2870      2871      2869      2866      2870      2871
      2870      2871      2874      2875      2870      2871      2874      2876
      2870      2871      2874      2882      2871      2874      2876      2877
      2871      2874      2882      2883      2871      2874      2882      2884
      2871      2874      2882      2885      2872      2871      2874      2875
      2872      2871      2874      2876      2872      2871      2874      2882
      2873      2871      2874      2875      2873      2871      2874      2876
      2873      2871      2874      2882      2874      2876      2877      2878
      2874      2876      2877      2879      2874      2882      2885      2886
      2875      2874      2876      2877      2875      2874      2882      2883
      2875      2874      2882      2884      2875      2874      2882      2885
      2876      2874      2882      2883      2876      2874      2882      2884
      2876      2874      2882      2885      2876      2877      2879      2880
      2876      2877      2879      2881      2876      2877      2879      2891
      2877      2876      2874      2882      2877      2879      2891      2892
      2877      2879      2891      2893      2877      2879      2891      2894
      2878      2877      2879      2880      2878      2877      2879      2881
      2878      2877      2879      2891      2879      2891      2894      2895
      2879      2891      2894      2896      2879      2891      2894      2897
      2880      2879      2891      2892      2880      2879      2891      2893
      2880      2879      2891      2894      2881      2879      2891      2892
      2881      2879      2891      2893      2881      2879      2891      2894
      2882      2885      2886      2887      2882      2885      2886      2888
      2883      2882      2885      2886      2884      2882      2885      2886
      2885      2886      2888      2889      2885      2886      2888      2890
      2885      2886      2888      2938      2886      2888      2938      2939
      2886      2888      2938      2940      2886      2888      2938      2941
      2887      2886      2888      2889      2887      2886      2888      2890
      2887      2886      2888      2938      2888      2938      2941      2942
      2888      2938      2941      2943      2888      2938      2941      2944
      2889      2888      2938      2939      2889      2888      2938      2940
      2889      2888      2938      2941      2890      2888      2938      2939
      2890      2888      2938      2940      2890      2888      2938      2941
      2891      2894      2897      2898      2891      2894      2897      2899
      2891      2894      2897      2900      2892      2891      2894      2895
      2892      2891      2894      2896      2892      2891      2894      2897
      2893      2891      2894      2895      2893      2891      2894      2896
      2893      2891      2894      2897      2894      2897      2900      2901
      2894      2897      2900      2902      2894      2897      2900      2903
      2895      2894      2897      2898      2895      2894      2897      2899
      2895      2894      2897      2900      2896      2894      2897      2898
      2896      2894      2897      2899      2896      2894      2897      2900
      2897      2900      2903      2904      2897      2900      2903      2905
      2897      2900      2903      2906      2898      2897      2900      2901
      2898      2897      2900      2902      2898      2897      2900      2903
      2899      2897      2900      2901      2899      2897      2900      2902
      2899      2897      2900      2903      2900      2903      2906      2907
      2900      2903      2906      2908      2900      2903      2906      2909
      2901      2900      2903      2904      2901      2900      2903      2905
      2901      2900      2903      2906      2902      2900      2903      2904
      2902      2900      2903      2905      2902      2900      2903      2906
      2903      2906      2909      2910      2903      2906      2909      2911
      2904      2903      2906      2907      2904      2903      2906      2908
      2904      2903      2906      2909      2905      2903      2906      2907
      2905      2903      2906      2908      2905      2903      2906      2909
      2906      2909      2911      2912      2906      2909      2911      2913
      2907      2906      2909      2910      2907      2906      2909      2911
      2908      2906      2909      2910      2908      2906      2909      2911
      2909      2911      2913      2914      2909      2911      2913      2915
      2909      2911      2913      2916      2910      2909      2911      2912
      2910      2909      2911      2913      2911      2913      2916      2917
      2911      2913      2916      2918      2911      2913      2916      2919
      2912      2911      2913      2914      2912      2911      2913      2915
      2912      2911      2913      2916      2913      2916      2919      2920
      2913      2916      2919      2921      2913      2916      2919      2922
      2914      2913      2916      2917      2914      2913      2916      2918
      2914      2913      2916      2919      2915      2913      2916      2917
      2915      2913      2916      2918      2915      2913      2916      2919
      2916      2919      2922      2923      2916      2919      2922      2924
      2916      2919      2922      2925      2917      2916      2919      2920
      2917      2916      2919      2921      2917      2916      2919      2922
      2918      2916      2919      2920      2918      2916      2919      2921
      2918      2916      2919      2922      2919      2922      2925      2926
      2919      2922      2925      2927      2919      2922      2925      2928
      2920      2919      2922      2923      2920      2919      2922      2924
      2920      2919      2922      2925      2921      2919      2922      2923
      2921      2919      2922      2924      2921      2919      2922      2925
      2922      2925      2928      2929      2922      2925      2928      2930
      2922      2925      2928      2931      2923      2922      2925      2926
      2923      2922      2925      2927      2923      2922      2925      2928
      2924      2922      2925      2926      2924      2922      2925      2927
      2924      2922      2925      2928      2925      2928      2931      2932
      2925      2928      2931      2933      2925      2928      2931      2934
      2926      2925      2928      2929      2926      2925      2928      2930
      2926      2925      2928      2931      2927      2925      2928      2929
      2927      2925      2928      2930      2927      2925      2928      2931
      2928      2931      2934      2935      2928      2931      2934      2936
      2928      2931      2934      2937      2929      2928      2931      2932
      2929      2928      2931      2933      2929      2928      2931      2934
      2930      2928      2931      2932      2930      2928      2931      2933
      2930      2928      2931      2934      2932      2931      2934      2935
      2932      2931      2934      2936      2932      2931      2934      2937
      2933      2931      2934      2935      2933      2931      2934      2936
      2933      2931      2934      2937      2938      2941      2944      2945
      2938      2941      2944      2946      2938      2941      2944      2947
      2939      2938      2941      2942      2939      2938      2941      2943
      2939      2938      2941      2944      2940      2938      2941      2942
      2940      2938      2941      2943      2940      2938      2941      2944
      2941      2944      2947      2948      2941      2944      2947      2949
      2941      2944      2947      2950      2942      2941      2944      2945
      2942      2941      2944      2946      2942      2941      2944      2947
      2943      2941      2944      2945      2943      2941      2944      2946
      2943      2941      2944      2947      2944      2947      2950      2951
      2944      2947      2950      2952      2944      2947      2950      2953
      2945      2944      2947      2948      2945      2944      2947      2949
      2945      2944      2947      2950      2946      2944      2947      2948
      2946      2944      2947      2949      2946      2944      2947      2950
      2947      2950      2953      2954      2947      2950      2953      2955
      2947      2950      2953      2956      2948      2947      2950      2951
      2948      2947      2950      2952      2948      2947      2950      2953
      2949      2947      2950      2951      2949      2947      2950      2952
      2949      2947      2950      2953      2950      2953      2956      2957
      2950      2953      2956      2958      2951      2950      2953      2954
      2951      2950      2953      2955      2951      2950      2953      2956
      2952      2950      2953      2954      2952      2950      2953      2955
      2952      2950      2953      2956      2953      2956      2958      2959
      2953      2956      2958      2960      2954      2953      2956      2957
      2954      2953      2956      2958      2955      2953      2956      2957
      2955      2953      2956      2958      2956      2958      2960      2961
      2956      2958      2960      2962      2956      2958      2960      2963
      2957      2956      2958      2959      2957      2956      2958      2960
      2958      2960      2963      2964      2958      2960      2963      2965
      2958      2960      2963      2966      2959      2958      2960      2961
      2959      2958      2960      2962      2959      2958      2960      2963
      2960      2963      2966      2967      2960      2963      2966      2968
      2960      2963      2966      2969      2961      2960      2963      2964
      2961      2960      2963      2965      2961      2960      2963      2966
      2962      2960      2963      2964      2962      2960      2963      2965
      2962      2960      2963      2966      2963      2966      2969      2970
      2963      2966      2969      2971      2963      2966      2969      2972
      2964      2963      2966      2967      2964      2963      2966      2968
      2964      2963      2966      2969      2965      2963      2966      2967
      2965      2963      2966      2968      2965      2963      2966      2969
      2966      2969      2972      2973      2966      2969      2972      2974
      2966      2969      2972      2975      2967      2966      2969      2970
      2967      2966      2969      2971      2967      2966      2969      2972
      2968      2966      2969      2970      2968      2966      2969      2971
      2968      2966      2969      2972      2969      2972      2975      2976
      2969      2972      2975      2977      2969      2972      2975      2978
      2970      2969      2972      2973      2970      2969      2972      2974
      2970      2969      2972      2975      2971      2969      2972      2973
      2971      2969      2972      2974      2971      2969      2972      2975
      2972      2975      2978      2979      2972      2975      2978      2980
      2972      2975      2978      2981      2973      2972      2975      2976
      2973      2972      2975      2977      2973      2972      2975      2978
      2974      2972      2975      2976      2974      2972      2975      2977
      2974      2972      2975      2978      2975      2978      2981      2982
      2975      2978      2981      2983      2975      2978      2981      2984
      2976      2975      2978      2979      2976      2975      2978      2980
      2976      2975      2978      2981      2977      2975      2978      2979
      2977      2975      2978      2980      2977      2975      2978      2981
      2979      2978      2981      2982      2979      2978      2981      2983
      2979      2978      2981      2984      2980      2978      2981      2982
      2980      2978      2981      2983      2980      2978      2981      2984
      2985      2986      3001      3002      2985      2986      3001      3003
      2985      2986      3001      3007      2986      2985      2989      2990
      2986      2985      2989      2991      2986      2985      2989      2992
      2986      2985      2993      2994      2986      2985      2993      2995
      2986      2985      2993      2996      2986      2985      2997      2998
      2986      2985      2997      2999      2986      2985      2997      3000
      2986      3001      3007      3004      2987      2986      2985      2989
      2987      2986      2985      2993      2987      2986      2985      2997
      2987      2986      3001      3002      2987      2986      3001      3003
      2987      2986      3001      3007      2988      2986      2985      2989
      2988      2986      2985      2993      2988      2986      2985      2997
      2988      2986      3001      3002      2988      2986      3001      3003
      2988      2986      3001      3007      2989      2985      2986      3001
      2989      2985      2993      2994      2989      2985      2993      2995
      2989      2985      2993      2996      2989      2985      2997      2998
      2989      2985      2997      2999      2989      2985      2997      3000
      2990      2989      2985      2993      2990      2989      2985      2997
      2991      2989      2985      2993      2991      2989      2985      2997
      2992      2989      2985      2993      2992      2989      2985      2997
      2993      2985      2986      3001      2993      2985      2997      2998
      2993      2985      2997      2999      2993      2985      2997      3000
      2994      2993      2985      2997      2995      2993      2985      2997
      2996      2993      2985      2997      2997      2985      2986      3001
      3001      3007      3004      3005      3001      3007      3004      3006
      3001      3007      3004      3008      3002      3001      3007      3004
      3003      3001      3007      3004      3004      3008      3009      3010
      3004      3008      3009      3011      3004      3008      3009      3012
      3005      3004      3008      3009      3006      3004      3008      3009
      3007      3004      3008      3009      3008      3009      3012      3013
      3008      3009      3012      3014      3008      3009      3012      3020
      3009      3012      3014      3015      3009      3012      3020      3021
      3009      3012      3020      3022      3009      3012      3020      3023
      3010      3009      3012      3013      3010      3009      3012      3014
      3010      3009      3012      3020      3011      3009      3012      3013
      3011      3009      3012      3014      3011      3009      3012      3020
      3012      3014      3015      3016      3012      3014      3015      3017
      3012      3020      3023      3024      3013      3012      3014      3015
      3013      3012      3020      3021      3013      3012      3020      3022
      3013      3012      3020      3023      3014      3012      3020      3021
      3014      3012      3020      3022      3014      3012      3020      3023
      3014      3015      3017      3018      3014      3015      3017      3019
      3014      3015      3017      3029      3015      3014      3012      3020
      3015      3017      3029      3030      3015      3017      3029      3031
      3015      3017      3029      3032      3016      3015      3017      3018
      3016      3015      3017      3019      3016      3015      3017      3029
      3017      3029      3032      3033      3017      3029      3032      3034
      3017      3029      3032      3035      3018      3017      3029      3030
      3018      3017      3029      3031      3018      3017      3029      3032
      3019      3017      3029      3030      3019      3017      3029      3031
      3019      3017      3029      3032      3020      3023      3024      3025
      3020      3023      3024      3026      3021      3020      3023      3024
      3022      3020      3023      3024      3023      3024      3026      3027
      3023      3024      3026      3028      3023      3024      3026      3076
      3024      3026      3076      3077      3024      3026      3076      3078
      3024      3026      3076      3079      3025      3024      3026      3027
      3025      3024      3026      3028      3025      3024      3026      3076
      3026      3076      3079      3080      3026      3076      3079      3081
      3026      3076      3079      3082      3027      3026      3076      3077
      3027      3026      3076      3078      3027      3026      3076      3079
      3028      3026      3076      3077      3028      3026      3076      3078
      3028      3026      3076      3079      3029      3032      3035      3036
      3029      3032      3035      3037      3029      3032      3035      3038
      3030      3029      3032      3033      3030      3029      3032      3034
      3030      3029      3032      3035      3031      3029      3032      3033
      3031      3029      3032      3034      3031      3029      3032      3035
      3032      3035      3038      3039      3032      3035      3038      3040
      3032      3035      3038      3041      3033      3032      3035      3036
      3033      3032      3035      3037      3033      3032      3035      3038
      3034      3032      3035      3036      3034      3032      3035      3037
      3034      3032      3035      3038      3035      3038      3041      3042
      3035      3038      3041      3043      3035      3038      3041      3044
      3036      3035      3038      3039      3036      3035      3038      3040
      3036      3035      3038      3041      3037      3035      3038      3039
      3037      3035      3038      3040      3037      3035      3038      3041
      3038      3041      3044      3045      3038      3041      3044      3046
      3038      3041      3044      3047      3039      3038      3041      3042
      3039      3038      3041      3043      3039      3038      3041      3044
      3040      3038      3041      3042      3040      3038      3041      3043
      3040      3038      3041      3044      3041      3044      3047      3048
      3041      3044      3047      3049      3042      3041      3044      3045
      3042      3041      3044      3046      3042      3041      3044      3047
      3043      3041      3044      3045      3043      3041      3044      3046
      3043      3041      3044      3047      3044      3047      3049      3050
      3044      3047      3049      3051      3045      3044      3047      3048
      3045      3044      3047      3049      3046      3044      3047      3048
      3046      3044      3047      3049      3047      3049      3051      3052
      3047      3049      3051      3053      3047      3049      3051      3054
      3048      3047      3049      3050      3048      3047      3049      3051
      3049      3051      3054      3055      3049      3051      3054      3056
      3049      3051      3054      3057      3050      3049      3051      3052
      3050      3049      3051      3053      3050      3049      3051      3054
      3051      3054      3057      3058      3051      3054      3057      3059
      3051      3054      3057      3060      3052      3051      3054      3055
      3052      3051      3054      3056      3052      3051      3054      3057
      3053      3051      3054      3055      3053      3051      3054      3056
      3053      3051      3054      3057      3054      3057      3060      3061
      3054      3057      3060      3062      3054      3057      3060      3063
      3055      3054      3057      3058      3055      3054      3057      3059
      3055      3054      3057      3060      3056      3054      3057      3058
      3056      3054      3057      3059      3056      3054      3057      3060
      3057      3060      3063      3064      3057      3060      3063      3065
      3057      3060      3063      3066      3058      3057      3060      3061
      3058      3057      3060      3062      3058      3057      3060      3063
      3059      3057      3060      3061      3059      3057      3060      3062
      3059      3057      3060      3063      3060      3063      3066      3067
      3060      3063      3066      3068      3060      3063      3066      3069
      3061      3060      3063      3064      3061      3060      3063      3065
      3061      3060      3063      3066      3062      3060      3063      3064
      3062      3060      3063      3065      3062      3060      3063      3066
      3063      3066      3069      3070      3063      3066      3069      3071
      3063      3066      3069      3072      3064      3063      3066      3067
      3064      3063      3066      3068      3064      3063      3066      3069
      3065      3063      3066      3067      3065      3063      3066      3068
      3065      3063      3066      3069      3066      3069      3072      3073
      3066      3069      3072      3074      3066      3069      3072      3075
      3067      3066      3069      3070      3067      3066      3069      3071
      3067      3066      3069      3072      3068      3066      3069      3070
      3068      3066      3069      3071      3068      3066      3069      3072
      3070      3069      3072      3073      3070      3069      3072      3074
      3070      3069      3072      3075      3071      3069      3072      3073
      3071      3069      3072      3074      3071      3069      3072      3075
      3076      3079      3082      3083      3076      3079      3082      3084
      3076      3079      3082      3085      3077      3076      3079      3080
      3077      3076      3079      3081      3077      3076      3079      3082
      3078      3076      3079      3080      3078      3076      3079      3081
      3078      3076      3079      3082      3079      3082      3085      3086
      3079      3082      3085      3087      3079      3082      3085      3088
      3080      3079      3082      3083      3080      3079      3082      3084
      3080      3079      3082      3085      3081      3079      3082      3083
      3081      3079      3082      3084      3081      3079      3082      3085
      3082      3085      3088      3089      3082      3085      3088      3090
      3082      3085      3088      3091      3083      3082      3085      3086
      3083      3082      3085      3087      3083      3082      3085      3088
      3084      3082      3085      3086      3084      3082      3085      3087
      3084      3082      3085      3088      3085      3088      3091      3092
      3085      3088      3091      3093      3085      3088      3091      3094
      3086      3085      3088      3089      3086      3085      3088      3090
      3086      3085      3088      3091      3087      3085      3088      3089
      3087      3085      3088      3090      3087      3085      3088      3091
      3088      3091      3094      3095      3088      3091      3094      3096
      3089      3088      3091      3092      3089      3088      3091      3093
      3089      3088      3091      3094      3090      3088      3091      3092
      3090      3088      3091      3093      3090      3088      3091      3094
      3091      3094      3096      3097      3091      3094      3096      3098
      3092      3091      3094      3095      3092      3091      3094      3096
      3093      3091      3094      3095      3093      3091      3094      3096
      3094      3096      3098      3099      3094      3096      3098      3100
      3094      3096      3098      3101      3095      3094      3096      3097
      3095      3094      3096      3098      3096      3098      3101      3102
      3096      3098      3101      3103      3096      3098      3101      3104
      3097      3096      3098      3099      3097      3096      3098      3100
      3097      3096      3098      3101      3098      3101      3104      3105
      3098      3101      3104      3106      3098      3101      3104      3107
      3099      3098      3101      3102      3099      3098      3101      3103
      3099      3098      3101      3104      3100      3098      3101      3102
      3100      3098      3101      3103      3100      3098      3101      3104
      3101      3104      3107      3108      3101      3104      3107      3109
      3101      3104      3107      3110      3102      3101      3104      3105
      3102      3101      3104      3106      3102      3101      3104      3107
      3103      3101      3104      3105      3103      3101      3104      3106
      3103      3101      3104      3107      3104      3107      3110      3111
      3104      3107      3110      3112      3104      3107      3110      3113
      3105      3104      3107      3108      3105      3104      3107      3109
      3105      3104      3107      3110      3106      3104      3107      3108
      3106      3104      3107      3109      3106      3104      3107      3110
      3107      3110      3113      3114      3107      3110      3113      3115
      3107      3110      3113      3116      3108      3107      3110      3111
      3108      3107      3110      3112      3108      3107      3110      3113
      3109      3107      3110      3111      3109      3107      3110      3112
      3109      3107      3110      3113      3110      3113      3116      3117
      3110      3113      3116      3118      3110      3113      3116      3119
      3111      3110      3113      3114      3111      3110      3113      3115
      3111      3110      3113      3116      3112      3110      3113      3114
      3112      3110      3113      3115      3112      3110      3113      3116
      3113      3116      3119      3120      3113      3116      3119      3121
      3113      3116      3119      3122      3114      3113      3116      3117
      3114      3113      3116      3118      3114      3113      3116      3119
      3115      3113      3116      3117      3115      3113      3116      3118
      3115      3113      3116      3119      3117      3116      3119      3120
      3117      3116      3119      3121      3117      3116      3119      3122
      3118      3116      3119      3120      3118      3116      3119      3121
      3118      3116      3119      3122      3123      3124      3139      3140
      3123      3124      3139      3141      3123      3124      3139      3145
      3124      3123      3127      3128      3124      3123      3127      3129
      3124      3123      3127      3130      3124      3123      3131      3132
      3124      3123      3131      3133      3124      3123      3131      3134
      3124      3123      3135      3136      3124      3123      3135      3137
      3124      3123      3135      3138      3124      3139      3145      3142
      3125      3124      3123      3127      3125      3124      3123      3131
      3125      3124      3123      3135      3125      3124      3139      3140
      3125      3124      3139      3141      3125      3124      3139      3145
      3126      3124      3123      3127      3126      3124      3123      3131
      3126      3124      3123      3135      3126      3124      3139      3140
      3126      3124      3139      3141      3126      3124      3139      3145
      3127      3123      3124      3139      3127      3123      3131      3132
      3127      3123      3131      3133      3127      3123      3131      3134
      3127      3123      3135      3136      3127      3123      3135      3137
      3127      3123      3135      3138      3128      3127      3123      3131
      3128      3127      3123      3135      3129      3127      3123      3131
      3129      3127      3123      3135      3130      3127      3123      3131
      3130      3127      3123      3135      3131      3123      3124      3139
      3131      3123      3135      3136      3131      3123      3135      3137
      3131      3123      3135      3138      3132      3131      3123      3135
      3133      3131      3123      3135      3134      3131      3123      3135
      3135      3123      3124      3139      3139      3145      3142      3143
      3139      3145      3142      3144      3139      3145      3142      3146
      3140      3139      3145      3142      3141      3139      3145      3142
      3142      3146      3147      3148      3142      3146      3147      3149
      3142      3146      3147      3150      3143      3142      3146      3147
      3144      3142      3146      3147      3145      3142      3146      3147
      3146      3147      3150      3151      3146      3147      3150      3152
      3146      3147      3150      3158      3147      3150      3152      3153
      3147      3150      3158      3159      3147      3150      3158      3160
      3147      3150      3158      3161      3148      3147      3150      3151
      3148      3147      3150      3152      3148      3147      3150      3158
      3149      3147      3150      3151      3149      3147      3150      3152
      3149      3147      3150      3158      3150      3152      3153      3154
      3150      3152      3153      3155      3150      3158      3161      3162
      3151      3150      3152      3153      3151      3150      3158      3159
      3151      3150      3158      3160      3151      3150      3158      3161
      3152      3150      3158      3159      3152      3150      3158      3160
      3152      3150      3158      3161      3152      3153      3155      3156
      3152      3153      3155      3157      3152      3153      3155      3167
      3153      3152      3150      3158      3153      3155      3167      3168
      3153      3155      3167      3169      3153      3155      3167      3170
      3154      3153      3155      3156      3154      3153      3155      3157
      3154      3153      3155      3167      3155      3167      3170      3171
      3155      3167      3170      3172      3155      3167      3170      3173
      3156      3155      3167      3168      3156      3155      3167      3169
      3156      3155      3167      3170      3157      3155      3167      3168
      3157      3155      3167      3169      3157      3155      3167      3170
      3158      3161      3162      3163      3158      3161      3162      3164
      3159      3158      3161      3162      3160      3158      3161      3162
      3161      3162      3164      3165      3161      3162      3164      3166
      3161      3162      3164      3214      3162      3164      3214      3215
      3162      3164      3214      3216      3162      3164      3214      3217
      3163      3162      3164      3165      3163      3162      3164      3166
      3163      3162      3164      3214      3164      3214      3217      3218
      3164      3214      3217      3219      3164      3214      3217      3220
      3165      3164      3214      3215      3165      3164      3214      3216
      3165      3164      3214      3217      3166      3164      3214      3215
      3166      3164      3214      3216      3166      3164      3214      3217
      3167      3170      3173      3174      3167      3170      3173      3175
      3167      3170      3173      3176      3168      3167      3170      3171
      3168      3167      3170      3172      3168      3167      3170      3173
      3169      3167      3170      3171      3169      3167      3170      3172
      3169      3167      3170      3173      3170      3173      3176      3177
      3170      3173      3176      3178      3170      3173      3176      3179
      3171      3170      3173      3174      3171      3170      3173      3175
      3171      3170      3173      3176      3172      3170      3173      3174
      3172      3170      3173      3175      3172      3170      3173      3176
      3173      3176      3179      3180      3173      3176      3179      3181
      3173      3176      3179      3182      3174      3173      3176      3177
      3174      3173      3176      3178      3174      3173      3176      3179
      3175      3173      3176      3177      3175      3173      3176      3178
      3175      3173      3176      3179      3176      3179      3182      3183
      3176      3179      3182      3184      3176      3179      3182      3185
      3177      3176      3179      3180      3177      3176      3179      3181
      3177      3176      3179      3182      3178      3176      3179      3180
      3178      3176      3179      3181      3178      3176      3179      3182
      3179      3182      3185      3186      3179      3182      3185      3187
      3180      3179      3182      3183      3180      3179      3182      3184
      3180      3179      3182      3185      3181      3179      3182      3183
      3181      3179      3182      3184      3181      3179      3182      3185
      3182      3185      3187      3188      3182      3185      3187      3189
      3183      3182      3185      3186      3183      3182      3185      3187
      3184      3182      3185      3186      3184      3182      3185      3187
      3185      3187      3189      3190      3185      3187      3189      3191
      3185      3187      3189      3192      3186      3185      3187      3188
      3186      3185      3187      3189      3187      3189      3192      3193
      3187      3189      3192      3194      3187      3189      3192      3195
      3188      3187      3189      3190      3188      3187      3189      3191
      3188      3187      3189      3192      3189      3192      3195      3196
      3189      3192      3195      3197      3189      3192      3195      3198
      3190      3189      3192      3193      3190      3189      3192      3194
      3190      3189      3192      3195      3191      3189      3192      3193
      3191      3189      3192      3194      3191      3189      3192      3195
      3192      3195      3198      3199      3192      3195      3198      3200
      3192      3195      3198      3201      3193      3192      3195      3196
      3193      3192      3195      3197      3193      3192      3195      3198
      3194      3192      3195      3196      3194      3192      3195      3197
      3194      3192      3195      3198      3195      3198      3201      3202
      3195      3198      3201      3203      3195      3198      3201      3204
      3196      3195      3198      3199      3196      3195      3198      3200
      3196      3195      3198      3201      3197      3195      3198      3199
      3197      3195      3198      3200      3197      3195      3198      3201
      3198      3201      3204      3205      3198      3201      3204      3206
      3198      3201      3204      3207      3199      3198      3201      3202
      3199      3198      3201      3203      3199      3198      3201      3204
      3200      3198      3201      3202      3200      3198      3201      3203
      3200      3198      3201      3204      3201      3204      3207      3208
      3201      3204      3207      3209      3201      3204      3207      3210
      3202      3201      3204      3205      3202      3201      3204      3206
      3202      3201      3204      3207      3203      3201      3204      3205
      3203      3201      3204      3206      3203      3201      3204      3207
      3204      3207      3210      3211      3204      3207      3210      3212
      3204      3207      3210      3213      3205      3204      3207      3208
      3205      3204      3207      3209      3205      3204      3207      3210
      3206      3204      3207      3208      3206      3204      3207      3209
      3206      3204      3207      3210      3208      3207      3210      3211
      3208      3207      3210      3212      3208      3207      3210      3213
      3209      3207      3210      3211      3209      3207      3210      3212
      3209      3207      3210      3213      3214      3217      3220      3221
      3214      3217      3220      3222      3214      3217      3220      3223
      3215      3214      3217      3218      3215      3214      3217      3219
      3215      3214      3217      3220      3216      3214      3217      3218
      3216      3214      3217      3219      3216      3214      3217      3220
      3217      3220      3223      3224      3217      3220      3223      3225
      3217      3220      3223      3226      3218      3217      3220      3221
      3218      3217      3220      3222      3218      3217      3220      3223
      3219      3217      3220      3221      3219      3217      3220      3222
      3219      3217      3220      3223      3220      3223      3226      3227
      3220      3223      3226      3228      3220      3223      3226      3229
      3221      3220      3223      3224      3221      3220      3223      3225
      3221      3220      3223      3226      3222      3220      3223      3224
      3222      3220      3223      3225      3222      3220      3223      3226
      3223      3226      3229      3230      3223      3226      3229      3231
      3223      3226      3229      3232      3224      3223      3226      3227
      3224      3223      3226      3228      3224      3223      3226      3229
      3225      3223      3226      3227      3225      3223      3226      3228
      3225      3223      3226      3229      3226      3229      3232      3233
      3226      3229      3232      3234      3227      3226      3229      3230
      3227      3226      3229      3231      3227      3226      3229      3232
      3228      3226      3229      3230      3228      3226      3229      3231
      3228      3226      3229      3232      3229      3232      3234      3235
      3229      3232      3234      3236      3230      3229      3232      3233
      3230      3229      3232      3234      3231      3229      3232      3233
      3231      3229      3232      3234      3232      3234      3236      3237
      3232      3234      3236      3238      3232      3234      3236      3239
      3233      3232      3234      3235      3233      3232      3234      3236
      3234      3236      3239      3240      3234      3236      3239      3241
      3234      3236      3239      3242      3235      3234      3236      3237
      3235      3234      3236      3238      3235      3234      3236      3239
      3236      3239      3242      3243      3236      3239      3242      3244
      3236      3239      3242      3245      3237      3236      3239      3240
      3237      3236      3239      3241      3237      3236      3239      3242
      3238      3236      3239      3240      3238      3236      3239      3241
      3238      3236      3239      3242      3239      3242      3245      3246
      3239      3242      3245      3247      3239      3242      3245      3248
      3240      3239      3242      3243      3240      3239      3242      3244
      3240      3239      3242      3245      3241      3239      3242      3243
      3241      3239      3242      3244      3241      3239      3242      3245
      3242      3245      3248      3249      3242      3245      3248      3250
      3242      3245      3248      3251      3243      3242      3245      3246
      3243      3242      3245      3247      3243      3242      3245      3248
      3244      3242      3245      3246      3244      3242      3245      3247
      3244      3242      3245      3248      3245      3248      3251      3252
      3245      3248      3251      3253      3245      3248      3251      3254
      3246      3245      3248      3249      3246      3245      3248      3250
      3246      3245      3248      3251      3247      3245      3248      3249
      3247      3245      3248      3250      3247      3245      3248      3251
      3248      3251      3254      3255      3248      3251      3254      3256
      3248      3251      3254      3257      3249      3248      3251      3252
      3249      3248      3251      3253      3249      3248      3251      3254
      3250      3248      3251      3252      3250      3248      3251      3253
      3250      3248      3251      3254      3251      3254      3257      3258
      3251      3254      3257      3259      3251      3254      3257      3260
      3252      3251      3254      3255      3252      3251      3254      3256
      3252      3251      3254      3257      3253      3251      3254      3255
      3253      3251      3254      3256      3253      3251      3254      3257
      3255      3254      3257      3258      3255      3254      3257      3259
      3255      3254      3257      3260      3256      3254      3257      3258
      3256      3254      3257      3259      3256      3254      3257      3260
      3261      3262      3277      3278      3261      3262      3277      3279
      3261      3262      3277      3283      3262      3261      3265      3266
      3262      3261      3265      3267      3262      3261      3265      3268
      3262      3261      3269      3270      3262      3261      3269      3271
      3262      3261      3269      3272      3262      3261      3273      3274
      3262      3261      3273      3275      3262      3261      3273      3276
      3262      3277      3283      3280      3263      3262      3261      3265
      3263      3262      3261      3269      3263      3262      3261      3273
      3263      3262      3277      3278      3263      3262      3277      3279
      3263      3262      3277      3283      3264      3262      3261      3265
      3264      3262      3261      3269      3264      3262      3261      3273
      3264      3262      3277      3278      3264      3262      3277      3279
      3264      3262      3277      3283      3265      3261      3262      3277
      3265      3261      3269      3270      3265      3261      3269      3271
      3265      3261      3269      3272      3265      3261      3273      3274
      3265      3261      3273      3275      3265      3261      3273      3276
      3266      3265      3261      3269      3266      3265      3261      3273
      3267      3265      3261      3269      3267      3265      3261      3273
      3268      3265      3261      3269      3268      3265      3261      3273
      3269      3261      3262      3277      3269      3261      3273      3274
      3269      3261      3273      3275      3269      3261      3273      3276
      3270      3269      3261      3273      3271      3269      3261      3273
      3272      3269      3261      3273      3273      3261      3262      3277
      3277      3283      3280      3281      3277      3283      3280      3282
      3277      3283      3280      3284      3278      3277      3283      3280
      3279      3277      3283      3280      3280      3284      3285      3286
      3280      3284      3285      3287      3280      3284      3285      3288
      3281      3280      3284      3285      3282      3280      3284      3285
      3283      3280      3284      3285      3284      3285      3288      3289
      3284      3285      3288      3290      3284      3285      3288      3296
      3285      3288      3290      3291      3285      3288      3296      3297
      3285      3288      3296      3298      3285      3288      3296      3299
      3286      3285      3288      3289      3286      3285      3288      3290
      3286      3285      3288      3296      3287      3285      3288      3289
      3287      3285      3288      3290      3287      3285      3288      3296
      3288      3290      3291      3292      3288      3290      3291      3293
      3288      3296      3299      3300      3289      3288      3290      3291
      3289      3288      3296      3297      3289      3288      3296      3298
      3289      3288      3296      3299      3290      3288      3296      3297
      3290      3288      3296      3298      3290      3288      3296      3299
      3290      3291      3293      3294      3290      3291      3293      3295
      3290      3291      3293      3305      3291      3290      3288      3296
      3291      3293      3305      3306      3291      3293      3305      3307
      3291      3293      3305      3308      3292      3291      3293      3294
      3292      3291      3293      3295      3292      3291      3293      3305
      3293      3305      3308      3309      3293      3305      3308      3310
      3293      3305      3308      3311      3294      3293      3305      3306
      3294      3293      3305      3307      3294      3293      3305      3308
      3295      3293      3305      3306      3295      3293      3305      3307
      3295      3293      3305      3308      3296      3299      3300      3301
      3296      3299      3300      3302      3297      3296      3299      3300
      3298      3296      3299      3300      3299      3300      3302      3303
      3299      3300      3302      3304      3299      3300      3302      3352
      3300      3302      3352      3353      3300      3302      3352      3354
      3300      3302      3352      3355      3301      3300      3302      3303
      3301      3300      3302      3304      3301      3300      3302      3352
      3302      3352      3355      3356      3302      3352      3355      3357
      3302      3352      3355      3358      3303      3302      3352      3353
      3303      3302      3352      3354      3303      3302      3352      3355
      3304      3302      3352      3353      3304      3302      3352      3354
      3304      3302      3352      3355      3305      3308      3311      3312
      3305      3308      3311      3313      3305      3308      3311      3314
      3306      3305      3308      3309      3306      3305      3308      3310
      3306      3305      3308      3311      3307      3305      3308      3309
      3307      3305      3308      3310      3307      3305      3308      3311
      3308      3311      3314      3315      3308      3311      3314      3316
      3308      3311      3314      3317      3309      3308      3311      3312
      3309      3308      3311      3313      3309      3308      3311      3314
      3310      3308      3311      3312      3310      3308      3311      3313
      3310      3308      3311      3314      3311      3314      3317      3318
      3311      3314      3317      3319      3311      3314      3317      3320
      3312      3311      3314      3315      3312      3311      3314      3316
      3312      3311      3314      3317      3313      3311      3314      3315
      3313      3311      3314      3316      3313      3311      3314      3317
      3314      3317      3320      3321      3314      3317      3320      3322
      3314      3317      3320      3323      3315      3314      3317      3318
      3315      3314      3317      3319      3315      3314      3317      3320
      3316      3314      3317      3318      3316      3314      3317      3319
      3316      3314      3317      3320      3317      3320      3323      3324
      3317      3320      3323      3325      3318      3317      3320      3321
      3318      3317      3320      3322      3318      3317      3320      3323
      3319      3317      3320      3321      3319      3317      3320      3322
      3319      3317      3320      3323      3320      3323      3325      3326
      3320      3323      3325      3327      3321      3320      3323      3324
      3321      3320      3323      3325      3322      3320      3323      3324
      3322      3320      3323      3325      3323      3325      3327      3328
      3323      3325      3327      3329      3323      3325      3327      3330
      3324      3323      3325      3326      3324      3323      3325      3327
      3325      3327      3330      3331      3325      3327      3330      3332
      3325      3327      3330      3333      3326      3325      3327      3328
      3326      3325      3327      3329      3326      3325      3327      3330
      3327      3330      3333      3334      3327      3330      3333      3335
      3327      3330      3333      3336      3328      3327      3330      3331
      3328      3327      3330      3332      3328      3327      3330      3333
      3329      3327      3330      3331      3329      3327      3330      3332
      3329      3327      3330      3333      3330      3333      3336      3337
      3330      3333      3336      3338      3330      3333      3336      3339
      3331      3330      3333      3334      3331      3330      3333      3335
      3331      3330      3333      3336      3332      3330      3333      3334
      3332      3330      3333      3335      3332      3330      3333      3336
      3333      3336      3339      3340      3333      3336      3339      3341
      3333      3336      3339      3342      3334      3333      3336      3337
      3334      3333      3336      3338      3334      3333      3336      3339
      3335      3333      3336      3337      3335      3333      3336      3338
      3335      3333      3336      3339      3336      3339      3342      3343
      3336      3339      3342      3344      3336      3339      3342      3345
      3337      3336      3339      3340      3337      3336      3339      3341
      3337      3336      3339      3342      3338      3336      3339      3340
      3338      3336      3339      3341      3338      3336      3339      3342
      3339      3342      3345      3346      3339      3342      3345      3347
      3339      3342      3345      3348      3340      3339      3342      3343
      3340      3339      3342      3344      3340      3339      3342      3345
      3341      3339      3342      3343      3341      3339      3342      3344
      3341      3339      3342      3345      3342      3345      3348      3349
      3342      3345      3348      3350      3342      3345      3348      3351
      3343      3342      3345      3346      3343      3342      3345      3347
      3343      3342      3345      3348      3344      3342      3345      3346
      3344      3342      3345      3347      3344      3342      3345      3348
      3346      3345      3348      3349      3346      3345      3348      3350
      3346      3345      3348      3351      3347      3345      3348      3349
      3347      3345      3348      3350      3347      3345      3348      3351
      3352      3355      3358      3359      3352      3355      3358      3360
      3352      3355      3358      3361      3353      3352      3355      3356
      3353      3352      3355      3357      3353      3352      3355      3358
      3354      3352      3355      3356      3354      3352      3355      3357
      3354      3352      3355      3358      3355      3358      3361      3362
      3355      3358      3361      3363      3355      3358      3361      3364
      3356      3355      3358      3359      3356      3355      3358      3360
      3356      3355      3358      3361      3357      3355      3358      3359
      3357      3355      3358      3360      3357      3355      3358      3361
      3358      3361      3364      3365      3358      3361      3364      3366
      3358      3361      3364      3367      3359      3358      3361      3362
      3359      3358      3361      3363      3359      3358      3361      3364
      3360      3358      3361      3362      3360      3358      3361      3363
      3360      3358      3361      3364      3361      3364      3367      3368
      3361      3364      3367      3369      3361      3364      3367      3370
      3362      3361      3364      3365      3362      3361      3364      3366
      3362      3361      3364      3367      3363      3361      3364      3365
      3363      3361      3364      3366      3363      3361      3364      3367
      3364      3367      3370      3371      3364      3367      3370      3372
      3365      3364      3367      3368      3365      3364      3367      3369
      3365      3364      3367      3370      3366      3364      3367      3368
      3366      3364      3367      3369      3366      3364      3367      3370
      3367      3370      3372      3373      3367      3370      3372      3374
      3368      3367      3370      3371      3368      3367      3370      3372
      3369      3367      3370      3371      3369      3367      3370      3372
      3370      3372      3374      3375      3370      3372      3374      3376
      3370      3372      3374      3377      3371      3370      3372      3373
      3371      3370      3372      3374      3372      3374      3377      3378
      3372      3374      3377      3379      3372      3374      3377      3380
      3373      3372      3374      3375      3373      3372      3374      3376
      3373      3372      3374      3377      3374      3377      3380      3381
      3374      3377      3380      3382      3374      3377      3380      3383
      3375      3374      3377      3378      3375      3374      3377      3379
      3375      3374      3377      3380      3376      3374      3377      3378
      3376      3374      3377      3379      3376      3374      3377      3380
      3377      3380      3383      3384      3377      3380      3383      3385
      3377      3380      3383      3386      3378      3377      3380      3381
      3378      3377      3380      3382      3378      3377      3380      3383
      3379      3377      3380      3381      3379      3377      3380      3382
      3379      3377      3380      3383      3380      3383      3386      3387
      3380      3383      3386      3388      3380      3383      3386      3389
      3381      3380      3383      3384      3381      3380      3383      3385
      3381      3380      3383      3386      3382      3380      3383      3384
      3382      3380      3383      3385      3382      3380      3383      3386
      3383      3386      3389      3390      3383      3386      3389      3391
      3383      3386      3389      3392      3384      3383      3386      3387
      3384      3383      3386      3388      3384      3383      3386      3389
      3385      3383      3386      3387      3385      3383      3386      3388
      3385      3383      3386      3389      3386      3389      3392      3393
      3386      3389      3392      3394      3386      3389      3392      3395
      3387      3386      3389      3390      3387      3386      3389      3391
      3387      3386      3389      3392      3388      3386      3389      3390
      3388      3386      3389      3391      3388      3386      3389      3392
      3389      3392      3395      3396      3389      3392      3395      3397
      3389      3392      3395      3398      3390      3389      3392      3393
      3390      3389      3392      3394      3390      3389      3392      3395
      3391      3389      3392      3393      3391      3389      3392      3394
      3391      3389      3392      3395      3393      3392      3395      3396
      3393      3392      3395      3397      3393      3392      3395      3398
      3394      3392      3395      3396      3394      3392      3395      3397
      3394      3392      3395      3398      3399      3400      3415      3416
      3399      3400      3415      3417      3399      3400      3415      3421
      3400      3399      3403      3404      3400      3399      3403      3405
      3400      3399      3403      3406      3400      3399      3407      3408
      3400      3399      3407      3409      3400      3399      3407      3410
      3400      3399      3411      3412      3400      3399      3411      3413
      3400      3399      3411      3414      3400      3415      3421      3418
      3401      3400      3399      3403      3401      3400      3399      3407
      3401      3400      3399      3411      3401      3400      3415      3416
      3401      3400      3415      3417      3401      3400      3415      3421
      3402      3400      3399      3403      3402      3400      3399      3407
      3402      3400      3399      3411      3402      3400      3415      3416
      3402      3400      3415      3417      3402      3400      3415      3421
      3403      3399      3400      3415      3403      3399      3407      3408
      3403      3399      3407      3409      3403      3399      3407      3410
      3403      3399      3411      3412      3403      3399      3411      3413
      3403      3399      3411      3414      3404      3403      3399      3407
      3404      3403      3399      3411      3405      3403      3399      3407
      3405      3403      3399      3411      3406      3403      3399      3407
      3406      3403      3399      3411      3407      3399      3400      3415
      3407      3399      3411      3412      3407      3399      3411      3413
      3407      3399      3411      3414      3408      3407      3399      3411
      3409      3407      3399      3411      3410      3407      3399      3411
      3411      3399      3400      3415      3415      3421      3418      3419
      3415      3421      3418      3420      3415      3421      3418      3422
      3416      3415      3421      3418      3417      3415      3421      3418
      3418      3422      3423      3424      3418      3422      3423      3425
      3418      3422      3423      3426      3419      3418      3422      3423
      3420      3418      3422      3423      3421      3418      3422      3423
      3422      3423      3426      3427      3422      3423      3426      3428
      3422      3423      3426      3434      3423      3426      3428      3429
      3423      3426      3434      3435      3423      3426      3434      3436
      3423      3426      3434      3437      3424      3423      3426      3427
      3424      3423      3426      3428      3424      3423      3426      3434
      3425      3423      3426      3427      3425      3423      3426      3428
      3425      3423      3426      3434      3426      3428      3429      3430
      3426      3428      3429      3431      3426      3434      3437      3438
      3427      3426      3428      3429      3427      3426      3434      3435
      3427      3426      3434      3436      3427      3426      3434      3437
      3428      3426      3434      3435      3428      3426      3434      3436
      3428      3426      3434      3437      3428      3429      3431      3432
      3428      3429      3431      3433      3428      3429      3431      3443
      3429      3428      3426      3434      3429      3431      3443      3444
      3429      3431      3443      3445      3429      3431      3443      3446
      3430      3429      3431      3432      3430      3429      3431      3433
      3430      3429      3431      3443      3431      3443      3446      3447
      3431      3443      3446      3448      3431      3443      3446      3449
      3432      3431      3443      3444      3432      3431      3443      3445
      3432      3431      3443      3446      3433      3431      3443      3444
      3433      3431      3443      3445      3433      3431      3443      3446
      3434      3437      3438      3439      3434      3437      3438      3440
      3435      3434      3437      3438      3436      3434      3437      3438
      3437      3438      3440      3441      3437      3438      3440      3442
      3437      3438      3440      3490      3438      3440      3490      3491
      3438      3440      3490      3492      3438      3440      3490      3493
      3439      3438      3440      3441      3439      3438      3440      3442
      3439      3438      3440      3490      3440      3490      3493      3494
      3440      3490      3493      3495      3440      3490      3493      3496
      3441      3440      3490      3491      3441      3440      3490      3492
      3441      3440      3490      3493      3442      3440      3490      3491
      3442      3440      3490      3492      3442      3440      3490      3493
      3443      3446      3449      3450      3443      3446      3449      3451
      3443      3446      3449      3452      3444      3443      3446      3447
      3444      3443      3446      3448      3444      3443      3446      3449
      3445      3443      3446      3447      3445      3443      3446      3448
      3445      3443      3446      3449      3446      3449      3452      3453
      3446      3449      3452      3454      3446      3449      3452      3455
      3447      3446      3449      3450      3447      3446      3449      3451
      3447      3446      3449      3452      3448      3446      3449      3450
      3448      3446      3449      3451      3448      3446      3449      3452
      3449      3452      3455      3456      3449      3452      3455      3457
      3449      3452      3455      3458      3450      3449      3452      3453
      3450      3449      3452      3454      3450      3449      3452      3455
      3451      3449      3452      3453      3451      3449      3452      3454
      3451      3449      3452      3455      3452      3455      3458      3459
      3452      3455      3458      3460      3452      3455      3458      3461
      3453      3452      3455      3456      3453      3452      3455      3457
      3453      3452      3455      3458      3454      3452      3455      3456
      3454      3452      3455      3457      3454      3452      3455      3458
      3455      3458      3461      3462      3455      3458      3461      3463
      3456      3455      3458      3459      3456      3455      3458      3460
      3456      3455      3458      3461      3457      3455      3458      3459
      3457      3455      3458      3460      3457      3455      3458      3461
      3458      3461      3463      3464      3458      3461      3463      3465
      3459      3458      3461      3462      3459      3458      3461      3463
      3460      3458      3461      3462      3460      3458      3461      3463
      3461      3463      3465      3466      3461      3463      3465      3467
      3461      3463      3465      3468      3462      3461      3463      3464
      3462      3461      3463      3465      3463      3465      3468      3469
      3463      3465      3468      3470      3463      3465      3468      3471
      3464      3463      3465      3466      3464      3463      3465      3467
      3464      3463      3465      3468      3465      3468      3471      3472
      3465      3468      3471      3473      3465      3468      3471      3474
      3466      3465      3468      3469      3466      3465      3468      3470
      3466      3465      3468      3471      3467      3465      3468      3469
      3467      3465      3468      3470      3467      3465      3468      3471
      3468      3471      3474      3475      3468      3471      3474      3476
      3468      3471      3474      3477      3469      3468      3471      3472
      3469      3468      3471      3473      3469      3468      3471      3474
      3470      3468      3471      3472      3470      3468      3471      3473
      3470      3468      3471      3474      3471      3474      3477      3478
      3471      3474      3477      3479      3471      3474      3477      3480
      3472      3471      3474      3475      3472      3471      3474      3476
      3472      3471      3474      3477      3473      3471      3474      3475
      3473      3471      3474      3476      3473      3471      3474      3477
      3474      3477      3480      3481      3474      3477      3480      3482
      3474      3477      3480      3483      3475      3474      3477      3478
      3475      3474      3477      3479      3475      3474      3477      3480
      3476      3474      3477      3478      3476      3474      3477      3479
      3476      3474      3477      3480      3477      3480      3483      3484
      3477      3480      3483      3485      3477      3480      3483      3486
      3478      3477      3480      3481      3478      3477      3480      3482
      3478      3477      3480      3483      3479      3477      3480      3481
      3479      3477      3480      3482      3479      3477      3480      3483
      3480      3483      3486      3487      3480      3483      3486      3488
      3480      3483      3486      3489      3481      3480      3483      3484
      3481      3480      3483      3485      3481      3480      3483      3486
      3482      3480      3483      3484      3482      3480      3483      3485
      3482      3480      3483      3486      3484      3483      3486      3487
      3484      3483      3486      3488      3484      3483      3486      3489
      3485      3483      3486      3487      3485      3483      3486      3488
      3485      3483      3486      3489      3490      3493      3496      3497
      3490      3493      3496      3498      3490      3493      3496      3499
      3491      3490      3493      3494      3491      3490      3493      3495
      3491      3490      3493      3496      3492      3490      3493      3494
      3492      3490      3493      3495      3492      3490      3493      3496
      3493      3496      3499      3500      3493      3496      3499      3501
      3493      3496      3499      3502      3494      3493      3496      3497
      3494      3493      3496      3498      3494      3493      3496      3499
      3495      3493      3496      3497      3495      3493      3496      3498
      3495      3493      3496      3499      3496      3499      3502      3503
      3496      3499      3502      3504      3496      3499      3502      3505
      3497      3496      3499      3500      3497      3496      3499      3501
      3497      3496      3499      3502      3498      3496      3499      3500
      3498      3496      3499      3501      3498      3496      3499      3502
      3499      3502      3505      3506      3499      3502      3505      3507
      3499      3502      3505      3508      3500      3499      3502      3503
      3500      3499      3502      3504      3500      3499      3502      3505
      3501      3499      3502      3503      3501      3499      3502      3504
      3501      3499      3502      3505      3502      3505      3508      3509
      3502      3505      3508      3510      3503      3502      3505      3506
      3503      3502      3505      3507      3503      3502      3505      3508
      3504      3502      3505      3506      3504      3502      3505      3507
      3504      3502      3505      3508      3505      3508      3510      3511
      3505      3508      3510      3512      3506      3505      3508      3509
      3506      3505      3508      3510      3507      3505      3508      3509
      3507      3505      3508      3510      3508      3510      3512      3513
      3508      3510      3512      3514      3508      3510      3512      3515
      3509      3508      3510      3511      3509      3508      3510      3512
      3510      3512      3515      3516      3510      3512      3515      3517
      3510      3512      3515      3518      3511      3510      3512      3513
      3511      3510      3512      3514      3511      3510      3512      3515
      3512      3515      3518      3519      3512      3515      3518      3520
      3512      3515      3518      3521      3513      3512      3515      3516
      3513      3512      3515      3517      3513      3512      3515      3518
      3514      3512      3515      3516      3514      3512      3515      3517
      3514      3512      3515      3518      3515      3518      3521      3522
      3515      3518      3521      3523      3515      3518      3521      3524
      3516      3515      3518      3519      3516      3515      3518      3520
      3516      3515      3518      3521      3517      3515      3518      3519
      3517      3515      3518      3520      3517      3515      3518      3521
      3518      3521      3524      3525      3518      3521      3524      3526
      3518      3521      3524      3527      3519      3518      3521      3522
      3519      3518      3521      3523      3519      3518      3521      3524
      3520      3518      3521      3522      3520      3518      3521      3523
      3520      3518      3521      3524      3521      3524      3527      3528
      3521      3524      3527      3529      3521      3524      3527      3530
      3522      3521      3524      3525      3522      3521      3524      3526
      3522      3521      3524      3527      3523      3521      3524      3525
      3523      3521      3524      3526      3523      3521      3524      3527
      3524      3527      3530      3531      3524      3527      3530      3532
      3524      3527      3530      3533      3525      3524      3527      3528
      3525      3524      3527      3529      3525      3524      3527      3530
      3526      3524      3527      3528      3526      3524      3527      3529
      3526      3524      3527      3530      3527      3530      3533      3534
      3527      3530      3533      3535      3527      3530      3533      3536
      3528      3527      3530      3531      3528      3527      3530      3532
      3528      3527      3530      3533      3529      3527      3530      3531
      3529      3527      3530      3532      3529      3527      3530      3533
      3531      3530      3533      3534      3531      3530      3533      3535
      3531      3530      3533      3536      3532      3530      3533      3534
      3532      3530      3533      3535      3532      3530      3533      3536
      3537      3538      3553      3554      3537      3538      3553      3555
      3537      3538      3553      3559      3538      3537      3541      3542
      3538      3537      3541      3543      3538      3537      3541      3544
      3538      3537      3545      3546      3538      3537      3545      3547
      3538      3537      3545      3548      3538      3537      3549      3550
      3538      3537      3549      3551      3538      3537      3549      3552
      3538      3553      3559      3556      3539      3538      3537      3541
      3539      3538      3537      3545      3539      3538      3537      3549
      3539      3538      3553      3554      3539      3538      3553      3555
      3539      3538      3553      3559      3540      3538      3537      3541
      3540      3538      3537      3545      3540      3538      3537      3549
      3540      3538      3553      3554      3540      3538      3553      3555
      3540      3538      3553      3559      3541      3537      3538      3553
      3541      3537      3545      3546      3541      3537      3545      3547
      3541      3537      3545      3548      3541      3537      3549      3550
      3541      3537      3549      3551      3541      3537      3549      3552
      3542      3541      3537      3545      3542      3541      3537      3549
      3543      3541      3537      3545      3543      3541      3537      3549
      3544      3541      3537      3545      3544      3541      3537      3549
      3545      3537      3538      3553      3545      3537      3549      3550
      3545      3537      3549      3551      3545      3537      3549      3552
      3546      3545      3537      3549      3547      3545      3537      3549
      3548      3545      3537      3549      3549      3537      3538      3553
      3553      3559      3556      3557      3553      3559      3556      3558
      3553      3559      3556      3560      3554      3553      3559      3556
      3555      3553      3559      3556      3556      3560      3561      3562
      3556      3560      3561      3563      3556      3560      3561      3564
      3557      3556      3560      3561      3558      3556      3560      3561
      3559      3556      3560      3561      3560      3561      3564      3565
      3560      3561      3564      3566      3560      3561      3564      3572
      3561      3564      3566      3567      3561      3564      3572      3573
      3561      3564      3572      3574      3561      3564      3572      3575
      3562      3561      3564      3565      3562      3561      3564      3566
      3562      3561      3564      3572      3563      3561      3564      3565
      3563      3561      3564      3566      3563      3561      3564      3572
      3564      3566      3567      3568      3564      3566      3567      3569
      3564      3572      3575      3576      3565      3564      3566      3567
      3565      3564      3572      3573      3565      3564      3572      3574
      3565      3564      3572      3575      3566      3564      3572      3573
      3566      3564      3572      3574      3566      3564      3572      3575
      3566      3567      3569      3570      3566      3567      3569      3571
      3566      3567      3569      3581      3567      3566      3564      3572
      3567      3569      3581      3582      3567      3569      3581      3583
      3567      3569      3581      3584      3568      3567      3569      3570
      3568      3567      3569      3571      3568      3567      3569      3581
      3569      3581      3584      3585      3569      3581      3584      3586
      3569      3581      3584      3587      3570      3569      3581      3582
      3570      3569      3581      3583      3570      3569      3581      3584
      3571      3569      3581      3582      3571      3569      3581      3583
      3571      3569      3581      3584      3572      3575      3576      3577
      3572      3575      3576      3578      3573      3572      3575      3576
      3574      3572      3575      3576      3575      3576      3578      3579
      3575      3576      3578      3580      3575      3576      3578      3628
      3576      3578      3628      3629      3576      3578      3628      3630
      3576      3578      3628      3631      3577      3576      3578      3579
      3577      3576      3578      3580      3577      3576      3578      3628
      3578      3628      3631      3632      3578      3628      3631      3633
      3578      3628      3631      3634      3579      3578      3628      3629
      3579      3578      3628      3630      3579      3578      3628      3631
      3580      3578      3628      3629      3580      3578      3628      3630
      3580      3578      3628      3631      3581      3584      3587      3588
      3581      3584      3587      3589      3581      3584      3587      3590
      3582      3581      3584      3585      3582      3581      3584      3586
      3582      3581      3584      3587      3583      3581      3584      3585
      3583      3581      3584      3586      3583      3581      3584      3587
      3584      3587      3590      3591      3584      3587      3590      3592
      3584      3587      3590      3593      3585      3584      3587      3588
      3585      3584      3587      3589      3585      3584      3587      3590
      3586      3584      3587      3588      3586      3584      3587      3589
      3586      3584      3587      3590      3587      3590      3593      3594
      3587      3590      3593      3595      3587      3590      3593      3596
      3588      3587      3590      3591      3588      3587      3590      3592
      3588      3587      3590      3593      3589      3587      3590      3591
      3589      3587      3590      3592      3589      3587      3590      3593
      3590      3593      3596      3597      3590      3593      3596      3598
      3590      3593      3596      3599      3591      3590      3593      3594
      3591      3590      3593      3595      3591      3590      3593      3596
      3592      3590      3593      3594      3592      3590      3593      3595
      3592      3590      3593      3596      3593      3596      3599      3600
      3593      3596      3599      3601      3594      3593      3596      3597
      3594      3593      3596      3598      3594      3593      3596      3599
      3595      3593      3596      3597      3595      3593      3596      3598
      3595      3593      3596      3599      3596      3599      3601      3602
      3596      3599      3601      3603      3597      3596      3599      3600
      3597      3596      3599      3601      3598      3596      3599      3600
      3598      3596      3599      3601      3599      3601      3603      3604
      3599      3601      3603      3605      3599      3601      3603      3606
      3600      3599      3601      3602      3600      3599      3601      3603
      3601      3603      3606      3607      3601      3603      3606      3608
      3601      3603      3606      3609      3602      3601      3603      3604
      3602      3601      3603      3605      3602      3601      3603      3606
      3603      3606      3609      3610      3603      3606      3609      3611
      3603      3606      3609      3612      3604      3603      3606      3607
      3604      3603      3606      3608      3604      3603      3606      3609
      3605      3603      3606      3607      3605      3603      3606      3608
      3605      3603      3606      3609      3606      3609      3612      3613
      3606      3609      3612      3614      3606      3609      3612      3615
      3607      3606      3609      3610      3607      3606      3609      3611
      3607      3606      3609      3612      3608      3606      3609      3610
      3608      3606      3609      3611      3608      3606      3609      3612
      3609      3612      3615      3616      3609      3612      3615      3617
      3609      3612      3615      3618      3610      3609      3612      3613
      3610      3609      3612      3614      3610      3609      3612      3615
      3611      3609      3612      3613      3611      3609      3612      3614
      3611      3609      3612      3615      3612      3615      3618      3619
      3612      3615      3618      3620      3612      3615      3618      3621
      3613      3612      3615      3616      3613      3612      3615      3617
      3613      3612      3615      3618      3614      3612      3615      3616
      3614      3612      3615      3617      3614      3612      3615      3618
      3615      3618      3621      3622      3615      3618      3621      3623
      3615      3618      3621      3624      3616      3615      3618      3619
      3616      3615      3618      3620      3616      3615      3618      3621
      3617      3615      3618      3619      3617      3615      3618      3620
      3617      3615      3618      3621      3618      3621      3624      3625
      3618      3621      3624      3626      3618      3621      3624      3627
      3619      3618      3621      3622      3619      3618      3621      3623
      3619      3618      3621      3624      3620      3618      3621      3622
      3620      3618      3621      3623      3620      3618      3621      3624
      3622      3621      3624      3625      3622      3621      3624      3626
      3622      3621      3624      3627      3623      3621      3624      3625
      3623      3621      3624      3626      3623      3621      3624      3627
      3628      3631      3634      3635      3628      3631      3634      3636
      3628      3631      3634      3637      3629      3628      3631      3632
      3629      3628      3631      3633      3629      3628      3631      3634
      3630      3628      3631      3632      3630      3628      3631      3633
      3630      3628      3631      3634      3631      3634      3637      3638
      3631      3634      3637      3639      3631      3634      3637      3640
      3632      3631      3634      3635      3632      3631      3634      3636
      3632      3631      3634      3637      3633      3631      3634      3635
      3633      3631      3634      3636      3633      3631      3634      3637
      3634      3637      3640      3641      3634      3637      3640      3642
      3634      3637      3640      3643      3635      3634      3637      3638
      3635      3634      3637      3639      3635      3634      3637      3640
      3636      3634      3637      3638      3636      3634      3637      3639
      3636      3634      3637      3640      3637      3640      3643      3644
      3637      3640      3643      3645      3637      3640      3643      3646
      3638      3637      3640      3641      3638      3637      3640      3642
      3638      3637      3640      3643      3639      3637      3640      3641
      3639      3637      3640      3642      3639      3637      3640      3643
      3640      3643      3646      3647      3640      3643      3646      3648
      3641      3640      3643      3644      3641      3640      3643      3645
      3641      3640      3643      3646      3642      3640      3643      3644
      3642      3640      3643      3645      3642      3640      3643      3646
      3643      3646      3648      3649      3643      3646      3648      3650
      3644      3643      3646      3647      3644      3643      3646      3648
      3645      3643      3646      3647      3645      3643      3646      3648
      3646      3648      3650      3651      3646      3648      3650      3652
      3646      3648      3650      3653      3647      3646      3648      3649
      3647      3646      3648      3650      3648      3650      3653      3654
      3648      3650      3653      3655      3648      3650      3653      3656
      3649      3648      3650      3651      3649      3648      3650      3652
      3649      3648      3650      3653      3650      3653      3656      3657
      3650      3653      3656      3658      3650      3653      3656      3659
      3651      3650      3653      3654      3651      3650      3653      3655
      3651      3650      3653      3656      3652      3650      3653      3654
      3652      3650      3653      3655      3652      3650      3653      3656
      3653      3656      3659      3660      3653      3656      3659      3661
      3653      3656      3659      3662      3654      3653      3656      3657
      3654      3653      3656      3658      3654      3653      3656      3659
      3655      3653      3656      3657      3655      3653      3656      3658
      3655      3653      3656      3659      3656      3659      3662      3663
      3656      3659      3662      3664      3656      3659      3662      3665
      3657      3656      3659      3660      3657      3656      3659      3661
      3657      3656      3659      3662      3658      3656      3659      3660
      3658      3656      3659      3661      3658      3656      3659      3662
      3659      3662      3665      3666      3659      3662      3665      3667
      3659      3662      3665      3668      3660      3659      3662      3663
      3660      3659      3662      3664      3660      3659      3662      3665
      3661      3659      3662      3663      3661      3659      3662      3664
      3661      3659      3662      3665      3662      3665      3668      3669
      3662      3665      3668      3670      3662      3665      3668      3671
      3663      3662      3665      3666      3663      3662      3665      3667
      3663      3662      3665      3668      3664      3662      3665      3666
      3664      3662      3665      3667      3664      3662      3665      3668
      3665      3668      3671      3672      3665      3668      3671      3673
      3665      3668      3671      3674      3666      3665      3668      3669
      3666      3665      3668      3670      3666      3665      3668      3671
      3667      3665      3668      3669      3667      3665      3668      3670
      3667      3665      3668      3671      3669      3668      3671      3672
      3669      3668      3671      3673      3669      3668      3671      3674
      3670      3668      3671      3672      3670      3668      3671      3673
      3670      3668      3671      3674      3675      3676      3691      3692
      3675      3676      3691      3693      3675      3676      3691      3697
      3676      3675      3679      3680      3676      3675      3679      3681
      3676      3675      3679      3682      3676      3675      3683      3684
      3676      3675      3683      3685      3676      3675      3683      3686
      3676      3675      3687      3688      3676      3675      3687      3689
      3676      3675      3687      3690      3676      3691      3697      3694
      3677      3676      3675      3679      3677      3676      3675      3683
      3677      3676      3675      3687      3677      3676      3691      3692
      3677      3676      3691      3693      3677      3676      3691      3697
      3678      3676      3675      3679      3678      3676      3675      3683
      3678      3676      3675      3687      3678      3676      3691      3692
      3678      3676      3691      3693      3678      3676      3691      3697
      3679      3675      3676      3691      3679      3675      3683      3684
      3679      3675      3683      3685      3679      3675      3683      3686
      3679      3675      3687      3688      3679      3675      3687      3689
      3679      3675      3687      3690      3680      3679      3675      3683
      3680      3679      3675      3687      3681      3679      3675      3683
      3681      3679      3675      3687      3682      3679      3675      3683
      3682      3679      3675      3687      3683      3675      3676      3691
      3683      3675      3687      3688      3683      3675      3687      3689
      3683      3675      3687      3690      3684      3683      3675      3687
      3685      3683      3675      3687      3686      3683      3675      3687
      3687      3675      3676      3691      3691      3697      3694      3695
      3691      3697      3694      3696      3691      3697      3694      3698
      3692      3691      3697      3694      3693      3691      3697      3694
      3694      3698      3699      3700      3694      3698      3699      3701
      3694      3698      3699      3702      3695      3694      3698      3699
      3696      3694      3698      3699      3697      3694      3698      3699
      3698      3699      3702      3703      3698      3699      3702      3704
      3698      3699      3702      3710      3699      3702      3704      3705
      3699      3702      3710      3711      3699      3702      3710      3712
      3699      3702      3710      3713      3700      3699      3702      3703
      3700      3699      3702      3704      3700      3699      3702      3710
      3701      3699      3702      3703      3701      3699      3702      3704
      3701      3699      3702      3710      3702      3704      3705      3706
      3702      3704      3705      3707      3702      3710      3713      3714
      3703      3702      3704      3705      3703      3702      3710      3711
      3703      3702      3710      3712      3703      3702      3710      3713
      3704      3702      3710      3711      3704      3702      3710      3712
      3704      3702      3710      3713      3704      3705      3707      3708
      3704      3705      3707      3709      3704      3705      3707      3719
      3705      3704      3702      3710      3705      3707      3719      3720
      3705      3707      3719      3721      3705      3707      3719      3722
      3706      3705      3707      3708      3706      3705      3707      3709
      3706      3705      3707      3719      3707      3719      3722      3723
      3707      3719      3722      3724      3707      3719      3722      3725
      3708      3707      3719      3720      3708      3707      3719      3721
      3708      3707      3719      3722      3709      3707      3719      3720
      3709      3707      3719      3721      3709      3707      3719      3722
      3710      3713      3714      3715      3710      3713      3714      3716
      3711      3710      3713      3714      3712      3710      3713      3714
      3713      3714      3716      3717      3713      3714      3716      3718
      3713      3714      3716      3766      3714      3716      3766      3767
      3714      3716      3766      3768      3714      3716      3766      3769
      3715      3714      3716      3717      3715      3714      3716      3718
      3715      3714      3716      3766      3716      3766      3769      3770
      3716      3766      3769      3771      3716      3766      3769      3772
      3717      3716      3766      3767      3717      3716      3766      3768
      3717      3716      3766      3769      3718      3716      3766      3767
      3718      3716      3766      3768      3718      3716      3766      3769
      3719      3722      3725      3726      3719      3722      3725      3727
      3719      3722      3725      3728      3720      3719      3722      3723
      3720      3719      3722      3724      3720      3719      3722      3725
      3721      3719      3722      3723      3721      3719      3722      3724
      3721      3719      3722      3725      3722      3725      3728      3729
      3722      3725      3728      3730      3722      3725      3728      3731
      3723      3722      3725      3726      3723      3722      3725      3727
      3723      3722      3725      3728      3724      3722      3725      3726
      3724      3722      3725      3727      3724      3722      3725      3728
      3725      3728      3731      3732      3725      3728      3731      3733
      3725      3728      3731      3734      3726      3725      3728      3729
      3726      3725      3728      3730      3726      3725      3728      3731
      3727      3725      3728      3729      3727      3725      3728      3730
      3727      3725      3728      3731      3728      3731      3734      3735
      3728      3731      3734      3736      3728      3731      3734      3737
      3729      3728      3731      3732      3729      3728      3731      3733
      3729      3728      3731      3734      3730      3728      3731      3732
      3730      3728      3731      3733      3730      3728      3731      3734
      3731      3734      3737      3738      3731      3734      3737      3739
      3732      3731      3734      3735      3732      3731      3734      3736
      3732      3731      3734      3737      3733      3731      3734      3735
      3733      3731      3734      3736      3733      3731      3734      3737
      3734      3737      3739      3740      3734      3737      3739      3741
      3735      3734      3737      3738      3735      3734      3737      3739
      3736      3734      3737      3738      3736      3734      3737      3739
      3737      3739      3741      3742      3737      3739      3741      3743
      3737      3739      3741      3744      3738      3737      3739      3740
      3738      3737      3739      3741      3739      3741      3744      3745
      3739      3741      3744      3746      3739      3741      3744      3747
      3740      3739      3741      3742      3740      3739      3741      3743
      3740      3739      3741      3744      3741      3744      3747      3748
      3741      3744      3747      3749      3741      3744      3747      3750
      3742      3741      3744      3745      3742      3741      3744      3746
      3742      3741      3744      3747      3743      3741      3744      3745
      3743      3741      3744      3746      3743      3741      3744      3747
      3744      3747      3750      3751      3744      3747      3750      3752
      3744      3747      3750      3753      3745      3744      3747      3748
      3745      3744      3747      3749      3745      3744      3747      3750
      3746      3744      3747      3748      3746      3744      3747      3749
      3746      3744      3747      3750      3747      3750      3753      3754
      3747      3750      3753      3755      3747      3750      3753      3756
      3748      3747      3750      3751      3748      3747      3750      3752
      3748      3747      3750      3753      3749      3747      3750      3751
      3749      3747      3750      3752      3749      3747      3750      3753
      3750      3753      3756      3757      3750      3753      3756      3758
      3750      3753      3756      3759      3751      3750      3753      3754
      3751      3750      3753      3755      3751      3750      3753      3756
      3752      3750      3753      3754      3752      3750      3753      3755
      3752      3750      3753      3756      3753      3756      3759      3760
      3753      3756      3759      3761      3753      3756      3759      3762
      3754      3753      3756      3757      3754      3753      3756      3758
      3754      3753      3756      3759      3755      3753      3756      3757
      3755      3753      3756      3758      3755      3753      3756      3759
      3756      3759      3762      3763      3756      3759      3762      3764
      3756      3759      3762      3765      3757      3756      3759      3760
      3757      3756      3759      3761      3757      3756      3759      3762
      3758      3756      3759      3760      3758      3756      3759      3761
      3758      3756      3759      3762      3760      3759      3762      3763
      3760      3759      3762      3764      3760      3759      3762      3765
      3761      3759      3762      3763      3761      3759      3762      3764
      3761      3759      3762      3765      3766      3769      3772      3773
      3766      3769      3772      3774      3766      3769      3772      3775
      3767      3766      3769      3770      3767      3766      3769      3771
      3767      3766      3769      3772      3768      3766      3769      3770
      3768      3766      3769      3771      3768      3766      3769      3772
      3769      3772      3775      3776      3769      3772      3775      3777
      3769      3772      3775      3778      3770      3769      3772      3773
      3770      3769      3772      3774      3770      3769      3772      3775
      3771      3769      3772      3773      3771      3769      3772      3774
      3771      3769      3772      3775      3772      3775      3778      3779
      3772      3775      3778      3780      3772      3775      3778      3781
      3773      3772      3775      3776      3773      3772      3775      3777
      3773      3772      3775      3778      3774      3772      3775      3776
      3774      3772      3775      3777      3774      3772      3775      3778
      3775      3778      3781      3782      3775      3778      3781      3783
      3775      3778      3781      3784      3776      3775      3778      3779
      3776      3775      3778      3780      3776      3775      3778      3781
      3777      3775      3778      3779      3777      3775      3778      3780
      3777      3775      3778      3781      3778      3781      3784      3785
      3778      3781      3784      3786      3779      3778      3781      3782
      3779      3778      3781      3783      3779      3778      3781      3784
      3780      3778      3781      3782      3780      3778      3781      3783
      3780      3778      3781      3784      3781      3784      3786      3787
      3781      3784      3786      3788      3782      3781      3784      3785
      3782      3781      3784      3786      3783      3781      3784      3785
      3783      3781      3784      3786      3784      3786      3788      3789
      3784      3786      3788      3790      3784      3786      3788      3791
      3785      3784      3786      3787      3785      3784      3786      3788
      3786      3788      3791      3792      3786      3788      3791      3793
      3786      3788      3791      3794      3787      3786      3788      3789
      3787      3786      3788      3790      3787      3786      3788      3791
      3788      3791      3794      3795      3788      3791      3794      3796
      3788      3791      3794      3797      3789      3788      3791      3792
      3789      3788      3791      3793      3789      3788      3791      3794
      3790      3788      3791      3792      3790      3788      3791      3793
      3790      3788      3791      3794      3791      3794      3797      3798
      3791      3794      3797      3799      3791      3794      3797      3800
      3792      3791      3794      3795      3792      3791      3794      3796
      3792      3791      3794      3797      3793      3791      3794      3795
      3793      3791      3794      3796      3793      3791      3794      3797
      3794      3797      3800      3801      3794      3797      3800      3802
      3794      3797      3800      3803      3795      3794      3797      3798
      3795      3794      3797      3799      3795      3794      3797      3800
      3796      3794      3797      3798      3796      3794      3797      3799
      3796      3794      3797      3800      3797      3800      3803      3804
      3797      3800      3803      3805      3797      3800      3803      3806
      3798      3797      3800      3801      3798      3797      3800      3802
      3798      3797      3800      3803      3799      3797      3800      3801
      3799      3797      3800      3802      3799      3797      3800      3803
      3800      3803      3806      3807      3800      3803      3806      3808
      3800      3803      3806      3809      3801      3800      3803      3804
      3801      3800      3803      3805      3801      3800      3803      3806
      3802      3800      3803      3804      3802      3800      3803      3805
      3802      3800      3803      3806      3803      3806      3809      3810
      3803      3806      3809      3811      3803      3806      3809      3812
      3804      3803      3806      3807      3804      3803      3806      3808
      3804      3803      3806      3809      3805      3803      3806      3807
      3805      3803      3806      3808      3805      3803      3806      3809
      3807      3806      3809      3810      3807      3806      3809      3811
      3807      3806      3809      3812      3808      3806      3809      3810
      3808      3806      3809      3811      3808      3806      3809      3812
      3813      3814      3829      3830      3813      3814      3829      3831
      3813      3814      3829      3835      3814      3813      3817      3818
      3814      3813      3817      3819      3814      3813      3817      3820
      3814      3813      3821      3822      3814      3813      3821      3823
      3814      3813      3821      3824      3814      3813      3825      3826
      3814      3813      3825      3827      3814      3813      3825      3828
      3814      3829      3835      3832      3815      3814      3813      3817
      3815      3814      3813      3821      3815      3814      3813      3825
      3815      3814      3829      3830      3815      3814      3829      3831
      3815      3814      3829      3835      3816      3814      3813      3817
      3816      3814      3813      3821      3816      3814      3813      3825
      3816      3814      3829      3830      3816      3814      3829      3831
      3816      3814      3829      3835      3817      3813      3814      3829
      3817      3813      3821      3822      3817      3813      3821      3823
      3817      3813      3821      3824      3817      3813      3825      3826
      3817      3813      3825      3827      3817      3813      3825      3828
      3818      3817      3813      3821      3818      3817      3813      3825
      3819      3817      3813      3821      3819      3817      3813      3825
      3820      3817      3813      3821      3820      3817      3813      3825
      3821      3813      3814      3829      3821      3813      3825      3826
      3821      3813      3825      3827      3821      3813      3825      3828
      3822      3821      3813      3825      3823      3821      3813      3825
      3824      3821      3813      3825      3825      3813      3814      3829
      3829      3835      3832      3833      3829      3835      3832      3834
      3829      3835      3832      3836      3830      3829      3835      3832
      3831      3829      3835      3832      3832      3836      3837      3838
      3832      3836      3837      3839      3832      3836      3837      3840
      3833      3832      3836      3837      3834      3832      3836      3837
      3835      3832      3836      3837      3836      3837      3840      3841
      3836      3837      3840      3842      3836      3837      3840      3848
      3837      3840      3842      3843      3837      3840      3848      3849
      3837      3840      3848      3850      3837      3840      3848      3851
      3838      3837      3840      3841      3838      3837      3840      3842
      3838      3837      3840      3848      3839      3837      3840      3841
      3839      3837      3840      3842      3839      3837      3840      3848
      3840      3842      3843      3844      3840      3842      3843      3845
      3840      3848      3851      3852      3841      3840      3842      3843
      3841      3840      3848      3849      3841      3840      3848      3850
      3841      3840      3848      3851      3842      3840      3848      3849
      3842      3840      3848      3850      3842      3840      3848      3851
      3842      3843      3845      3846      3842      3843      3845      3847
      3842      3843      3845      3857      3843      3842      3840      3848
      3843      3845      3857      3858      3843      3845      3857      3859
      3843      3845      3857      3860      3844      3843      3845      3846
      3844      3843      3845      3847      3844      3843      3845      3857
      3845      3857      3860      3861      3845      3857      3860      3862
      3845      3857      3860      3863      3846      3845      3857      3858
      3846      3845      3857      3859      3846      3845      3857      3860
      3847      3845      3857      3858      3847      3845      3857      3859
      3847      3845      3857      3860      3848      3851      3852      3853
      3848      3851      3852      3854      3849      3848      3851      3852
      3850      3848      3851      3852      3851      3852      3854      3855
      3851      3852      3854      3856      3851      3852      3854      3904
      3852      3854      3904      3905      3852      3854      3904      3906
      3852      3854      3904      3907      3853      3852      3854      3855
      3853      3852      3854      3856      3853      3852      3854      3904
      3854      3904      3907      3908      3854      3904      3907      3909
      3854      3904      3907      3910      3855      3854      3904      3905
      3855      3854      3904      3906      3855      3854      3904      3907
      3856      3854      3904      3905      3856      3854      3904      3906
      3856      3854      3904      3907      3857      3860      3863      3864
      3857      3860      3863      3865      3857      3860      3863      3866
      3858      3857      3860      3861      3858      3857      3860      3862
      3858      3857      3860      3863      3859      3857      3860      3861
      3859      3857      3860      3862      3859      3857      3860      3863
      3860      3863      3866      3867      3860      3863      3866      3868
      3860      3863      3866      3869      3861      3860      3863      3864
      3861      3860      3863      3865      3861      3860      3863      3866
      3862      3860      3863      3864      3862      3860      3863      3865
      3862      3860      3863      3866      3863      3866      3869      3870
      3863      3866      3869      3871      3863      3866      3869      3872
      3864      3863      3866      3867      3864      3863      3866      3868
      3864      3863      3866      3869      3865      3863      3866      3867
      3865      3863      3866      3868      3865      3863      3866      3869
      3866      3869      3872      3873      3866      3869      3872      3874
      3866      3869      3872      3875      3867      3866      3869      3870
      3867      3866      3869      3871      3867      3866      3869      3872
      3868      3866      3869      3870      3868      3866      3869      3871
      3868      3866      3869      3872      3869      3872      3875      3876
      3869      3872      3875      3877      3870      3869      3872      3873
      3870      3869      3872      3874      3870      3869      3872      3875
      3871      3869      3872      3873      3871      3869      3872      3874
      3871      3869      3872      3875      3872      3875      3877      3878
      3872      3875      3877      3879      3873      3872      3875      3876
      3873      3872      3875      3877      3874      3872      3875      3876
      3874      3872      3875      3877      3875      3877      3879      3880
      3875      3877      3879      3881      3875      3877      3879      3882
      3876      3875      3877      3878      3876      3875      3877      3879
      3877      3879      3882      3883      3877      3879      3882      3884
      3877      3879      3882      3885      3878      3877      3879      3880
      3878      3877      3879      3881      3878      3877      3879      3882
      3879      3882      3885      3886      3879      3882      3885      3887
      3879      3882      3885      3888      3880      3879      3882      3883
      3880      3879      3882      3884      3880      3879      3882      3885
      3881      3879      3882      3883      3881      3879      3882      3884
      3881      3879      3882      3885      3882      3885      3888      3889
      3882      3885      3888      3890      3882      3885      3888      3891
      3883      3882      3885      3886      3883      3882      3885      3887
      3883      3882      3885      3888      3884      3882      3885      3886
      3884      3882      3885      3887      3884      3882      3885      3888
      3885      3888      3891      3892      3885      3888      3891      3893
      3885      3888      3891      3894      3886      3885      3888      3889
      3886      3885      3888      3890      3886      3885      3888      3891
      3887      3885      3888      3889      3887      3885      3888      3890
      3887      3885      3888      3891      3888      3891      3894      3895
      3888      3891      3894      3896      3888      3891      3894      3897
      3889      3888      3891      3892      3889      3888      3891      3893
      3889      3888      3891      3894      3890      3888      3891      3892
      3890      3888      3891      3893      3890      3888      3891      3894
      3891      3894      3897      3898      3891      3894      3897      3899
      3891      3894      3897      3900      3892      3891      3894      3895
      3892      3891      3894      3896      3892      3891      3894      3897
      3893      3891      3894      3895      3893      3891      3894      3896
      3893      3891      3894      3897      3894      3897      3900      3901
      3894      3897      3900      3902      3894      3897      3900      3903
      3895      3894      3897      3898      3895      3894      3897      3899
      3895      3894      3897      3900      3896      3894      3897      3898
      3896      3894      3897      3899      3896      3894      3897      3900
      3898      3897      3900      3901      3898      3897      3900      3902
      3898      3897      3900      3903      3899      3897      3900      3901
      3899      3897      3900      3902      3899      3897      3900      3903
      3904      3907      3910      3911      3904      3907      3910      3912
      3904      3907      3910      3913      3905      3904      3907      3908
      3905      3904      3907      3909      3905      3904      3907      3910
      3906      3904      3907      3908      3906      3904      3907      3909
      3906      3904      3907      3910      3907      3910      3913      3914
      3907      3910      3913      3915      3907      3910      3913      3916
      3908      3907      3910      3911      3908      3907      3910      3912
      3908      3907      3910      3913      3909      3907      3910      3911
      3909      3907      3910      3912      3909      3907      3910      3913
      3910      3913      3916      3917      3910      3913      3916      3918
      3910      3913      3916      3919      3911      3910      3913      3914
      3911      3910      3913      3915      3911      3910      3913      3916
      3912      3910      3913      3914      3912      3910      3913      3915
      3912      3910      3913      3916      3913      3916      3919      3920
      3913      3916      3919      3921      3913      3916      3919      3922
      3914      3913      3916      3917      3914      3913      3916      3918
      3914      3913      3916      3919      3915      3913      3916      3917
      3915      3913      3916      3918      3915      3913      3916      3919
      3916      3919      3922      3923      3916      3919      3922      3924
      3917      3916      3919      3920      3917      3916      3919      3921
      3917      3916      3919      3922      3918      3916      3919      3920
      3918      3916      3919      3921      3918      3916      3919      3922
      3919      3922      3924      3925      3919      3922      3924      3926
      3920      3919      3922      3923      3920      3919      3922      3924
      3921      3919      3922      3923      3921      3919      3922      3924
      3922      3924      3926      3927      3922      3924      3926      3928
      3922      3924      3926      3929      3923      3922      3924      3925
      3923      3922      3924      3926      3924      3926      3929      3930
      3924      3926      3929      3931      3924      3926      3929      3932
      3925      3924      3926      3927      3925      3924      3926      3928
      3925      3924      3926      3929      3926      3929      3932      3933
      3926      3929      3932      3934      3926      3929      3932      3935
      3927      3926      3929      3930      3927      3926      3929      3931
      3927      3926      3929      3932      3928      3926      3929      3930
      3928      3926      3929      3931      3928      3926      3929      3932
      3929      3932      3935      3936      3929      3932      3935      3937
      3929      3932      3935      3938      3930      3929      3932      3933
      3930      3929      3932      3934      3930      3929      3932      3935
      3931      3929      3932      3933      3931      3929      3932      3934
      3931      3929      3932      3935      3932      3935      3938      3939
      3932      3935      3938      3940      3932      3935      3938      3941
      3933      3932      3935      3936      3933      3932      3935      3937
      3933      3932      3935      3938      3934      3932      3935      3936
      3934      3932      3935      3937      3934      3932      3935      3938
      3935      3938      3941      3942      3935      3938      3941      3943
      3935      3938      3941      3944      3936      3935      3938      3939
      3936      3935      3938      3940      3936      3935      3938      3941
      3937      3935      3938      3939      3937      3935      3938      3940
      3937      3935      3938      3941      3938      3941      3944      3945
      3938      3941      3944      3946      3938      3941      3944      3947
      3939      3938      3941      3942      3939      3938      3941      3943
      3939      3938      3941      3944      3940      3938      3941      3942
      3940      3938      3941      3943      3940      3938      3941      3944
      3941      3944      3947      3948      3941      3944      3947      3949
      3941      3944      3947      3950      3942      3941      3944      3945
      3942      3941      3944      3946      3942      3941      3944      3947
      3943      3941      3944      3945      3943      3941      3944      3946
      3943      3941      3944      3947      3945      3944      3947      3948
      3945      3944      3947      3949      3945      3944      3947      3950
      3946      3944      3947      3948      3946      3944      3947      3949
      3946      3944      3947      3950      3951      3952      3967      3968
      3951      3952      3967      3969      3951      3952      3967      3973
      3952      3951      3955      3956      3952      3951      3955      3957
      3952      3951      3955      3958      3952      3951      3959      3960
      3952      3951      3959      3961      3952      3951      3959      3962
      3952      3951      3963      3964      3952      3951      3963      3965
      3952      3951      3963      3966      3952      3967      3973      3970
      3953      3952      3951      3955      3953      3952      3951      3959
      3953      3952      3951      3963      3953      3952      3967      3968
      3953      3952      3967      3969      3953      3952      3967      3973
      3954      3952      3951      3955      3954      3952      3951      3959
      3954      3952      3951      3963      3954      3952      3967      3968
      3954      3952      3967      3969      3954      3952      3967      3973
      3955      3951      3952      3967      3955      3951      3959      3960
      3955      3951      3959      3961      3955      3951      3959      3962
      3955      3951      3963      3964      3955      3951      3963      3965
      3955      3951      3963      3966      3956      3955      3951      3959
      3956      3955      3951      3963      3957      3955      3951      3959
      3957      3955      3951      3963      3958      3955      3951      3959
      3958      3955      3951      3963      3959      3951      3952      3967
      3959      3951      3963      3964      3959      3951      3963      3965
      3959      3951      3963      3966      3960      3959      3951      3963
      3961      3959      3951      3963      3962      3959      3951      3963
      3963      3951      3952      3967      3967      3973      3970      3971
      3967      3973      3970      3972      3967      3973      3970      3974
      3968      3967      3973      3970      3969      3967      3973      3970
      3970      3974      3975      3976      3970      3974      3975      3977
      3970      3974      3975      3978      3971      3970      3974      3975
      3972      3970      3974      3975      3973      3970      3974      3975
      3974      3975      3978      3979      3974      3975      3978      3980
      3974      3975      3978      3986      3975      3978      3980      3981
      3975      3978      3986      3987      3975      3978      3986      3988
      3975      3978      3986      3989      3976      3975      3978      3979
      3976      3975      3978      3980      3976      3975      3978      3986
      3977      3975      3978      3979      3977      3975      3978      3980
      3977      3975      3978      3986      3978      3980      3981      3982
      3978      3980      3981      3983      3978      3986      3989      3990
      3979      3978      3980      3981      3979      3978      3986      3987
      3979      3978      3986      3988      3979      3978      3986      3989
      3980      3978      3986      3987      3980      3978      3986      3988
      3980      3978      3986      3989      3980      3981      3983      3984
      3980      3981      3983      3985      3980      3981      3983      3995
      3981      3980      3978      3986      3981      3983      3995      3996
      3981      3983      3995      3997      3981      3983      3995      3998
      3982      3981      3983      3984      3982      3981      3983      3985
      3982      3981      3983      3995      3983      3995      3998      3999
      3983      3995      3998      4000      3983      3995      3998      4001
      3984      3983      3995      3996      3984      3983      3995      3997
      3984      3983      3995      3998      3985      3983      3995      3996
      3985      3983      3995      3997      3985      3983      3995      3998
      3986      3989      3990      3991      3986      3989      3990      3992
      3987      3986      3989      3990      3988      3986      3989      3990
      3989      3990      3992      3993      3989      3990      3992      3994
      3989      3990      3992      4042      3990      3992      4042      4043
      3990      3992      4042      4044      3990      3992      4042      4045
      3991      3990      3992      3993      3991      3990      3992      3994
      3991      3990      3992      4042      3992      4042      4045      4046
      3992      4042      4045      4047      3992      4042      4045      4048
      3993      3992      4042      4043      3993      3992      4042      4044
      3993      3992      4042      4045      3994      3992      4042      4043
      3994      3992      4042      4044      3994      3992      4042      4045
      3995      3998      4001      4002      3995      3998      4001      4003
      3995      3998      4001      4004      3996      3995      3998      3999
      3996      3995      3998      4000      3996      3995      3998      4001
      3997      3995      3998      3999      3997      3995      3998      4000
      3997      3995      3998      4001      3998      4001      4004      4005
      3998      4001      4004      4006      3998      4001      4004      4007
      3999      3998      4001      4002      3999      3998      4001      4003
      3999      3998      4001      4004      4000      3998      4001      4002
      4000      3998      4001      4003      4000      3998      4001      4004
      4001      4004      4007      4008      4001      4004      4007      4009
      4001      4004      4007      4010      4002      4001      4004      4005
      4002      4001      4004      4006      4002      4001      4004      4007
      4003      4001      4004      4005      4003      4001      4004      4006
      4003      4001      4004      4007      4004      4007      4010      4011
      4004      4007      4010      4012      4004      4007      4010      4013
      4005      4004      4007      4008      4005      4004      4007      4009
      4005      4004      4007      4010      4006      4004      4007      4008
      4006      4004      4007      4009      4006      4004      4007      4010
      4007      4010      4013      4014      4007      4010      4013      4015
      4008      4007      4010      4011      4008      4007      4010      4012
      4008      4007      4010      4013      4009      4007      4010      4011
      4009      4007      4010      4012      4009      4007      4010      4013
      4010      4013      4015      4016      4010      4013      4015      4017
      4011      4010      4013      4014      4011      4010      4013      4015
      4012      4010      4013      4014      4012      4010      4013      4015
      4013      4015      4017      4018      4013      4015      4017      4019
      4013      4015      4017      4020      4014      4013      4015      4016
      4014      4013      4015      4017      4015      4017      4020      4021
      4015      4017      4020      4022      4015      4017      4020      4023
      4016      4015      4017      4018      4016      4015      4017      4019
      4016      4015      4017      4020      4017      4020      4023      4024
      4017      4020      4023      4025      4017      4020      4023      4026
      4018      4017      4020      4021      4018      4017      4020      4022
      4018      4017      4020      4023      4019      4017      4020      4021
      4019      4017      4020      4022      4019      4017      4020      4023
      4020      4023      4026      4027      4020      4023      4026      4028
      4020      4023      4026      4029      4021      4020      4023      4024
      4021      4020      4023      4025      4021      4020      4023      4026
      4022      4020      4023      4024      4022      4020      4023      4025
      4022      4020      4023      4026      4023      4026      4029      4030
      4023      4026      4029      4031      4023      4026      4029      4032
      4024      4023      4026      4027      4024      4023      4026      4028
      4024      4023      4026      4029      4025      4023      4026      4027
      4025      4023      4026      4028      4025      4023      4026      4029
      4026      4029      4032      4033      4026      4029      4032      4034
      4026      4029      4032      4035      4027      4026      4029      4030
      4027      4026      4029      4031      4027      4026      4029      4032
      4028      4026      4029      4030      4028      4026      4029      4031
      4028      4026      4029      4032      4029      4032      4035      4036
      4029      4032      4035      4037      4029      4032      4035      4038
      4030      4029      4032      4033      4030      4029      4032      4034
      4030      4029      4032      4035      4031      4029      4032      4033
      4031      4029      4032      4034      4031      4029      4032      4035
      4032      4035      4038      4039      4032      4035      4038      4040
      4032      4035      4038      4041      4033      4032      4035      4036
      4033      4032      4035      4037      4033      4032      4035      4038
      4034      4032      4035      4036      4034      4032      4035      4037
      4034      4032      4035      4038      4036      4035      4038      4039
      4036      4035      4038      4040      4036      4035      4038      4041
      4037      4035      4038      4039      4037      4035      4038      4040
      4037      4035      4038      4041      4042      4045      4048      4049
      4042      4045      4048      4050      4042      4045      4048      4051
      4043      4042      4045      4046      4043      4042      4045      4047
      4043      4042      4045      4048      4044      4042      4045      4046
      4044      4042      4045      4047      4044      4042      4045      4048
      4045      4048      4051      4052      4045      4048      4051      4053
      4045      4048      4051      4054      4046      4045      4048      4049
      4046      4045      4048      4050      4046      4045      4048      4051
      4047      4045      4048      4049      4047      4045      4048      4050
      4047      4045      4048      4051      4048      4051      4054      4055
      4048      4051      4054      4056      4048      4051      4054      4057
      4049      4048      4051      4052      4049      4048      4051      4053
      4049      4048      4051      4054      4050      4048      4051      4052
      4050      4048      4051      4053      4050      4048      4051      4054
      4051      4054      4057      4058      4051      4054      4057      4059
      4051      4054      4057      4060      4052      4051      4054      4055
      4052      4051      4054      4056      4052      4051      4054      4057
      4053      4051      4054      4055      4053      4051      4054      4056
      4053      4051      4054      4057      4054      4057      4060      4061
      4054      4057      4060      4062      4055      4054      4057      4058
      4055      4054      4057      4059      4055      4054      4057      4060
      4056      4054      4057      4058      4056      4054      4057      4059
      4056      4054      4057      4060      4057      4060      4062      4063
      4057      4060      4062      4064      4058      4057      4060      4061
      4058      4057      4060      4062      4059      4057      4060      4061
      4059      4057      4060      4062      4060      4062      4064      4065
      4060      4062      4064      4066      4060      4062      4064      4067
      4061      4060      4062      4063      4061      4060      4062      4064
      4062      4064      4067      4068      4062      4064      4067      4069
      4062      4064      4067      4070      4063      4062      4064      4065
      4063      4062      4064      4066      4063      4062      4064      4067
      4064      4067      4070      4071      4064      4067      4070      4072
      4064      4067      4070      4073      4065      4064      4067      4068
      4065      4064      4067      4069      4065      4064      4067      4070
      4066      4064      4067      4068      4066      4064      4067      4069
      4066      4064      4067      4070      4067      4070      4073      4074
      4067      4070      4073      4075      4067      4070      4073      4076
      4068      4067      4070      4071      4068      4067      4070      4072
      4068      4067      4070      4073      4069      4067      4070      4071
      4069      4067      4070      4072      4069      4067      4070      4073
      4070      4073      4076      4077      4070      4073      4076      4078
      4070      4073      4076      4079      4071      4070      4073      4074
      4071      4070      4073      4075      4071      4070      4073      4076
      4072      4070      4073      4074      4072      4070      4073      4075
      4072      4070      4073      4076      4073      4076      4079      4080
      4073      4076      4079      4081      4073      4076      4079      4082
      4074      4073      4076      4077      4074      4073      4076      4078
      4074      4073      4076      4079      4075      4073      4076      4077
      4075      4073      4076      4078      4075      4073      4076      4079
      4076      4079      4082      4083      4076      4079      4082      4084
      4076      4079      4082      4085      4077      4076      4079      4080
      4077      4076      4079      4081      4077      4076      4079      4082
      4078      4076      4079      4080      4078      4076      4079      4081
      4078      4076      4079      4082      4079      4082      4085      4086
      4079      4082      4085      4087      4079      4082      4085      4088
      4080      4079      4082      4083      4080      4079      4082      4084
      4080      4079      4082      4085      4081      4079      4082      4083
      4081      4079      4082      4084      4081      4079      4082      4085
      4083      4082      4085      4086      4083      4082      4085      4087
      4083      4082      4085      4088      4084      4082      4085      4086
      4084      4082      4085      4087      4084      4082      4085      4088
      4089      4090      4105      4106      4089      4090      4105      4107
      4089      4090      4105      4111      4090      4089      4093      4094
      4090      4089      4093      4095      4090      4089      4093      4096
      4090      4089      4097      4098      4090      4089      4097      4099
      4090      4089      4097      4100      4090      4089      4101      4102
      4090      4089      4101      4103      4090      4089      4101      4104
      4090      4105      4111      4108      4091      4090      4089      4093
      4091      4090      4089      4097      4091      4090      4089      4101
      4091      4090      4105      4106      4091      4090      4105      4107
      4091      4090      4105      4111      4092      4090      4089      4093
      4092      4090      4089      4097      4092      4090      4089      4101
      4092      4090      4105      4106      4092      4090      4105      4107
      4092      4090      4105      4111      4093      4089      4090      4105
      4093      4089      4097      4098      4093      4089      4097      4099
      4093      4089      4097      4100      4093      4089      4101      4102
      4093      4089      4101      4103      4093      4089      4101      4104
      4094      4093      4089      4097      4094      4093      4089      4101
      4095      4093      4089      4097      4095      4093      4089      4101
      4096      4093      4089      4097      4096      4093      4089      4101
      4097      4089      4090      4105      4097      4089      4101      4102
      4097      4089      4101      4103      4097      4089      4101      4104
      4098      4097      4089      4101      4099      4097      4089      4101
      4100      4097      4089      4101      4101      4089      4090      4105
      4105      4111      4108      4109      4105      4111      4108      4110
      4105      4111      4108      4112      4106      4105      4111      4108
      4107      4105      4111      4108      4108      4112      4113      4114
      4108      4112      4113      4115      4108      4112      4113      4116
      4109      4108      4112      4113      4110      4108      4112      4113
      4111      4108      4112      4113      4112      4113      4116      4117
      4112      4113      4116      4118      4112      4113      4116      4124
      4113      4116      4118      4119      4113      4116      4124      4125
      4113      4116      4124      4126      4113      4116      4124      4127
      4114      4113      4116      4117      4114      4113      4116      4118
      4114      4113      4116      4124      4115      4113      4116      4117
      4115      4113      4116      4118      4115      4113      4116      4124
      4116      4118      4119      4120      4116      4118      4119      4121
      4116      4124      4127      4128      4117      4116      4118      4119
      4117      4116      4124      4125      4117      4116      4124      4126
      4117      4116      4124      4127      4118      4116      4124      4125
      4118      4116      4124      4126      4118      4116      4124      4127
      4118      4119      4121      4122      4118      4119      4121      4123
      4118      4119      4121      4133      4119      4118      4116      4124
      4119      4121      4133      4134      4119      4121      4133      4135
      4119      4121      4133      4136      4120      4119      4121      4122
      4120      4119      4121      4123      4120      4119      4121      4133
      4121      4133      4136      4137      4121      4133      4136      4138
      4121      4133      4136      4139      4122      4121      4133      4134
      4122      4121      4133      4135      4122      4121      4133      4136
      4123      4121      4133      4134      4123      4121      4133      4135
      4123      4121      4133      4136      4124      4127      4128      4129
      4124      4127      4128      4130      4125      4124      4127      4128
      4126      4124      4127      4128      4127      4128      4130      4131
      4127      4128      4130      4132      4127      4128      4130      4180
      4128      4130      4180      4181      4128      4130      4180      4182
      4128      4130      4180      4183      4129      4128      4130      4131
      4129      4128      4130      4132      4129      4128      4130      4180
      4130      4180      4183      4184      4130      4180      4183      4185
      4130      4180      4183      4186      4131      4130      4180      4181
      4131      4130      4180      4182      4131      4130      4180      4183
      4132      4130      4180      4181      4132      4130      4180      4182
      4132      4130      4180      4183      4133      4136      4139      4140
      4133      4136      4139      4141      4133      4136      4139      4142
      4134      4133      4136      4137      4134      4133      4136      4138
      4134      4133      4136      4139      4135      4133      4136      4137
      4135      4133      4136      4138      4135      4133      4136      4139
      4136      4139      4142      4143      4136      4139      4142      4144
      4136      4139      4142      4145      4137      4136      4139      4140
      4137      4136      4139      4141      4137      4136      4139      4142
      4138      4136      4139      4140      4138      4136      4139      4141
      4138      4136      4139      4142      4139      4142      4145      4146
      4139      4142      4145      4147      4139      4142      4145      4148
      4140      4139      4142      4143      4140      4139      4142      4144
      4140      4139      4142      4145      4141      4139      4142      4143
      4141      4139      4142      4144      4141      4139      4142      4145
      4142      4145      4148      4149      4142      4145      4148      4150
      4142      4145      4148      4151      4143      4142      4145      4146
      4143      4142      4145      4147      4143      4142      4145      4148
      4144      4142      4145      4146      4144      4142      4145      4147
      4144      4142      4145      4148      4145      4148      4151      4152
      4145      4148      4151      4153      4146      4145      4148      4149
      4146      4145      4148      4150      4146      4145      4148      4151
      4147      4145      4148      4149      4147      4145      4148      4150
      4147      4145      4148      4151      4148      4151      4153      4154
      4148      4151      4153      4155      4149      4148      4151      4152
      4149      4148      4151      4153      4150      4148      4151      4152
      4150      4148      4151      4153      4151      4153      4155      4156
      4151      4153      4155      4157      4151      4153      4155      4158
      4152      4151      4153      4154      4152      4151      4153      4155
      4153      4155      4158      4159      4153      4155      4158      4160
      4153      4155      4158      4161      4154      4153      4155      4156
      4154      4153      4155      4157      4154      4153      4155      4158
      4155      4158      4161      4162      4155      4158      4161      4163
      4155      4158      4161      4164      4156      4155      4158      4159
      4156      4155      4158      4160      4156      4155      4158      4161
      4157      4155      4158      4159      4157      4155      4158      4160
      4157      4155      4158      4161      4158      4161      4164      4165
      4158      4161      4164      4166      4158      4161      4164      4167
      4159      4158      4161      4162      4159      4158      4161      4163
      4159      4158      4161      4164      4160      4158      4161      4162
      4160      4158      4161      4163      4160      4158      4161      4164
      4161      4164      4167      4168      4161      4164      4167      4169
      4161      4164      4167      4170      4162      4161      4164      4165
      4162      4161      4164      4166      4162      4161      4164      4167
      4163      4161      4164      4165      4163      4161      4164      4166
      4163      4161      4164      4167      4164      4167      4170      4171
      4164      4167      4170      4172      4164      4167      4170      4173
      4165      4164      4167      4168      4165      4164      4167      4169
      4165      4164      4167      4170      4166      4164      4167      4168
      4166      4164      4167      4169      4166      4164      4167      4170
      4167      4170      4173      4174      4167      4170      4173      4175
      4167      4170      4173      4176      4168      4167      4170      4171
      4168      4167      4170      4172      4168      4167      4170      4173
      4169      4167      4170      4171      4169      4167      4170      4172
      4169      4167      4170      4173      4170      4173      4176      4177
      4170      4173      4176      4178      4170      4173      4176      4179
      4171      4170      4173      4174      4171      4170      4173      4175
      4171      4170      4173      4176      4172      4170      4173      4174
      4172      4170      4173      4175      4172      4170      4173      4176
      4174      4173      4176      4177      4174      4173      4176      4178
      4174      4173      4176      4179      4175      4173      4176      4177
      4175      4173      4176      4178      4175      4173      4176      4179
      4180      4183      4186      4187      4180      4183      4186      4188
      4180      4183      4186      4189      4181      4180      4183      4184
      4181      4180      4183      4185      4181      4180      4183      4186
      4182      4180      4183      4184      4182      4180      4183      4185
      4182      4180      4183      4186      4183      4186      4189      4190
      4183      4186      4189      4191      4183      4186      4189      4192
      4184      4183      4186      4187      4184      4183      4186      4188
      4184      4183      4186      4189      4185      4183      4186      4187
      4185      4183      4186      4188      4185      4183      4186      4189
      4186      4189      4192      4193      4186      4189      4192      4194
      4186      4189      4192      4195      4187      4186      4189      4190
      4187      4186      4189      4191      4187      4186      4189      4192
      4188      4186      4189      4190      4188      4186      4189      4191
      4188      4186      4189      4192      4189      4192      4195      4196
      4189      4192      4195      4197      4189      4192      4195      4198
      4190      4189      4192      4193      4190      4189      4192      4194
      4190      4189      4192      4195      4191      4189      4192      4193
      4191      4189      4192      4194      4191      4189      4192      4195
      4192      4195      4198      4199      4192      4195      4198      4200
      4193      4192      4195      4196      4193      4192      4195      4197
      4193      4192      4195      4198      4194      4192      4195      4196
      4194      4192      4195      4197      4194      4192      4195      4198
      4195      4198      4200      4201      4195      4198      4200      4202
      4196      4195      4198      4199      4196      4195      4198      4200
      4197      4195      4198      4199      4197      4195      4198      4200
      4198      4200      4202      4203      4198      4200      4202      4204
      4198      4200      4202      4205      4199      4198      4200      4201
      4199      4198      4200      4202      4200      4202      4205      4206
      4200      4202      4205      4207      4200      4202      4205      4208
      4201      4200      4202      4203      4201      4200      4202      4204
      4201      4200      4202      4205      4202      4205      4208      4209
      4202      4205      4208      4210      4202      4205      4208      4211
      4203      4202      4205      4206      4203      4202      4205      4207
      4203      4202      4205      4208      4204      4202      4205      4206
      4204      4202      4205      4207      4204      4202      4205      4208
      4205      4208      4211      4212      4205      4208      4211      4213
      4205      4208      4211      4214      4206      4205      4208      4209
      4206      4205      4208      4210      4206      4205      4208      4211
      4207      4205      4208      4209      4207      4205      4208      4210
      4207      4205      4208      4211      4208      4211      4214      4215
      4208      4211      4214      4216      4208      4211      4214      4217
      4209      4208      4211      4212      4209      4208      4211      4213
      4209      4208      4211      4214      4210      4208      4211      4212
      4210      4208      4211      4213      4210      4208      4211      4214
      4211      4214      4217      4218      4211      4214      4217      4219
      4211      4214      4217      4220      4212      4211      4214      4215
      4212      4211      4214      4216      4212      4211      4214      4217
      4213      4211      4214      4215      4213      4211      4214      4216
      4213      4211      4214      4217      4214      4217      4220      4221
      4214      4217      4220      4222      4214      4217      4220      4223
      4215      4214      4217      4218      4215      4214      4217      4219
      4215      4214      4217      4220      4216      4214      4217      4218
      4216      4214      4217      4219      4216      4214      4217      4220
      4217      4220      4223      4224      4217      4220      4223      4225
      4217      4220      4223      4226      4218      4217      4220      4221
      4218      4217      4220      4222      4218      4217      4220      4223
      4219      4217      4220      4221      4219      4217      4220      4222
      4219      4217      4220      4223      4221      4220      4223      4224
      4221      4220      4223      4225      4221      4220      4223      4226
      4222      4220      4223      4224      4222      4220      4223      4225
      4222      4220      4223      4226      4227      4228      4243      4244
      4227      4228      4243      4245      4227      4228      4243      4249
      4228      4227      4231      4232      4228      4227      4231      4233
      4228      4227      4231      4234      4228      4227      4235      4236
      4228      4227      4235      4237      4228      4227      4235      4238
      4228      4227      4239      4240      4228      4227      4239      4241
      4228      4227      4239      4242      4228      4243      4249      4246
      4229      4228      4227      4231      4229      4228      4227      4235
      4229      4228      4227      4239      4229      4228      4243      4244
      4229      4228      4243      4245      4229      4228      4243      4249
      4230      4228      4227      4231      4230      4228      4227      4235
      4230      4228      4227      4239      4230      4228      4243      4244
      4230      4228      4243      4245      4230      4228      4243      4249
      4231      4227      4228      4243      4231      4227      4235      4236
      4231      4227      4235      4237      4231      4227      4235      4238
      4231      4227      4239      4240      4231      4227      4239      4241
      4231      4227      4239      4242      4232      4231      4227      4235
      4232      4231      4227      4239      4233      4231      4227      4235
      4233      4231      4227      4239      4234      4231      4227      4235
      4234      4231      4227      4239      4235      4227      4228      4243
      4235      4227      4239      4240      4235      4227      4239      4241
      4235      4227      4239      4242      4236      4235      4227      4239
      4237      4235      4227      4239      4238      4235      4227      4239
      4239      4227      4228      4243      4243      4249      4246      4247
      4243      4249      4246      4248      4243      4249      4246      4250
      4244      4243      4249      4246      4245      4243      4249      4246
      4246      4250      4251      4252      4246      4250      4251      4253
      4246      4250      4251      4254      4247      4246      4250      4251
      4248      4246      4250      4251      4249      4246      4250      4251
      4250      4251      4254      4255      4250      4251      4254      4256
      4250      4251      4254      4262      4251      4254      4256      4257
      4251      4254      4262      4263      4251      4254      4262      4264
      4251      4254      4262      4265      4252      4251      4254      4255
      4252      4251      4254      4256      4252      4251      4254      4262
      4253      4251      4254      4255      4253      4251      4254      4256
      4253      4251      4254      4262      4254      4256      4257      4258
      4254      4256      4257      4259      4254      4262      4265      4266
      4255      4254      4256      4257      4255      4254      4262      4263
      4255      4254      4262      4264      4255      4254      4262      4265
      4256      4254      4262      4263      4256      4254      4262      4264
      4256      4254      4262      4265      4256      4257      4259      4260
      4256      4257      4259      4261      4256      4257      4259      4271
      4257      4256      4254      4262      4257      4259      4271      4272
      4257      4259      4271      4273      4257      4259      4271      4274
      4258      4257      4259      4260      4258      4257      4259      4261
      4258      4257      4259      4271      4259      4271      4274      4275
      4259      4271      4274      4276      4259      4271      4274      4277
      4260      4259      4271      4272      4260      4259      4271      4273
      4260      4259      4271      4274      4261      4259      4271      4272
      4261      4259      4271      4273      4261      4259      4271      4274
      4262      4265      4266      4267      4262      4265      4266      4268
      4263      4262      4265      4266      4264      4262      4265      4266
      4265      4266      4268      4269      4265      4266      4268      4270
      4265      4266      4268      4318      4266      4268      4318      4319
      4266      4268      4318      4320      4266      4268      4318      4321
      4267      4266      4268      4269      4267      4266      4268      4270
      4267      4266      4268      4318      4268      4318      4321      4322
      4268      4318      4321      4323      4268      4318      4321      4324
      4269      4268      4318      4319      4269      4268      4318      4320
      4269      4268      4318      4321      4270      4268      4318      4319
      4270      4268      4318      4320      4270      4268      4318      4321
      4271      4274      4277      4278      4271      4274      4277      4279
      4271      4274      4277      4280      4272      4271      4274      4275
      4272      4271      4274      4276      4272      4271      4274      4277
      4273      4271      4274      4275      4273      4271      4274      4276
      4273      4271      4274      4277      4274      4277      4280      4281
      4274      4277      4280      4282      4274      4277      4280      4283
      4275      4274      4277      4278      4275      4274      4277      4279
      4275      4274      4277      4280      4276      4274      4277      4278
      4276      4274      4277      4279      4276      4274      4277      4280
      4277      4280      4283      4284      4277      4280      4283      4285
      4277      4280      4283      4286      4278      4277      4280      4281
      4278      4277      4280      4282      4278      4277      4280      4283
      4279      4277      4280      4281      4279      4277      4280      4282
      4279      4277      4280      4283      4280      4283      4286      4287
      4280      4283      4286      4288      4280      4283      4286      4289
      4281      4280      4283      4284      4281      4280      4283      4285
      4281      4280      4283      4286      4282      4280      4283      4284
      4282      4280      4283      4285      4282      4280      4283      4286
      4283      4286      4289      4290      4283      4286      4289      4291
      4284      4283      4286      4287      4284      4283      4286      4288
      4284      4283      4286      4289      4285      4283      4286      4287
      4285      4283      4286      4288      4285      4283      4286      4289
      4286      4289      4291      4292      4286      4289      4291      4293
      4287      4286      4289      4290      4287      4286      4289      4291
      4288      4286      4289      4290      4288      4286      4289      4291
      4289      4291      4293      4294      4289      4291      4293      4295
      4289      4291      4293      4296      4290      4289      4291      4292
      4290      4289      4291      4293      4291      4293      4296      4297
      4291      4293      4296      4298      4291      4293      4296      4299
      4292      4291      4293      4294      4292      4291      4293      4295
      4292      4291      4293      4296      4293      4296      4299      4300
      4293      4296      4299      4301      4293      4296      4299      4302
      4294      4293      4296      4297      4294      4293      4296      4298
      4294      4293      4296      4299      4295      4293      4296      4297
      4295      4293      4296      4298      4295      4293      4296      4299
      4296      4299      4302      4303      4296      4299      4302      4304
      4296      4299      4302      4305      4297      4296      4299      4300
      4297      4296      4299      4301      4297      4296      4299      4302
      4298      4296      4299      4300      4298      4296      4299      4301
      4298      4296      4299      4302      4299      4302      4305      4306
      4299      4302      4305      4307      4299      4302      4305      4308
      4300      4299      4302      4303      4300      4299      4302      4304
      4300      4299      4302      4305      4301      4299      4302      4303
      4301      4299      4302      4304      4301      4299      4302      4305
      4302      4305      4308      4309      4302      4305      4308      4310
      4302      4305      4308      4311      4303      4302      4305      4306
      4303      4302      4305      4307      4303      4302      4305      4308
      4304      4302      4305      4306      4304      4302      4305      4307
      4304      4302      4305      4308      4305      4308      4311      4312
      4305      4308      4311      4313      4305      4308      4311      4314
      4306      4305      4308      4309      4306      4305      4308      4310
      4306      4305      4308      4311      4307      4305      4308      4309
      4307      4305      4308      4310      4307      4305      4308      4311
      4308      4311      4314      4315      4308      4311      4314      4316
      4308      4311      4314      4317      4309      4308      4311      4312
      4309      4308      4311      4313      4309      4308      4311      4314
      4310      4308      4311      4312      4310      4308      4311      4313
      4310      4308      4311      4314      4312      4311      4314      4315
      4312      4311      4314      4316      4312      4311      4314      4317
      4313      4311      4314      4315      4313      4311      4314      4316
      4313      4311      4314      4317      4318      4321      4324      4325
      4318      4321      4324      4326      4318      4321      4324      4327
      4319      4318      4321      4322      4319      4318      4321      4323
      4319      4318      4321      4324      4320      4318      4321      4322
      4320      4318      4321      4323      4320      4318      4321      4324
      4321      4324      4327      4328      4321      4324      4327      4329
      4321      4324      4327      4330      4322      4321      4324      4325
      4322      4321      4324      4326      4322      4321      4324      4327
      4323      4321      4324      4325      4323      4321      4324      4326
      4323      4321      4324      4327      4324      4327      4330      4331
      4324      4327      4330      4332      4324      4327      4330      4333
      4325      4324      4327      4328      4325      4324      4327      4329
      4325      4324      4327      4330      4326      4324      4327      4328
      4326      4324      4327      4329      4326      4324      4327      4330
      4327      4330      4333      4334      4327      4330      4333      4335
      4327      4330      4333      4336      4328      4327      4330      4331
      4328      4327      4330      4332      4328      4327      4330      4333
      4329      4327      4330      4331      4329      4327      4330      4332
      4329      4327      4330      4333      4330      4333      4336      4337
      4330      4333      4336      4338      4331      4330      4333      4334
      4331      4330      4333      4335      4331      4330      4333      4336
      4332      4330      4333      4334      4332      4330      4333      4335
      4332      4330      4333      4336      4333      4336      4338      4339
      4333      4336      4338      4340      4334      4333      4336      4337
      4334      4333      4336      4338      4335      4333      4336      4337
      4335      4333      4336      4338      4336      4338      4340      4341
      4336      4338      4340      4342      4336      4338      4340      4343
      4337      4336      4338      4339      4337      4336      4338      4340
      4338      4340      4343      4344      4338      4340      4343      4345
      4338      4340      4343      4346      4339      4338      4340      4341
      4339      4338      4340      4342      4339      4338      4340      4343
      4340      4343      4346      4347      4340      4343      4346      4348
      4340      4343      4346      4349      4341      4340      4343      4344
      4341      4340      4343      4345      4341      4340      4343      4346
      4342      4340      4343      4344      4342      4340      4343      4345
      4342      4340      4343      4346      4343      4346      4349      4350
      4343      4346      4349      4351      4343      4346      4349      4352
      4344      4343      4346      4347      4344      4343      4346      4348
      4344      4343      4346      4349      4345      4343      4346      4347
      4345      4343      4346      4348      4345      4343      4346      4349
      4346      4349      4352      4353      4346      4349      4352      4354
      4346      4349      4352      4355      4347      4346      4349      4350
      4347      4346      4349      4351      4347      4346      4349      4352
      4348      4346      4349      4350      4348      4346      4349      4351
      4348      4346      4349      4352      4349      4352      4355      4356
      4349      4352      4355      4357      4349      4352      4355      4358
      4350      4349      4352      4353      4350      4349      4352      4354
      4350      4349      4352      4355      4351      4349      4352      4353
      4351      4349      4352      4354      4351      4349      4352      4355
      4352      4355      4358      4359      4352      4355      4358      4360
      4352      4355      4358      4361      4353      4352      4355      4356
      4353      4352      4355      4357      4353      4352      4355      4358
      4354      4352      4355      4356      4354      4352      4355      4357
      4354      4352      4355      4358      4355      4358      4361      4362
      4355      4358      4361      4363      4355      4358      4361      4364
      4356      4355      4358      4359      4356      4355      4358      4360
      4356      4355      4358      4361      4357      4355      4358      4359
      4357      4355      4358      4360      4357      4355      4358      4361
      4359      4358      4361      4362      4359      4358      4361      4363
      4359      4358      4361      4364      4360      4358      4361      4362
      4360      4358      4361      4363      4360      4358      4361      4364
      4365      4366      4381      4382      4365      4366      4381      4383
      4365      4366      4381      4387      4366      4365      4369      4370
      4366      4365      4369      4371      4366      4365      4369      4372
      4366      4365      4373      4374      4366      4365      4373      4375
      4366      4365      4373      4376      4366      4365      4377      4378
      4366      4365      4377      4379      4366      4365      4377      4380
      4366      4381      4387      4384      4367      4366      4365      4369
      4367      4366      4365      4373      4367      4366      4365      4377
      4367      4366      4381      4382      4367      4366      4381      4383
      4367      4366      4381      4387      4368      4366      4365      4369
      4368      4366      4365      4373      4368      4366      4365      4377
      4368      4366      4381      4382      4368      4366      4381      4383
      4368      4366      4381      4387      4369      4365      4366      4381
      4369      4365      4373      4374      4369      4365      4373      4375
      4369      4365      4373      4376      4369      4365      4377      4378
      4369      4365      4377      4379      4369      4365      4377      4380
      4370      4369      4365      4373      4370      4369      4365      4377
      4371      4369      4365      4373      4371      4369      4365      4377
      4372      4369      4365      4373      4372      4369      4365      4377
      4373      4365      4366      4381      4373      4365      4377      4378
      4373      4365      4377      4379      4373      4365      4377      4380
      4374      4373      4365      4377      4375      4373      4365      4377
      4376      4373      4365      4377      4377      4365      4366      4381
      4381      4387      4384      4385      4381      4387      4384      4386
      4381      4387      4384      4388      4382      4381      4387      4384
      4383      4381      4387      4384      4384      4388      4389      4390
      4384      4388      4389      4391      4384      4388      4389      4392
      4385      4384      4388      4389      4386      4384      4388      4389
      4387      4384      4388      4389      4388      4389      4392      4393
      4388      4389      4392      4394      4388      4389      4392      4400
      4389      4392      4394      4395      4389      4392      4400      4401
      4389      4392      4400      4402      4389      4392      4400      4403
      4390      4389      4392      4393      4390      4389      4392      4394
      4390      4389      4392      4400      4391      4389      4392      4393
      4391      4389      4392      4394      4391      4389      4392      4400
      4392      4394      4395      4396      4392      4394      4395      4397
      4392      4400      4403      4404      4393      4392      4394      4395
      4393      4392      4400      4401      4393      4392      4400      4402
      4393      4392      4400      4403      4394      4392      4400      4401
      4394      4392      4400      4402      4394      4392      4400      4403
      4394      4395      4397      4398      4394      4395      4397      4399
      4394      4395      4397      4409      4395      4394      4392      4400
      4395      4397      4409      4410      4395      4397      4409      4411
      4395      4397      4409      4412      4396      4395      4397      4398
      4396      4395      4397      4399      4396      4395      4397      4409
      4397      4409      4412      4413      4397      4409      4412      4414
      4397      4409      4412      4415      4398      4397      4409      4410
      4398      4397      4409      4411      4398      4397      4409      4412
      4399      4397      4409      4410      4399      4397      4409      4411
      4399      4397      4409      4412      4400      4403      4404      4405
      4400      4403      4404      4406      4401      4400      4403      4404
      4402      4400      4403      4404      4403      4404      4406      4407
      4403      4404      4406      4408      4403      4404      4406      4456
      4404      4406      4456      4457      4404      4406      4456      4458
      4404      4406      4456      4459      4405      4404      4406      4407
      4405      4404      4406      4408      4405      4404      4406      4456
      4406      4456      4459      4460      4406      4456      4459      4461
      4406      4456      4459      4462      4407      4406      4456      4457
      4407      4406      4456      4458      4407      4406      4456      4459
      4408      4406      4456      4457      4408      4406      4456      4458
      4408      4406      4456      4459      4409      4412      4415      4416
      4409      4412      4415      4417      4409      4412      4415      4418
      4410      4409      4412      4413      4410      4409      4412      4414
      4410      4409      4412      4415      4411      4409      4412      4413
      4411      4409      4412      4414      4411      4409      4412      4415
      4412      4415      4418      4419      4412      4415      4418      4420
      4412      4415      4418      4421      4413      4412      4415      4416
      4413      4412      4415      4417      4413      4412      4415      4418
      4414      4412      4415      4416      4414      4412      4415      4417
      4414      4412      4415      4418      4415      4418      4421      4422
      4415      4418      4421      4423      4415      4418      4421      4424
      4416      4415      4418      4419      4416      4415      4418      4420
      4416      4415      4418      4421      4417      4415      4418      4419
      4417      4415      4418      4420      4417      4415      4418      4421
      4418      4421      4424      4425      4418      4421      4424      4426
      4418      4421      4424      4427      4419      4418      4421      4422
      4419      4418      4421      4423      4419      4418      4421      4424
      4420      4418      4421      4422      4420      4418      4421      4423
      4420      4418      4421      4424      4421      4424      4427      4428
      4421      4424      4427      4429      4422      4421      4424      4425
      4422      4421      4424      4426      4422      4421      4424      4427
      4423      4421      4424      4425      4423      4421      4424      4426
      4423      4421      4424      4427      4424      4427      4429      4430
      4424      4427      4429      4431      4425      4424      4427      4428
      4425      4424      4427      4429      4426      4424      4427      4428
      4426      4424      4427      4429      4427      4429      4431      4432
      4427      4429      4431      4433      4427      4429      4431      4434
      4428      4427      4429      4430      4428      4427      4429      4431
      4429      4431      4434      4435      4429      4431      4434      4436
      4429      4431      4434      4437      4430      4429      4431      4432
      4430      4429      4431      4433      4430      4429      4431      4434
      4431      4434      4437      4438      4431      4434      4437      4439
      4431      4434      4437      4440      4432      4431      4434      4435
      4432      4431      4434      4436      4432      4431      4434      4437
      4433      4431      4434      4435      4433      4431      4434      4436
      4433      4431      4434      4437      4434      4437      4440      4441
      4434      4437      4440      4442      4434      4437      4440      4443
      4435      4434      4437      4438      4435      4434      4437      4439
      4435      4434      4437      4440      4436      4434      4437      4438
      4436      4434      4437      4439      4436      4434      4437      4440
      4437      4440      4443      4444      4437      4440      4443      4445
      4437      4440      4443      4446      4438      4437      4440      4441
      4438      4437      4440      4442      4438      4437      4440      4443
      4439      4437      4440      4441      4439      4437      4440      4442
      4439      4437      4440      4443      4440      4443      4446      4447
      4440      4443      4446      4448      4440      4443      4446      4449
      4441      4440      4443      4444      4441      4440      4443      4445
      4441      4440      4443      4446      4442      4440      4443      4444
      4442      4440      4443      4445      4442      4440      4443      4446
      4443      4446      4449      4450      4443      4446      4449      4451
      4443      4446      4449      4452      4444      4443      4446      4447
      4444      4443      4446      4448      4444      4443      4446      4449
      4445      4443      4446      4447      4445      4443      4446      4448
      4445      4443      4446      4449      4446      4449      4452      4453
      4446      4449      4452      4454      4446      4449      4452      4455
      4447      4446      4449      4450      4447      4446      4449      4451
      4447      4446      4449      4452      4448      4446      4449      4450
      4448      4446      4449      4451      4448      4446      4449      4452
      4450      4449      4452      4453      4450      4449      4452      4454
      4450      4449      4452      4455      4451      4449      4452      4453
      4451      4449      4452      4454      4451      4449      4452      4455
      4456      4459      4462      4463      4456      4459      4462      4464
      4456      4459      4462      4465      4457      4456      4459      4460
      4457      4456      4459      4461      4457      4456      4459      4462
      4458      4456      4459      4460      4458      4456      4459      4461
      4458      4456      4459      4462      4459      4462      4465      4466
      4459      4462      4465      4467      4459      4462      4465      4468
      4460      4459      4462      4463      4460      4459      4462      4464
      4460      4459      4462      4465      4461      4459      4462      4463
      4461      4459      4462      4464      4461      4459      4462      4465
      4462      4465      4468      4469      4462      4465      4468      4470
      4462      4465      4468      4471      4463      4462      4465      4466
      4463      4462      4465      4467      4463      4462      4465      4468
      4464      4462      4465      4466      4464      4462      4465      4467
      4464      4462      4465      4468      4465      4468      4471      4472
      4465      4468      4471      4473      4465      4468      4471      4474
      4466      4465      4468      4469      4466      4465      4468      4470
      4466      4465      4468      4471      4467      4465      4468      4469
      4467      4465      4468      4470      4467      4465      4468      4471
      4468      4471      4474      4475      4468      4471      4474      4476
      4469      4468      4471      4472      4469      4468      4471      4473
      4469      4468      4471      4474      4470      4468      4471      4472
      4470      4468      4471      4473      4470      4468      4471      4474
      4471      4474      4476      4477      4471      4474      4476      4478
      4472      4471      4474      4475      4472      4471      4474      4476
      4473      4471      4474      4475      4473      4471      4474      4476
      4474      4476      4478      4479      4474      4476      4478      4480
      4474      4476      4478      4481      4475      4474      4476      4477
      4475      4474      4476      4478      4476      4478      4481      4482
      4476      4478      4481      4483      4476      4478      4481      4484
      4477      4476      4478      4479      4477      4476      4478      4480
      4477      4476      4478      4481      4478      4481      4484      4485
      4478      4481      4484      4486      4478      4481      4484      4487
      4479      4478      4481      4482      4479      4478      4481      4483
      4479      4478      4481      4484      4480      4478      4481      4482
      4480      4478      4481      4483      4480      4478      4481      4484
      4481      4484      4487      4488      4481      4484      4487      4489
      4481      4484      4487      4490      4482      4481      4484      4485
      4482      4481      4484      4486      4482      4481      4484      4487
      4483      4481      4484      4485      4483      4481      4484      4486
      4483      4481      4484      4487      4484      4487      4490      4491
      4484      4487      4490      4492      4484      4487      4490      4493
      4485      4484      4487      4488      4485      4484      4487      4489
      4485      4484      4487      4490      4486      4484      4487      4488
      4486      4484      4487      4489      4486      4484      4487      4490
      4487      4490      4493      4494      4487      4490      4493      4495
      4487      4490      4493      4496      4488      4487      4490      4491
      4488      4487      4490      4492      4488      4487      4490      4493
      4489      4487      4490      4491      4489      4487      4490      4492
      4489      4487      4490      4493      4490      4493      4496      4497
      4490      4493      4496      4498      4490      4493      4496      4499
      4491      4490      4493      4494      4491      4490      4493      4495
      4491      4490      4493      4496      4492      4490      4493      4494
      4492      4490      4493      4495      4492      4490      4493      4496
      4493      4496      4499      4500      4493      4496      4499      4501
      4493      4496      4499      4502      4494      4493      4496      4497
      4494      4493      4496      4498      4494      4493      4496      4499
      4495      4493      4496      4497      4495      4493      4496      4498
      4495      4493      4496      4499      4497      4496      4499      4500
      4497      4496      4499      4501      4497      4496      4499      4502
      4498      4496      4499      4500      4498      4496      4499      4501
      4498      4496      4499      4502      4503      4504      4519      4520
      4503      4504      4519      4521      4503      4504      4519      4525
      4504      4503      4507      4508      4504      4503      4507      4509
      4504      4503      4507      4510      4504      4503      4511      4512
      4504      4503      4511      4513      4504      4503      4511      4514
      4504      4503      4515      4516      4504      4503      4515      4517
      4504      4503      4515      4518      4504      4519      4525      4522
      4505      4504      4503      4507      4505      4504      4503      4511
      4505      4504      4503      4515      4505      4504      4519      4520
      4505      4504      4519      4521      4505      4504      4519      4525
      4506      4504      4503      4507      4506      4504      4503      4511
      4506      4504      4503      4515      4506      4504      4519      4520
      4506      4504      4519      4521      4506      4504      4519      4525
      4507      4503      4504      4519      4507      4503      4511      4512
      4507      4503      4511      4513      4507      4503      4511      4514
      4507      4503      4515      4516      4507      4503      4515      4517
      4507      4503      4515      4518      4508      4507      4503      4511
      4508      4507      4503      4515      4509      4507      4503      4511
      4509      4507      4503      4515      4510      4507      4503      4511
      4510      4507      4503      4515      4511      4503      4504      4519
      4511      4503      4515      4516      4511      4503      4515      4517
      4511      4503      4515      4518      4512      4511      4503      4515
      4513      4511      4503      4515      4514      4511      4503      4515
      4515      4503      4504      4519      4519      4525      4522      4523
      4519      4525      4522      4524      4519      4525      4522      4526
      4520      4519      4525      4522      4521      4519      4525      4522
      4522      4526      4527      4528      4522      4526      4527      4529
      4522      4526      4527      4530      4523      4522      4526      4527
      4524      4522      4526      4527      4525      4522      4526      4527
      4526      4527      4530      4531      4526      4527      4530      4532
      4526      4527      4530      4538      4527      4530      4532      4533
      4527      4530      4538      4539      4527      4530      4538      4540
      4527      4530      4538      4541      4528      4527      4530      4531
      4528      4527      4530      4532      4528      4527      4530      4538
      4529      4527      4530      4531      4529      4527      4530      4532
      4529      4527      4530      4538      4530      4532      4533      4534
      4530      4532      4533      4535      4530      4538      4541      4542
      4531      4530      4532      4533      4531      4530      4538      4539
      4531      4530      4538      4540      4531      4530      4538      4541
      4532      4530      4538      4539      4532      4530      4538      4540
      4532      4530      4538      4541      4532      4533      4535      4536
      4532      4533      4535      4537      4532      4533      4535      4547
      4533      4532      4530      4538      4533      4535      4547      4548
      4533      4535      4547      4549      4533      4535      4547      4550
      4534      4533      4535      4536      4534      4533      4535      4537
      4534      4533      4535      4547      4535      4547      4550      4551
      4535      4547      4550      4552      4535      4547      4550      4553
      4536      4535      4547      4548      4536      4535      4547      4549
      4536      4535      4547      4550      4537      4535      4547      4548
      4537      4535      4547      4549      4537      4535      4547      4550
      4538      4541      4542      4543      4538      4541      4542      4544
      4539      4538      4541      4542      4540      4538      4541      4542
      4541      4542      4544      4545      4541      4542      4544      4546
      4541      4542      4544      4594      4542      4544      4594      4595
      4542      4544      4594      4596      4542      4544      4594      4597
      4543      4542      4544      4545      4543      4542      4544      4546
      4543      4542      4544      4594      4544      4594      4597      4598
      4544      4594      4597      4599      4544      4594      4597      4600
      4545      4544      4594      4595      4545      4544      4594      4596
      4545      4544      4594      4597      4546      4544      4594      4595
      4546      4544      4594      4596      4546      4544      4594      4597
      4547      4550      4553      4554      4547      4550      4553      4555
      4547      4550      4553      4556      4548      4547      4550      4551
      4548      4547      4550      4552      4548      4547      4550      4553
      4549      4547      4550      4551      4549      4547      4550      4552
      4549      4547      4550      4553      4550      4553      4556      4557
      4550      4553      4556      4558      4550      4553      4556      4559
      4551      4550      4553      4554      4551      4550      4553      4555
      4551      4550      4553      4556      4552      4550      4553      4554
      4552      4550      4553      4555      4552      4550      4553      4556
      4553      4556      4559      4560      4553      4556      4559      4561
      4553      4556      4559      4562      4554      4553      4556      4557
      4554      4553      4556      4558      4554      4553      4556      4559
      4555      4553      4556      4557      4555      4553      4556      4558
      4555      4553      4556      4559      4556      4559      4562      4563
      4556      4559      4562      4564      4556      4559      4562      4565
      4557      4556      4559      4560      4557      4556      4559      4561
      4557      4556      4559      4562      4558      4556      4559      4560
      4558      4556      4559      4561      4558      4556      4559      4562
      4559      4562      4565      4566      4559      4562      4565      4567
      4560      4559      4562      4563      4560      4559      4562      4564
      4560      4559      4562      4565      4561      4559      4562      4563
      4561      4559      4562      4564      4561      4559      4562      4565
      4562      4565      4567      4568      4562      4565      4567      4569
      4563      4562      4565      4566      4563      4562      4565      4567
      4564      4562      4565      4566      4564      4562      4565      4567
      4565      4567      4569      4570      4565      4567      4569      4571
      4565      4567      4569      4572      4566      4565      4567      4568
      4566      4565      4567      4569      4567      4569      4572      4573
      4567      4569      4572      4574      4567      4569      4572      4575
      4568      4567      4569      4570      4568      4567      4569      4571
      4568      4567      4569      4572      4569      4572      4575      4576
      4569      4572      4575      4577      4569      4572      4575      4578
      4570      4569      4572      4573      4570      4569      4572      4574
      4570      4569      4572      4575      4571      4569      4572      4573
      4571      4569      4572      4574      4571      4569      4572      4575
      4572      4575      4578      4579      4572      4575      4578      4580
      4572      4575      4578      4581      4573      4572      4575      4576
      4573      4572      4575      4577      4573      4572      4575      4578
      4574      4572      4575      4576      4574      4572      4575      4577
      4574      4572      4575      4578      4575      4578      4581      4582
      4575      4578      4581      4583      4575      4578      4581      4584
      4576      4575      4578      4579      4576      4575      4578      4580
      4576      4575      4578      4581      4577      4575      4578      4579
      4577      4575      4578      4580      4577      4575      4578      4581
      4578      4581      4584      4585      4578      4581      4584      4586
      4578      4581      4584      4587      4579      4578      4581      4582
      4579      4578      4581      4583      4579      4578      4581      4584
      4580      4578      4581      4582      4580      4578      4581      4583
      4580      4578      4581      4584      4581      4584      4587      4588
      4581      4584      4587      4589      4581      4584      4587      4590
      4582      4581      4584      4585      4582      4581      4584      4586
      4582      4581      4584      4587      4583      4581      4584      4585
      4583      4581      4584      4586      4583      4581      4584      4587
      4584      4587      4590      4591      4584      4587      4590      4592
      4584      4587      4590      4593      4585      4584      4587      4588
      4585      4584      4587      4589      4585      4584      4587      4590
      4586      4584      4587      4588      4586      4584      4587      4589
      4586      4584      4587      4590      4588      4587      4590      4591
      4588      4587      4590      4592      4588      4587      4590      4593
      4589      4587      4590      4591      4589      4587      4590      4592
      4589      4587      4590      4593      4594      4597      4600      4601
      4594      4597      4600      4602      4594      4597      4600      4603
      4595      4594      4597      4598      4595      4594      4597      4599
      4595      4594      4597      4600      4596      4594      4597      4598
      4596      4594      4597      4599      4596      4594      4597      4600
      4597      4600      4603      4604      4597      4600      4603      4605
      4597      4600      4603      4606      4598      4597      4600      4601
      4598      4597      4600      4602      4598      4597      4600      4603
      4599      4597      4600      4601      4599      4597      4600      4602
      4599      4597      4600      4603      4600      4603      4606      4607
      4600      4603      4606      4608      4600      4603      4606      4609
      4601      4600      4603      4604      4601      4600      4603      4605
      4601      4600      4603      4606      4602      4600      4603      4604
      4602      4600      4603      4605      4602      4600      4603      4606
      4603      4606      4609      4610      4603      4606      4609      4611
      4603      4606      4609      4612      4604      4603      4606      4607
      4604      4603      4606      4608      4604      4603      4606      4609
      4605      4603      4606      4607      4605      4603      4606      4608
      4605      4603      4606      4609      4606      4609      4612      4613
      4606      4609      4612      4614      4607      4606      4609      4610
      4607      4606      4609      4611      4607      4606      4609      4612
      4608      4606      4609      4610      4608      4606      4609      4611
      4608      4606      4609      4612      4609      4612      4614      4615
      4609      4612      4614      4616      4610      4609      4612      4613
      4610      4609      4612      4614      4611      4609      4612      4613
      4611      4609      4612      4614      4612      4614      4616      4617
      4612      4614      4616      4618      4612      4614      4616      4619
      4613      4612      4614      4615      4613      4612      4614      4616
      4614      4616      4619      4620      4614      4616      4619      4621
      4614      4616      4619      4622      4615      4614      4616      4617
      4615      4614      4616      4618      4615      4614      4616      4619
      4616      4619      4622      4623      4616      4619      4622      4624
      4616      4619      4622      4625      4617      4616      4619      4620
      4617      4616      4619      4621      4617      4616      4619      4622
      4618      4616      4619      4620      4618      4616      4619      4621
      4618      4616      4619      4622      4619      4622      4625      4626
      4619      4622      4625      4627      4619      4622      4625      4628
      4620      4619      4622      4623      4620      4619      4622      4624
      4620      4619      4622      4625      4621      4619      4622      4623
      4621      4619      4622      4624      4621      4619      4622      4625
      4622      4625      4628      4629      4622      4625      4628      4630
      4622      4625      4628      4631      4623      4622      4625      4626
      4623      4622      4625      4627      4623      4622      4625      4628
      4624      4622      4625      4626      4624      4622      4625      4627
      4624      4622      4625      4628      4625      4628      4631      4632
      4625      4628      4631      4633      4625      4628      4631      4634
      4626      4625      4628      4629      4626      4625      4628      4630
      4626      4625      4628      4631      4627      4625      4628      4629
      4627      4625      4628      4630      4627      4625      4628      4631
      4628      4631      4634      4635      4628      4631      4634      4636
      4628      4631      4634      4637      4629      4628      4631      4632
      4629      4628      4631      4633      4629      4628      4631      4634
      4630      4628      4631      4632      4630      4628      4631      4633
      4630      4628      4631      4634      4631      4634      4637      4638
      4631      4634      4637      4639      4631      4634      4637      4640
      4632      4631      4634      4635      4632      4631      4634      4636
      4632      4631      4634      4637      4633      4631      4634      4635
      4633      4631      4634      4636      4633      4631      4634      4637
      4635      4634      4637      4638      4635      4634      4637      4639
      4635      4634      4637      4640      4636      4634      4637      4638
      4636      4634      4637      4639      4636      4634      4637      4640
      4641      4642      4657      4658      4641      4642      4657      4659
      4641      4642      4657      4663      4642      4641      4645      4646
      4642      4641      4645      4647      4642      4641      4645      4648
      4642      4641      4649      4650      4642      4641      4649      4651
      4642      4641      4649      4652      4642      4641      4653      4654
      4642      4641      4653      4655      4642      4641      4653      4656
      4642      4657      4663      4660      4643      4642      4641      4645
      4643      4642      4641      4649      4643      4642      4641      4653
      4643      4642      4657      4658      4643      4642      4657      4659
      4643      4642      4657      4663      4644      4642      4641      4645
      4644      4642      4641      4649      4644      4642      4641      4653
      4644      4642      4657      4658      4644      4642      4657      4659
      4644      4642      4657      4663      4645      4641      4642      4657
      4645      4641      4649      4650      4645      4641      4649      4651
      4645      4641      4649      4652      4645      4641      4653      4654
      4645      4641      4653      4655      4645      4641      4653      4656
      4646      4645      4641      4649      4646      4645      4641      4653
      4647      4645      4641      4649      4647      4645      4641      4653
      4648      4645      4641      4649      4648      4645      4641      4653
      4649      4641      4642      4657      4649      4641      4653      4654
      4649      4641      4653      4655      4649      4641      4653      4656
      4650      4649      4641      4653      4651      4649      4641      4653
      4652      4649      4641      4653      4653      4641      4642      4657
      4657      4663      4660      4661      4657      4663      4660      4662
      4657      4663      4660      4664      4658      4657      4663      4660
      4659      4657      4663      4660      4660      4664      4665      4666
      4660      4664      4665      4667      4660      4664      4665      4668
      4661      4660      4664      4665      4662      4660      4664      4665
      4663      4660      4664      4665      4664      4665      4668      4669
      4664      4665      4668      4670      4664      4665      4668      4676
      4665      4668      4670      4671      4665      4668      4676      4677
      4665      4668      4676      4678      4665      4668      4676      4679
      4666      4665      4668      4669      4666      4665      4668      4670
      4666      4665      4668      4676      4667      4665      4668      4669
      4667      4665      4668      4670      4667      4665      4668      4676
      4668      4670      4671      4672      4668      4670      4671      4673
      4668      4676      4679      4680      4669      4668      4670      4671
      4669      4668      4676      4677      4669      4668      4676      4678
      4669      4668      4676      4679      4670      4668      4676      4677
      4670      4668      4676      4678      4670      4668      4676      4679
      4670      4671      4673      4674      4670      4671      4673      4675
      4670      4671      4673      4685      4671      4670      4668      4676
      4671      4673      4685      4686      4671      4673      4685      4687
      4671      4673      4685      4688      4672      4671      4673      4674
      4672      4671      4673      4675      4672      4671      4673      4685
      4673      4685      4688      4689      4673      4685      4688      4690
      4673      4685      4688      4691      4674      4673      4685      4686
      4674      4673      4685      4687      4674      4673      4685      4688
      4675      4673      4685      4686      4675      4673      4685      4687
      4675      4673      4685      4688      4676      4679      4680      4681
      4676      4679      4680      4682      4677      4676      4679      4680
      4678      4676      4679      4680      4679      4680      4682      4683
      4679      4680      4682      4684      4679      4680      4682      4732
      4680      4682      4732      4733      4680      4682      4732      4734
      4680      4682      4732      4735      4681      4680      4682      4683
      4681      4680      4682      4684      4681      4680      4682      4732
      4682      4732      4735      4736      4682      4732      4735      4737
      4682      4732      4735      4738      4683      4682      4732      4733
      4683      4682      4732      4734      4683      4682      4732      4735
      4684      4682      4732      4733      4684      4682      4732      4734
      4684      4682      4732      4735      4685      4688      4691      4692
      4685      4688      4691      4693      4685      4688      4691      4694
      4686      4685      4688      4689      4686      4685      4688      4690
      4686      4685      4688      4691      4687      4685      4688      4689
      4687      4685      4688      4690      4687      4685      4688      4691
      4688      4691      4694      4695      4688      4691      4694      4696
      4688      4691      4694      4697      4689      4688      4691      4692
      4689      4688      4691      4693      4689      4688      4691      4694
      4690      4688      4691      4692      4690      4688      4691      4693
      4690      4688      4691      4694      4691      4694      4697      4698
      4691      4694      4697      4699      4691      4694      4697      4700
      4692      4691      4694      4695      4692      4691      4694      4696
      4692      4691      4694      4697      4693      4691      4694      4695
      4693      4691      4694      4696      4693      4691      4694      4697
      4694      4697      4700      4701      4694      4697      4700      4702
      4694      4697      4700      4703      4695      4694      4697      4698
      4695      4694      4697      4699      4695      4694      4697      4700
      4696      4694      4697      4698      4696      4694      4697      4699
      4696      4694      4697      4700      4697      4700      4703      4704
      4697      4700      4703      4705      4698      4697      4700      4701
      4698      4697      4700      4702      4698      4697      4700      4703
      4699      4697      4700      4701      4699      4697      4700      4702
      4699      4697      4700      4703      4700      4703      4705      4706
      4700      4703      4705      4707      4701      4700      4703      4704
      4701      4700      4703      4705      4702      4700      4703      4704
      4702      4700      4703      4705      4703      4705      4707      4708
      4703      4705      4707      4709      4703      4705      4707      4710
      4704      4703      4705      4706      4704      4703      4705      4707
      4705      4707      4710      4711      4705      4707      4710      4712
      4705      4707      4710      4713      4706      4705      4707      4708
      4706      4705      4707      4709      4706      4705      4707      4710
      4707      4710      4713      4714      4707      4710      4713      4715
      4707      4710      4713      4716      4708      4707      4710      4711
      4708      4707      4710      4712      4708      4707      4710      4713
      4709      4707      4710      4711      4709      4707      4710      4712
      4709      4707      4710      4713      4710      4713      4716      4717
      4710      4713      4716      4718      4710      4713      4716      4719
      4711      4710      4713      4714      4711      4710      4713      4715
      4711      4710      4713      4716      4712      4710      4713      4714
      4712      4710      4713      4715      4712      4710      4713      4716
      4713      4716      4719      4720      4713      4716      4719      4721
      4713      4716      4719      4722      4714      4713      4716      4717
      4714      4713      4716      4718      4714      4713      4716      4719
      4715      4713      4716      4717      4715      4713      4716      4718
      4715      4713      4716      4719      4716      4719      4722      4723
      4716      4719      4722      4724      4716      4719      4722      4725
      4717      4716      4719      4720      4717      4716      4719      4721
      4717      4716      4719      4722      4718      4716      4719      4720
      4718      4716      4719      4721      4718      4716      4719      4722
      4719      4722      4725      4726      4719      4722      4725      4727
      4719      4722      4725      4728      4720      4719      4722      4723
      4720      4719      4722      4724      4720      4719      4722      4725
      4721      4719      4722      4723      4721      4719      4722      4724
      4721      4719      4722      4725      4722      4725      4728      4729
      4722      4725      4728      4730      4722      4725      4728      4731
      4723      4722      4725      4726      4723      4722      4725      4727
      4723      4722      4725      4728      4724      4722      4725      4726
      4724      4722      4725      4727      4724      4722      4725      4728
      4726      4725      4728      4729      4726      4725      4728      4730
      4726      4725      4728      4731      4727      4725      4728      4729
      4727      4725      4728      4730      4727      4725      4728      4731
      4732      4735      4738      4739      4732      4735      4738      4740
      4732      4735      4738      4741      4733      4732      4735      4736
      4733      4732      4735      4737      4733      4732      4735      4738
      4734      4732      4735      4736      4734      4732      4735      4737
      4734      4732      4735      4738      4735      4738      4741      4742
      4735      4738      4741      4743      4735      4738      4741      4744
      4736      4735      4738      4739      4736      4735      4738      4740
      4736      4735      4738      4741      4737      4735      4738      4739
      4737      4735      4738      4740      4737      4735      4738      4741
      4738      4741      4744      4745      4738      4741      4744      4746
      4738      4741      4744      4747      4739      4738      4741      4742
      4739      4738      4741      4743      4739      4738      4741      4744
      4740      4738      4741      4742      4740      4738      4741      4743
      4740      4738      4741      4744      4741      4744      4747      4748
      4741      4744      4747      4749      4741      4744      4747      4750
      4742      4741      4744      4745      4742      4741      4744      4746
      4742      4741      4744      4747      4743      4741      4744      4745
      4743      4741      4744      4746      4743      4741      4744      4747
      4744      4747      4750      4751      4744      4747      4750      4752
      4745      4744      4747      4748      4745      4744      4747      4749
      4745      4744      4747      4750      4746      4744      4747      4748
      4746      4744      4747      4749      4746      4744      4747      4750
      4747      4750      4752      4753      4747      4750      4752      4754
      4748      4747      4750      4751      4748      4747      4750      4752
      4749      4747      4750      4751      4749      4747      4750      4752
      4750      4752      4754      4755      4750      4752      4754      4756
      4750      4752      4754      4757      4751      4750      4752      4753
      4751      4750      4752      4754      4752      4754      4757      4758
      4752      4754      4757      4759      4752      4754      4757      4760
      4753      4752      4754      4755      4753      4752      4754      4756
      4753      4752      4754      4757      4754      4757      4760      4761
      4754      4757      4760      4762      4754      4757      4760      4763
      4755      4754      4757      4758      4755      4754      4757      4759
      4755      4754      4757      4760      4756      4754      4757      4758
      4756      4754      4757      4759      4756      4754      4757      4760
      4757      4760      4763      4764      4757      4760      4763      4765
      4757      4760      4763      4766      4758      4757      4760      4761
      4758      4757      4760      4762      4758      4757      4760      4763
      4759      4757      4760      4761      4759      4757      4760      4762
      4759      4757      4760      4763      4760      4763      4766      4767
      4760      4763      4766      4768      4760      4763      4766      4769
      4761      4760      4763      4764      4761      4760      4763      4765
      4761      4760      4763      4766      4762      4760      4763      4764
      4762      4760      4763      4765      4762      4760      4763      4766
      4763      4766      4769      4770      4763      4766      4769      4771
      4763      4766      4769      4772      4764      4763      4766      4767
      4764      4763      4766      4768      4764      4763      4766      4769
      4765      4763      4766      4767      4765      4763      4766      4768
      4765      4763      4766      4769      4766      4769      4772      4773
      4766      4769      4772      4774      4766      4769      4772      4775
      4767      4766      4769      4770      4767      4766      4769      4771
      4767      4766      4769      4772      4768      4766      4769      4770
      4768      4766      4769      4771      4768      4766      4769      4772
      4769      4772      4775      4776      4769      4772      4775      4777
      4769      4772      4775      4778      4770      4769      4772      4773
      4770      4769      4772      4774      4770      4769      4772      4775
      4771      4769      4772      4773      4771      4769      4772      4774
      4771      4769      4772      4775      4773      4772      4775      4776
      4773      4772      4775      4777      4773      4772      4775      4778
      4774      4772      4775      4776      4774      4772      4775      4777
      4774      4772      4775      4778      4779      4780      4795      4796
      4779      4780      4795      4797      4779      4780      4795      4801
      4780      4779      4783      4784      4780      4779      4783      4785
      4780      4779      4783      4786      4780      4779      4787      4788
      4780      4779      4787      4789      4780      4779      4787      4790
      4780      4779      4791      4792      4780      4779      4791      4793
      4780      4779      4791      4794      4780      4795      4801      4798
      4781      4780      4779      4783      4781      4780      4779      4787
      4781      4780      4779      4791      4781      4780      4795      4796
      4781      4780      4795      4797      4781      4780      4795      4801
      4782      4780      4779      4783      4782      4780      4779      4787
      4782      4780      4779      4791      4782      4780      4795      4796
      4782      4780      4795      4797      4782      4780      4795      4801
      4783      4779      4780      4795      4783      4779      4787      4788
      4783      4779      4787      4789      4783      4779      4787      4790
      4783      4779      4791      4792      4783      4779      4791      4793
      4783      4779      4791      4794      4784      4783      4779      4787
      4784      4783      4779      4791      4785      4783      4779      4787
      4785      4783      4779      4791      4786      4783      4779      4787
      4786      4783      4779      4791      4787      4779      4780      4795
      4787      4779      4791      4792      4787      4779      4791      4793
      4787      4779      4791      4794      4788      4787      4779      4791
      4789      4787      4779      4791      4790      4787      4779      4791
      4791      4779      4780      4795      4795      4801      4798      4799
      4795      4801      4798      4800      4795      4801      4798      4802
      4796      4795      4801      4798      4797      4795      4801      4798
      4798      4802      4803      4804      4798      4802      4803      4805
      4798      4802      4803      4806      4799      4798      4802      4803
      4800      4798      4802      4803      4801      4798      4802      4803
      4802      4803      4806      4807      4802      4803      4806      4808
      4802      4803      4806      4814      4803      4806      4808      4809
      4803      4806      4814      4815      4803      4806      4814      4816
      4803      4806      4814      4817      4804      4803      4806      4807
      4804      4803      4806      4808      4804      4803      4806      4814
      4805      4803      4806      4807      4805      4803      4806      4808
      4805      4803      4806      4814      4806      4808      4809      4810
      4806      4808      4809      4811      4806      4814      4817      4818
      4807      4806      4808      4809      4807      4806      4814      4815
      4807      4806      4814      4816      4807      4806      4814      4817
      4808      4806      4814      4815      4808      4806      4814      4816
      4808      4806      4814      4817      4808      4809      4811      4812
      4808      4809      4811      4813      4808      4809      4811      4823
      4809      4808      4806      4814      4809      4811      4823      4824
      4809      4811      4823      4825      4809      4811      4823      4826
      4810      4809      4811      4812      4810      4809      4811      4813
      4810      4809      4811      4823      4811      4823      4826      4827
      4811      4823      4826      4828      4811      4823      4826      4829
      4812      4811      4823      4824      4812      4811      4823      4825
      4812      4811      4823      4826      4813      4811      4823      4824
      4813      4811      4823      4825      4813      4811      4823      4826
      4814      4817      4818      4819      4814      4817      4818      4820
      4815      4814      4817      4818      4816      4814      4817      4818
      4817      4818      4820      4821      4817      4818      4820      4822
      4817      4818      4820      4870      4818      4820      4870      4871
      4818      4820      4870      4872      4818      4820      4870      4873
      4819      4818      4820      4821      4819      4818      4820      4822
      4819      4818      4820      4870      4820      4870      4873      4874
      4820      4870      4873      4875      4820      4870      4873      4876
      4821      4820      4870      4871      4821      4820      4870      4872
      4821      4820      4870      4873      4822      4820      4870      4871
      4822      4820      4870      4872      4822      4820      4870      4873
      4823      4826      4829      4830      4823      4826      4829      4831
      4823      4826      4829      4832      4824      4823      4826      4827
      4824      4823      4826      4828      4824      4823      4826      4829
      4825      4823      4826      4827      4825      4823      4826      4828
      4825      4823      4826      4829      4826      4829      4832      4833
      4826      4829      4832      4834      4826      4829      4832      4835
      4827      4826      4829      4830      4827      4826      4829      4831
      4827      4826      4829      4832      4828      4826      4829      4830
      4828      4826      4829      4831      4828      4826      4829      4832
      4829      4832      4835      4836      4829      4832      4835      4837
      4829      4832      4835      4838      4830      4829      4832      4833
      4830      4829      4832      4834      4830      4829      4832      4835
      4831      4829      4832      4833      4831      4829      4832      4834
      4831      4829      4832      4835      4832      4835      4838      4839
      4832      4835      4838      4840      4832      4835      4838      4841
      4833      4832      4835      4836      4833      4832      4835      4837
      4833      4832      4835      4838      4834      4832      4835      4836
      4834      4832      4835      4837      4834      4832      4835      4838
      4835      4838      4841      4842      4835      4838      4841      4843
      4836      4835      4838      4839      4836      4835      4838      4840
      4836      4835      4838      4841      4837      4835      4838      4839
      4837      4835      4838      4840      4837      4835      4838      4841
      4838      4841      4843      4844      4838      4841      4843      4845
      4839      4838      4841      4842      4839      4838      4841      4843
      4840      4838      4841      4842      4840      4838      4841      4843
      4841      4843      4845      4846      4841      4843      4845      4847
      4841      4843      4845      4848      4842      4841      4843      4844
      4842      4841      4843      4845      4843      4845      4848      4849
      4843      4845      4848      4850      4843      4845      4848      4851
      4844      4843      4845      4846      4844      4843      4845      4847
      4844      4843      4845      4848      4845      4848      4851      4852
      4845      4848      4851      4853      4845      4848      4851      4854
      4846      4845      4848      4849      4846      4845      4848      4850
      4846      4845      4848      4851      4847      4845      4848      4849
      4847      4845      4848      4850      4847      4845      4848      4851
      4848      4851      4854      4855      4848      4851      4854      4856
      4848      4851      4854      4857      4849      4848      4851      4852
      4849      4848      4851      4853      4849      4848      4851      4854
      4850      4848      4851      4852      4850      4848      4851      4853
      4850      4848      4851      4854      4851      4854      4857      4858
      4851      4854      4857      4859      4851      4854      4857      4860
      4852      4851      4854      4855      4852      4851      4854      4856
      4852      4851      4854      4857      4853      4851      4854      4855
      4853      4851      4854      4856      4853      4851      4854      4857
      4854      4857      4860      4861      4854      4857      4860      4862
      4854      4857      4860      4863      4855      4854      4857      4858
      4855      4854      4857      4859      4855      4854      4857      4860
      4856      4854      4857      4858      4856      4854      4857      4859
      4856      4854      4857      4860      4857      4860      4863      4864
      4857      4860      4863      4865      4857      4860      4863      4866
      4858      4857      4860      4861      4858      4857      4860      4862
      4858      4857      4860      4863      4859      4857      4860      4861
      4859      4857      4860      4862      4859      4857      4860      4863
      4860      4863      4866      4867      4860      4863      4866      4868
      4860      4863      4866      4869      4861      4860      4863      4864
      4861      4860      4863      4865      4861      4860      4863      4866
      4862      4860      4863      4864      4862      4860      4863      4865
      4862      4860      4863      4866      4864      4863      4866      4867
      4864      4863      4866      4868      4864      4863      4866      4869
      4865      4863      4866      4867      4865      4863      4866      4868
      4865      4863      4866      4869      4870      4873      4876      4877
      4870      4873      4876      4878      4870      4873      4876      4879
      4871      4870      4873      4874      4871      4870      4873      4875
      4871      4870      4873      4876      4872      4870      4873      4874
      4872      4870      4873      4875      4872      4870      4873      4876
      4873      4876      4879      4880      4873      4876      4879      4881
      4873      4876      4879      4882      4874      4873      4876      4877
      4874      4873      4876      4878      4874      4873      4876      4879
      4875      4873      4876      4877      4875      4873      4876      4878
      4875      4873      4876      4879      4876      4879      4882      4883
      4876      4879      4882      4884      4876      4879      4882      4885
      4877      4876      4879      4880      4877      4876      4879      4881
      4877      4876      4879      4882      4878      4876      4879      4880
      4878      4876      4879      4881      4878      4876      4879      4882
      4879      4882      4885      4886      4879      4882      4885      4887
      4879      4882      4885      4888      4880      4879      4882      4883
      4880      4879      4882      4884      4880      4879      4882      4885
      4881      4879      4882      4883      4881      4879      4882      4884
      4881      4879      4882      4885      4882      4885      4888      4889
      4882      4885      4888      4890      4883      4882      4885      4886
      4883      4882      4885      4887      4883      4882      4885      4888
      4884      4882      4885      4886      4884      4882      4885      4887
      4884      4882      4885      4888      4885      4888      4890      4891
      4885      4888      4890      4892      4886      4885      4888      4889
      4886      4885      4888      4890      4887      4885      4888      4889
      4887      4885      4888      4890      4888      4890      4892      4893
      4888      4890      4892      4894      4888      4890      4892      4895
      4889      4888      4890      4891      4889      4888      4890      4892
      4890      4892      4895      4896      4890      4892      4895      4897
      4890      4892      4895      4898      4891      4890      4892      4893
      4891      4890      4892      4894      4891      4890      4892      4895
      4892      4895      4898      4899      4892      4895      4898      4900
      4892      4895      4898      4901      4893      4892      4895      4896
      4893      4892      4895      4897      4893      4892      4895      4898
      4894      4892      4895      4896      4894      4892      4895      4897
      4894      4892      4895      4898      4895      4898      4901      4902
      4895      4898      4901      4903      4895      4898      4901      4904
      4896      4895      4898      4899      4896      4895      4898      4900
      4896      4895      4898      4901      4897      4895      4898      4899
      4897      4895      4898      4900      4897      4895      4898      4901
      4898      4901      4904      4905      4898      4901      4904      4906
      4898      4901      4904      4907      4899      4898      4901      4902
      4899      4898      4901      4903      4899      4898      4901      4904
      4900      4898      4901      4902      4900      4898      4901      4903
      4900      4898      4901      4904      4901      4904      4907      4908
      4901      4904      4907      4909      4901      4904      4907      4910
      4902      4901      4904      4905      4902      4901      4904      4906
      4902      4901      4904      4907      4903      4901      4904      4905
      4903      4901      4904      4906      4903      4901      4904      4907
      4904      4907      4910      4911      4904      4907      4910      4912
      4904      4907      4910      4913      4905      4904      4907      4908
      4905      4904      4907      4909      4905      4904      4907      4910
      4906      4904      4907      4908      4906      4904      4907      4909
      4906      4904      4907      4910      4907      4910      4913      4914
      4907      4910      4913      4915      4907      4910      4913      4916
      4908      4907      4910      4911      4908      4907      4910      4912
      4908      4907      4910      4913      4909      4907      4910      4911
      4909      4907      4910      4912      4909      4907      4910      4913
      4911      4910      4913      4914      4911      4910      4913      4915
      4911      4910      4913      4916      4912      4910      4913      4914
      4912      4910      4913      4915      4912      4910      4913      4916
      4917      4918      4933      4934      4917      4918      4933      4935
      4917      4918      4933      4939      4918      4917      4921      4922
      4918      4917      4921      4923      4918      4917      4921      4924
      4918      4917      4925      4926      4918      4917      4925      4927
      4918      4917      4925      4928      4918      4917      4929      4930
      4918      4917      4929      4931      4918      4917      4929      4932
      4918      4933      4939      4936      4919      4918      4917      4921
      4919      4918      4917      4925      4919      4918      4917      4929
      4919      4918      4933      4934      4919      4918      4933      4935
      4919      4918      4933      4939      4920      4918      4917      4921
      4920      4918      4917      4925      4920      4918      4917      4929
      4920      4918      4933      4934      4920      4918      4933      4935
      4920      4918      4933      4939      4921      4917      4918      4933
      4921      4917      4925      4926      4921      4917      4925      4927
      4921      4917      4925      4928      4921      4917      4929      4930
      4921      4917      4929      4931      4921      4917      4929      4932
      4922      4921      4917      4925      4922      4921      4917      4929
      4923      4921      4917      4925      4923      4921      4917      4929
      4924      4921      4917      4925      4924      4921      4917      4929
      4925      4917      4918      4933      4925      4917      4929      4930
      4925      4917      4929      4931      4925      4917      4929      4932
      4926      4925      4917      4929      4927      4925      4917      4929
      4928      4925      4917      4929      4929      4917      4918      4933
      4933      4939      4936      4937      4933      4939      4936      4938
      4933      4939      4936      4940      4934      4933      4939      4936
      4935      4933      4939      4936      4936      4940      4941      4942
      4936      4940      4941      4943      4936      4940      4941      4944
      4937      4936      4940      4941      4938      4936      4940      4941
      4939      4936      4940      4941      4940      4941      4944      4945
      4940      4941      4944      4946      4940      4941      4944      4952
      4941      4944      4946      4947      4941      4944      4952      4953
      4941      4944      4952      4954      4941      4944      4952      4955
      4942      4941      4944      4945      4942      4941      4944      4946
      4942      4941      4944      4952      4943      4941      4944      4945
      4943      4941      4944      4946      4943      4941      4944      4952
      4944      4946      4947      4948      4944      4946      4947      4949
      4944      4952      4955      4956      4945      4944      4946      4947
      4945      4944      4952      4953      4945      4944      4952      4954
      4945      4944      4952      4955      4946      4944      4952      4953
      4946      4944      4952      4954      4946      4944      4952      4955
      4946      4947      4949      4950      4946      4947      4949      4951
      4946      4947      4949      4961      4947      4946      4944      4952
      4947      4949      4961      4962      4947      4949      4961      4963
      4947      4949      4961      4964      4948      4947      4949      4950
      4948      4947      4949      4951      4948      4947      4949      4961
      4949      4961      4964      4965      4949      4961      4964      4966
      4949      4961      4964      4967      4950      4949      4961      4962
      4950      4949      4961      4963      4950      4949      4961      4964
      4951      4949      4961      4962      4951      4949      4961      4963
      4951      4949      4961      4964      4952      4955      4956      4957
      4952      4955      4956      4958      4953      4952      4955      4956
      4954      4952      4955      4956      4955      4956      4958      4959
      4955      4956      4958      4960      4955      4956      4958      5008
      4956      4958      5008      5009      4956      4958      5008      5010
      4956      4958      5008      5011      4957      4956      4958      4959
      4957      4956      4958      4960      4957      4956      4958      5008
      4958      5008      5011      5012      4958      5008      5011      5013
      4958      5008      5011      5014      4959      4958      5008      5009
      4959      4958      5008      5010      4959      4958      5008      5011
      4960      4958      5008      5009      4960      4958      5008      5010
      4960      4958      5008      5011      4961      4964      4967      4968
      4961      4964      4967      4969      4961      4964      4967      4970
      4962      4961      4964      4965      4962      4961      4964      4966
      4962      4961      4964      4967      4963      4961      4964      4965
      4963      4961      4964      4966      4963      4961      4964      4967
      4964      4967      4970      4971      4964      4967      4970      4972
      4964      4967      4970      4973      4965      4964      4967      4968
      4965      4964      4967      4969      4965      4964      4967      4970
      4966      4964      4967      4968      4966      4964      4967      4969
      4966      4964      4967      4970      4967      4970      4973      4974
      4967      4970      4973      4975      4967      4970      4973      4976
      4968      4967      4970      4971      4968      4967      4970      4972
      4968      4967      4970      4973      4969      4967      4970      4971
      4969      4967      4970      4972      4969      4967      4970      4973
      4970      4973      4976      4977      4970      4973      4976      4978
      4970      4973      4976      4979      4971      4970      4973      4974
      4971      4970      4973      4975      4971      4970      4973      4976
      4972      4970      4973      4974      4972      4970      4973      4975
      4972      4970      4973      4976      4973      4976      4979      4980
      4973      4976      4979      4981      4974      4973      4976      4977
      4974      4973      4976      4978      4974      4973      4976      4979
      4975      4973      4976      4977      4975      4973      4976      4978
      4975      4973      4976      4979      4976      4979      4981      4982
      4976      4979      4981      4983      4977      4976      4979      4980
      4977      4976      4979      4981      4978      4976      4979      4980
      4978      4976      4979      4981      4979      4981      4983      4984
      4979      4981      4983      4985      4979      4981      4983      4986
      4980      4979      4981      4982      4980      4979      4981      4983
      4981      4983      4986      4987      4981      4983      4986      4988
      4981      4983      4986      4989      4982      4981      4983      4984
      4982      4981      4983      4985      4982      4981      4983      4986
      4983      4986      4989      4990      4983      4986      4989      4991
      4983      4986      4989      4992      4984      4983      4986      4987
      4984      4983      4986      4988      4984      4983      4986      4989
      4985      4983      4986      4987      4985      4983      4986      4988
      4985      4983      4986      4989      4986      4989      4992      4993
      4986      4989      4992      4994      4986      4989      4992      4995
      4987      4986      4989      4990      4987      4986      4989      4991
      4987      4986      4989      4992      4988      4986      4989      4990
      4988      4986      4989      4991      4988      4986      4989      4992
      4989      4992      4995      4996      4989      4992      4995      4997
      4989      4992      4995      4998      4990      4989      4992      4993
      4990      4989      4992      4994      4990      4989      4992      4995
      4991      4989      4992      4993      4991      4989      4992      4994
      4991      4989      4992      4995      4992      4995      4998      4999
      4992      4995      4998      5000      4992      4995      4998      5001
      4993      4992      4995      4996      4993      4992      4995      4997
      4993      4992      4995      4998      4994      4992      4995      4996
      4994      4992      4995      4997      4994      4992      4995      4998
      4995      4998      5001      5002      4995      4998      5001      5003
      4995      4998      5001      5004      4996      4995      4998      4999
      4996      4995      4998      5000      4996      4995      4998      5001
      4997      4995      4998      4999      4997      4995      4998      5000
      4997      4995      4998      5001      4998      5001      5004      5005
      4998      5001      5004      5006      4998      5001      5004      5007
      4999      4998      5001      5002      4999      4998      5001      5003
      4999      4998      5001      5004      5000      4998      5001      5002
      5000      4998      5001      5003      5000      4998      5001      5004
      5002      5001      5004      5005      5002      5001      5004      5006
      5002      5001      5004      5007      5003      5001      5004      5005
      5003      5001      5004      5006      5003      5001      5004      5007
      5008      5011      5014      5015      5008      5011      5014      5016
      5008      5011      5014      5017      5009      5008      5011      5012
      5009      5008      5011      5013      5009      5008      5011      5014
      5010      5008      5011      5012      5010      5008      5011      5013
      5010      5008      5011      5014      5011      5014      5017      5018
      5011      5014      5017      5019      5011      5014      5017      5020
      5012      5011      5014      5015      5012      5011      5014      5016
      5012      5011      5014      5017      5013      5011      5014      5015
      5013      5011      5014      5016      5013      5011      5014      5017
      5014      5017      5020      5021      5014      5017      5020      5022
      5014      5017      5020      5023      5015      5014      5017      5018
      5015      5014      5017      5019      5015      5014      5017      5020
      5016      5014      5017      5018      5016      5014      5017      5019
      5016      5014      5017      5020      5017      5020      5023      5024
      5017      5020      5023      5025      5017      5020      5023      5026
      5018      5017      5020      5021      5018      5017      5020      5022
      5018      5017      5020      5023      5019      5017      5020      5021
      5019      5017      5020      5022      5019      5017      5020      5023
      5020      5023      5026      5027      5020      5023      5026      5028
      5021      5020      5023      5024      5021      5020      5023      5025
      5021      5020      5023      5026      5022      5020      5023      5024
      5022      5020      5023      5025      5022      5020      5023      5026
      5023      5026      5028      5029      5023      5026      5028      5030
      5024      5023      5026      5027      5024      5023      5026      5028
      5025      5023      5026      5027      5025      5023      5026      5028
      5026      5028      5030      5031      5026      5028      5030      5032
      5026      5028      5030      5033      5027      5026      5028      5029
      5027      5026      5028      5030      5028      5030      5033      5034
      5028      5030      5033      5035      5028      5030      5033      5036
      5029      5028      5030      5031      5029      5028      5030      5032
      5029      5028      5030      5033      5030      5033      5036      5037
      5030      5033      5036      5038      5030      5033      5036      5039
      5031      5030      5033      5034      5031      5030      5033      5035
      5031      5030      5033      5036      5032      5030      5033      5034
      5032      5030      5033      5035      5032      5030      5033      5036
      5033      5036      5039      5040      5033      5036      5039      5041
      5033      5036      5039      5042      5034      5033      5036      5037
      5034      5033      5036      5038      5034      5033      5036      5039
      5035      5033      5036      5037      5035      5033      5036      5038
      5035      5033      5036      5039      5036      5039      5042      5043
      5036      5039      5042      5044      5036      5039      5042      5045
      5037      5036      5039      5040      5037      5036      5039      5041
      5037      5036      5039      5042      5038      5036      5039      5040
      5038      5036      5039      5041      5038      5036      5039      5042
      5039      5042      5045      5046      5039      5042      5045      5047
      5039      5042      5045      5048      5040      5039      5042      5043
      5040      5039      5042      5044      5040      5039      5042      5045
      5041      5039      5042      5043      5041      5039      5042      5044
      5041      5039      5042      5045      5042      5045      5048      5049
      5042      5045      5048      5050      5042      5045      5048      5051
      5043      5042      5045      5046      5043      5042      5045      5047
      5043      5042      5045      5048      5044      5042      5045      5046
      5044      5042      5045      5047      5044      5042      5045      5048
      5045      5048      5051      5052      5045      5048      5051      5053
      5045      5048      5051      5054      5046      5045      5048      5049
      5046      5045      5048      5050      5046      5045      5048      5051
      5047      5045      5048      5049      5047      5045      5048      5050
      5047      5045      5048      5051      5049      5048      5051      5052
      5049      5048      5051      5053      5049      5048      5051      5054
      5050      5048      5051      5052      5050      5048      5051      5053
      5050      5048      5051      5054      5055      5056      5071      5072
      5055      5056      5071      5073      5055      5056      5071      5077
      5056      5055      5059      5060      5056      5055      5059      5061
      5056      5055      5059      5062      5056      5055      5063      5064
      5056      5055      5063      5065      5056      5055      5063      5066
      5056      5055      5067      5068      5056      5055      5067      5069
      5056      5055      5067      5070      5056      5071      5077      5074
      5057      5056      5055      5059      5057      5056      5055      5063
      5057      5056      5055      5067      5057      5056      5071      5072
      5057      5056      5071      5073      5057      5056      5071      5077
      5058      5056      5055      5059      5058      5056      5055      5063
      5058      5056      5055      5067      5058      5056      5071      5072
      5058      5056      5071      5073      5058      5056      5071      5077
      5059      5055      5056      5071      5059      5055      5063      5064
      5059      5055      5063      5065      5059      5055      5063      5066
      5059      5055      5067      5068      5059      5055      5067      5069
      5059      5055      5067      5070      5060      5059      5055      5063
      5060      5059      5055      5067      5061      5059      5055      5063
      5061      5059      5055      5067      5062      5059      5055      5063
      5062      5059      5055      5067      5063      5055      5056      5071
      5063      5055      5067      5068      5063      5055      5067      5069
      5063      5055      5067      5070      5064      5063      5055      5067
      5065      5063      5055      5067      5066      5063      5055      5067
      5067      5055      5056      5071      5071      5077      5074      5075
      5071      5077      5074      5076      5071      5077      5074      5078
      5072      5071      5077      5074      5073      5071      5077      5074
      5074      5078      5079      5080      5074      5078      5079      5081
      5074      5078      5079      5082      5075      5074      5078      5079
      5076      5074      5078      5079      5077      5074      5078      5079
      5078      5079      5082      5083      5078      5079      5082      5084
      5078      5079      5082      5090      5079      5082      5084      5085
      5079      5082      5090      5091      5079      5082      5090      5092
      5079      5082      5090      5093      5080      5079      5082      5083
      5080      5079      5082      5084      5080      5079      5082      5090
      5081      5079      5082      5083      5081      5079      5082      5084
      5081      5079      5082      5090      5082      5084      5085      5086
      5082      5084      5085      5087      5082      5090      5093      5094
      5083      5082      5084      5085      5083      5082      5090      5091
      5083      5082      5090      5092      5083      5082      5090      5093
      5084      5082      5090      5091      5084      5082      5090      5092
      5084      5082      5090      5093      5084      5085      5087      5088
      5084      5085      5087      5089      5084      5085      5087      5099
      5085      5084      5082      5090      5085      5087      5099      5100
      5085      5087      5099      5101      5085      5087      5099      5102
      5086      5085      5087      5088      5086      5085      5087      5089
      5086      5085      5087      5099      5087      5099      5102      5103
      5087      5099      5102      5104      5087      5099      5102      5105
      5088      5087      5099      5100      5088      5087      5099      5101
      5088      5087      5099      5102      5089      5087      5099      5100
      5089      5087      5099      5101      5089      5087      5099      5102
      5090      5093      5094      5095      5090      5093      5094      5096
      5091      5090      5093      5094      5092      5090      5093      5094
      5093      5094      5096      5097      5093      5094      5096      5098
      5093      5094      5096      5146      5094      5096      5146      5147
      5094      5096      5146      5148      5094      5096      5146      5149
      5095      5094      5096      5097      5095      5094      5096      5098
      5095      5094      5096      5146      5096      5146      5149      5150
      5096      5146      5149      5151      5096      5146      5149      5152
      5097      5096      5146      5147      5097      5096      5146      5148
      5097      5096      5146      5149      5098      5096      5146      5147
      5098      5096      5146      5148      5098      5096      5146      5149
      5099      5102      5105      5106      5099      5102      5105      5107
      5099      5102      5105      5108      5100      5099      5102      5103
      5100      5099      5102      5104      5100      5099      5102      5105
      5101      5099      5102      5103      5101      5099      5102      5104
      5101      5099      5102      5105      5102      5105      5108      5109
      5102      5105      5108      5110      5102      5105      5108      5111
      5103      5102      5105      5106      5103      5102      5105      5107
      5103      5102      5105      5108      5104      5102      5105      5106
      5104      5102      5105      5107      5104      5102      5105      5108
      5105      5108      5111      5112      5105      5108      5111      5113
      5105      5108      5111      5114      5106      5105      5108      5109
      5106      5105      5108      5110      5106      5105      5108      5111
      5107      5105      5108      5109      5107      5105      5108      5110
      5107      5105      5108      5111      5108      5111      5114      5115
      5108      5111      5114      5116      5108      5111      5114      5117
      5109      5108      5111      5112      5109      5108      5111      5113
      5109      5108      5111      5114      5110      5108      5111      5112
      5110      5108      5111      5113      5110      5108      5111      5114
      5111      5114      5117      5118      5111      5114      5117      5119
      5112      5111      5114      5115      5112      5111      5114      5116
      5112      5111      5114      5117      5113      5111      5114      5115
      5113      5111      5114      5116      5113      5111      5114      5117
      5114      5117      5119      5120      5114      5117      5119      5121
      5115      5114      5117      5118      5115      5114      5117      5119
      5116      5114      5117      5118      5116      5114      5117      5119
      5117      5119      5121      5122      5117      5119      5121      5123
      5117      5119      5121      5124      5118      5117      5119      5120
      5118      5117      5119      5121      5119      5121      5124      5125
      5119      5121      5124      5126      5119      5121      5124      5127
      5120      5119      5121      5122      5120      5119      5121      5123
      5120      5119      5121      5124      5121      5124      5127      5128
      5121      5124      5127      5129      5121      5124      5127      5130
      5122      5121      5124      5125      5122      5121      5124      5126
      5122      5121      5124      5127      5123      5121      5124      5125
      5123      5121      5124      5126      5123      5121      5124      5127
      5124      5127      5130      5131      5124      5127      5130      5132
      5124      5127      5130      5133      5125      5124      5127      5128
      5125      5124      5127      5129      5125      5124      5127      5130
      5126      5124      5127      5128      5126      5124      5127      5129
      5126      5124      5127      5130      5127      5130      5133      5134
      5127      5130      5133      5135      5127      5130      5133      5136
      5128      5127      5130      5131      5128      5127      5130      5132
      5128      5127      5130      5133      5129      5127      5130      5131
      5129      5127      5130      5132      5129      5127      5130      5133
      5130      5133      5136      5137      5130      5133      5136      5138
      5130      5133      5136      5139      5131      5130      5133      5134
      5131      5130      5133      5135      5131      5130      5133      5136
      5132      5130      5133      5134      5132      5130      5133      5135
      5132      5130      5133      5136      5133      5136      5139      5140
      5133      5136      5139      5141      5133      5136      5139      5142
      5134      5133      5136      5137      5134      5133      5136      5138
      5134      5133      5136      5139      5135      5133      5136      5137
      5135      5133      5136      5138      5135      5133      5136      5139
      5136      5139      5142      5143      5136      5139      5142      5144
      5136      5139      5142      5145      5137      5136      5139      5140
      5137      5136      5139      5141      5137      5136      5139      5142
      5138      5136      5139      5140      5138      5136      5139      5141
      5138      5136      5139      5142      5140      5139      5142      5143
      5140      5139      5142      5144      5140      5139      5142      5145
      5141      5139      5142      5143      5141      5139      5142      5144
      5141      5139      5142      5145      5146      5149      5152      5153
      5146      5149      5152      5154      5146      5149      5152      5155
      5147      5146      5149      5150      5147      5146      5149      5151
      5147      5146      5149      5152      5148      5146      5149      5150
      5148      5146      5149      5151      5148      5146      5149      5152
      5149      5152      5155      5156      5149      5152      5155      5157
      5149      5152      5155      5158      5150      5149      5152      5153
      5150      5149      5152      5154      5150      5149      5152      5155
      5151      5149      5152      5153      5151      5149      5152      5154
      5151      5149      5152      5155      5152      5155      5158      5159
      5152      5155      5158      5160      5152      5155      5158      5161
      5153      5152      5155      5156      5153      5152      5155      5157
      5153      5152      5155      5158      5154      5152      5155      5156
      5154      5152      5155      5157      5154      5152      5155      5158
      5155      5158      5161      5162      5155      5158      5161      5163
      5155      5158      5161      5164      5156      5155      5158      5159
      5156      5155      5158      5160      5156      5155      5158      5161
      5157      5155      5158      5159      5157      5155      5158      5160
      5157      5155      5158      5161      5158      5161      5164      5165
      5158      5161      5164      5166      5159      5158      5161      5162
      5159      5158      5161      5163      5159      5158      5161      5164
      5160      5158      5161      5162      5160      5158      5161      5163
      5160      5158      5161      5164      5161      5164      5166      5167
      5161      5164      5166      5168      5162      5161      5164      5165
      5162      5161      5164      5166      5163      5161      5164      5165
      5163      5161      5164      5166      5164      5166      5168      5169
      5164      5166      5168      5170      5164      5166      5168      5171
      5165      5164      5166      5167      5165      5164      5166      5168
      5166      5168      5171      5172      5166      5168      5171      5173
      5166      5168      5171      5174      5167      5166      5168      5169
      5167      5166      5168      5170      5167      5166      5168      5171
      5168      5171      5174      5175      5168      5171      5174      5176
      5168      5171      5174      5177      5169      5168      5171      5172
      5169      5168      5171      5173      5169      5168      5171      5174
      5170      5168      5171      5172      5170      5168      5171      5173
      5170      5168      5171      5174      5171      5174      5177      5178
      5171      5174      5177      5179      5171      5174      5177      5180
      5172      5171      5174      5175      5172      5171      5174      5176
      5172      5171      5174      5177      5173      5171      5174      5175
      5173      5171      5174      5176      5173      5171      5174      5177
      5174      5177      5180      5181      5174      5177      5180      5182
      5174      5177      5180      5183      5175      5174      5177      5178
      5175      5174      5177      5179      5175      5174      5177      5180
      5176      5174      5177      5178      5176      5174      5177      5179
      5176      5174      5177      5180      5177      5180      5183      5184
      5177      5180      5183      5185      5177      5180      5183      5186
      5178      5177      5180      5181      5178      5177      5180      5182
      5178      5177      5180      5183      5179      5177      5180      5181
      5179      5177      5180      5182      5179      5177      5180      5183
      5180      5183      5186      5187      5180      5183      5186      5188
      5180      5183      5186      5189      5181      5180      5183      5184
      5181      5180      5183      5185      5181      5180      5183      5186
      5182      5180      5183      5184      5182      5180      5183      5185
      5182      5180      5183      5186      5183      5186      5189      5190
      5183      5186      5189      5191      5183      5186      5189      5192
      5184      5183      5186      5187      5184      5183      5186      5188
      5184      5183      5186      5189      5185      5183      5186      5187
      5185      5183      5186      5188      5185      5183      5186      5189
      5187      5186      5189      5190      5187      5186      5189      5191
      5187      5186      5189      5192      5188      5186      5189      5190
      5188      5186      5189      5191      5188      5186      5189      5192
      5193      5194      5209      5210      5193      5194      5209      5211
      5193      5194      5209      5215      5194      5193      5197      5198
      5194      5193      5197      5199      5194      5193      5197      5200
      5194      5193      5201      5202      5194      5193      5201      5203
      5194      5193      5201      5204      5194      5193      5205      5206
      5194      5193      5205      5207      5194      5193      5205      5208
      5194      5209      5215      5212      5195      5194      5193      5197
      5195      5194      5193      5201      5195      5194      5193      5205
      5195      5194      5209      5210      5195      5194      5209      5211
      5195      5194      5209      5215      5196      5194      5193      5197
      5196      5194      5193      5201      5196      5194      5193      5205
      5196      5194      5209      5210      5196      5194      5209      5211
      5196      5194      5209      5215      5197      5193      5194      5209
      5197      5193      5201      5202      5197      5193      5201      5203
      5197      5193      5201      5204      5197      5193      5205      5206
      5197      5193      5205      5207      5197      5193      5205      5208
      5198      5197      5193      5201      5198      5197      5193      5205
      5199      5197      5193      5201      5199      5197      5193      5205
      5200      5197      5193      5201      5200      5197      5193      5205
      5201      5193      5194      5209      5201      5193      5205      5206
      5201      5193      5205      5207      5201      5193      5205      5208
      5202      5201      5193      5205      5203      5201      5193      5205
      5204      5201      5193      5205      5205      5193      5194      5209
      5209      5215      5212      5213      5209      5215      5212      5214
      5209      5215      5212      5216      5210      5209      5215      5212
      5211      5209      5215      5212      5212      5216      5217      5218
      5212      5216      5217      5219      5212      5216      5217      5220
      5213      5212      5216      5217      5214      5212      5216      5217
      5215      5212      5216      5217      5216      5217      5220      5221
      5216      5217      5220      5222      5216      5217      5220      5228
      5217      5220      5222      5223      5217      5220      5228      5229
      5217      5220      5228      5230      5217      5220      5228      5231
      5218      5217      5220      5221      5218      5217      5220      5222
      5218      5217      5220      5228      5219      5217      5220      5221
      5219      5217      5220      5222      5219      5217      5220      5228
      5220      5222      5223      5224      5220      5222      5223      5225
      5220      5228      5231      5232      5221      5220      5222      5223
      5221      5220      5228      5229      5221      5220      5228      5230
      5221      5220      5228      5231      5222      5220      5228      5229
      5222      5220      5228      5230      5222      5220      5228      5231
      5222      5223      5225      5226      5222      5223      5225      5227
      5222      5223      5225      5237      5223      5222      5220      5228
      5223      5225      5237      5238      5223      5225      5237      5239
      5223      5225      5237      5240      5224      5223      5225      5226
      5224      5223      5225      5227      5224      5223      5225      5237
      5225      5237      5240      5241      5225      5237      5240      5242
      5225      5237      5240      5243      5226      5225      5237      5238
      5226      5225      5237      5239      5226      5225      5237      5240
      5227      5225      5237      5238      5227      5225      5237      5239
      5227      5225      5237      5240      5228      5231      5232      5233
      5228      5231      5232      5234      5229      5228      5231      5232
      5230      5228      5231      5232      5231      5232      5234      5235
      5231      5232      5234      5236      5231      5232      5234      5284
      5232      5234      5284      5285      5232      5234      5284      5286
      5232      5234      5284      5287      5233      5232      5234      5235
      5233      5232      5234      5236      5233      5232      5234      5284
      5234      5284      5287      5288      5234      5284      5287      5289
      5234      5284      5287      5290      5235      5234      5284      5285
      5235      5234      5284      5286      5235      5234      5284      5287
      5236      5234      5284      5285      5236      5234      5284      5286
      5236      5234      5284      5287      5237      5240      5243      5244
      5237      5240      5243      5245      5237      5240      5243      5246
      5238      5237      5240      5241      5238      5237      5240      5242
      5238      5237      5240      5243      5239      5237      5240      5241
      5239      5237      5240      5242      5239      5237      5240      5243
      5240      5243      5246      5247      5240      5243      5246      5248
      5240      5243      5246      5249      5241      5240      5243      5244
      5241      5240      5243      5245      5241      5240      5243      5246
      5242      5240      5243      5244      5242      5240      5243      5245
      5242      5240      5243      5246      5243      5246      5249      5250
      5243      5246      5249      5251      5243      5246      5249      5252
      5244      5243      5246      5247      5244      5243      5246      5248
      5244      5243      5246      5249      5245      5243      5246      5247
      5245      5243      5246      5248      5245      5243      5246      5249
      5246      5249      5252      5253      5246      5249      5252      5254
      5246      5249      5252      5255      5247      5246      5249      5250
      5247      5246      5249      5251      5247      5246      5249      5252
      5248      5246      5249      5250      5248      5246      5249      5251
      5248      5246      5249      5252      5249      5252      5255      5256
      5249      5252      5255      5257      5250      5249      5252      5253
      5250      5249      5252      5254      5250      5249      5252      5255
      5251      5249      5252      5253      5251      5249      5252      5254
      5251      5249      5252      5255      5252      5255      5257      5258
      5252      5255      5257      5259      5253      5252      5255      5256
      5253      5252      5255      5257      5254      5252      5255      5256
      5254      5252      5255      5257      5255      5257      5259      5260
      5255      5257      5259      5261      5255      5257      5259      5262
      5256      5255      5257      5258      5256      5255      5257      5259
      5257      5259      5262      5263      5257      5259      5262      5264
      5257      5259      5262      5265      5258      5257      5259      5260
      5258      5257      5259      5261      5258      5257      5259      5262
      5259      5262      5265      5266      5259      5262      5265      5267
      5259      5262      5265      5268      5260      5259      5262      5263
      5260      5259      5262      5264      5260      5259      5262      5265
      5261      5259      5262      5263      5261      5259      5262      5264
      5261      5259      5262      5265      5262      5265      5268      5269
      5262      5265      5268      5270      5262      5265      5268      5271
      5263      5262      5265      5266      5263      5262      5265      5267
      5263      5262      5265      5268      5264      5262      5265      5266
      5264      5262      5265      5267      5264      5262      5265      5268
      5265      5268      5271      5272      5265      5268      5271      5273
      5265      5268      5271      5274      5266      5265      5268      5269
      5266      5265      5268      5270      5266      5265      5268      5271
      5267      5265      5268      5269      5267      5265      5268      5270
      5267      5265      5268      5271      5268      5271      5274      5275
      5268      5271      5274      5276      5268      5271      5274      5277
      5269      5268      5271      5272      5269      5268      5271      5273
      5269      5268      5271      5274      5270      5268      5271      5272
      5270      5268      5271      5273      5270      5268      5271      5274
      5271      5274      5277      5278      5271      5274      5277      5279
      5271      5274      5277      5280      5272      5271      5274      5275
      5272      5271      5274      5276      5272      5271      5274      5277
      5273      5271      5274      5275      5273      5271      5274      5276
      5273      5271      5274      5277      5274      5277      5280      5281
      5274      5277      5280      5282      5274      5277      5280      5283
      5275      5274      5277      5278      5275      5274      5277      5279
      5275      5274      5277      5280      5276      5274      5277      5278
      5276      5274      5277      5279      5276      5274      5277      5280
      5278      5277      5280      5281      5278      5277      5280      5282
      5278      5277      5280      5283      5279      5277      5280      5281
      5279      5277      5280      5282      5279      5277      5280      5283
      5284      5287      5290      5291      5284      5287      5290      5292
      5284      5287      5290      5293      5285      5284      5287      5288
      5285      5284      5287      5289      5285      5284      5287      5290
      5286      5284      5287      5288      5286      5284      5287      5289
      5286      5284      5287      5290      5287      5290      5293      5294
      5287      5290      5293      5295      5287      5290      5293      5296
      5288      5287      5290      5291      5288      5287      5290      5292
      5288      5287      5290      5293      5289      5287      5290      5291
      5289      5287      5290      5292      5289      5287      5290      5293
      5290      5293      5296      5297      5290      5293      5296      5298
      5290      5293      5296      5299      5291      5290      5293      5294
      5291      5290      5293      5295      5291      5290      5293      5296
      5292      5290      5293      5294      5292      5290      5293      5295
      5292      5290      5293      5296      5293      5296      5299      5300
      5293      5296      5299      5301      5293      5296      5299      5302
      5294      5293      5296      5297      5294      5293      5296      5298
      5294      5293      5296      5299      5295      5293      5296      5297
      5295      5293      5296      5298      5295      5293      5296      5299
      5296      5299      5302      5303      5296      5299      5302      5304
      5297      5296      5299      5300      5297      5296      5299      5301
      5297      5296      5299      5302      5298      5296      5299      5300
      5298      5296      5299      5301      5298      5296      5299      5302
      5299      5302      5304      5305      5299      5302      5304      5306
      5300      5299      5302      5303      5300      5299      5302      5304
      5301      5299      5302      5303      5301      5299      5302      5304
      5302      5304      5306      5307      5302      5304      5306      5308
      5302      5304      5306      5309      5303      5302      5304      5305
      5303      5302      5304      5306      5304      5306      5309      5310
      5304      5306      5309      5311      5304      5306      5309      5312
      5305      5304      5306      5307      5305      5304      5306      5308
      5305      5304      5306      5309      5306      5309      5312      5313
      5306      5309      5312      5314      5306      5309      5312      5315
      5307      5306      5309      5310      5307      5306      5309      5311
      5307      5306      5309      5312      5308      5306      5309      5310
      5308      5306      5309      5311      5308      5306      5309      5312
      5309      5312      5315      5316      5309      5312      5315      5317
      5309      5312      5315      5318      5310      5309      5312      5313
      5310      5309      5312      5314      5310      5309      5312      5315
      5311      5309      5312      5313      5311      5309      5312      5314
      5311      5309      5312      5315      5312      5315      5318      5319
      5312      5315      5318      5320      5312      5315      5318      5321
      5313      5312      5315      5316      5313      5312      5315      5317
      5313      5312      5315      5318      5314      5312      5315      5316
      5314      5312      5315      5317      5314      5312      5315      5318
      5315      5318      5321      5322      5315      5318      5321      5323
      5315      5318      5321      5324      5316      5315      5318      5319
      5316      5315      5318      5320      5316      5315      5318      5321
      5317      5315      5318      5319      5317      5315      5318      5320
      5317      5315      5318      5321      5318      5321      5324      5325
      5318      5321      5324      5326      5318      5321      5324      5327
      5319      5318      5321      5322      5319      5318      5321      5323
      5319      5318      5321      5324      5320      5318      5321      5322
      5320      5318      5321      5323      5320      5318      5321      5324
      5321      5324      5327      5328      5321      5324      5327      5329
      5321      5324      5327      5330      5322      5321      5324      5325
      5322      5321      5324      5326      5322      5321      5324      5327
      5323      5321      5324      5325      5323      5321      5324      5326
      5323      5321      5324      5327      5325      5324      5327      5328
      5325      5324      5327      5329      5325      5324      5327      5330
      5326      5324      5327      5328      5326      5324      5327      5329
      5326      5324      5327      5330      5331      5332      5347      5348
      5331      5332      5347      5349      5331      5332      5347      5353
      5332      5331      5335      5336      5332      5331      5335      5337
      5332      5331      5335      5338      5332      5331      5339      5340
      5332      5331      5339      5341      5332      5331      5339      5342
      5332      5331      5343      5344      5332      5331      5343      5345
      5332      5331      5343      5346      5332      5347      5353      5350
      5333      5332      5331      5335      5333      5332      5331      5339
      5333      5332      5331      5343      5333      5332      5347      5348
      5333      5332      5347      5349      5333      5332      5347      5353
      5334      5332      5331      5335      5334      5332      5331      5339
      5334      5332      5331      5343      5334      5332      5347      5348
      5334      5332      5347      5349      5334      5332      5347      5353
      5335      5331      5332      5347      5335      5331      5339      5340
      5335      5331      5339      5341      5335      5331      5339      5342
      5335      5331      5343      5344      5335      5331      5343      5345
      5335      5331      5343      5346      5336      5335      5331      5339
      5336      5335      5331      5343      5337      5335      5331      5339
      5337      5335      5331      5343      5338      5335      5331      5339
      5338      5335      5331      5343      5339      5331      5332      5347
      5339      5331      5343      5344      5339      5331      5343      5345
      5339      5331      5343      5346      5340      5339      5331      5343
      5341      5339      5331      5343      5342      5339      5331      5343
      5343      5331      5332      5347      5347      5353      5350      5351
      5347      5353      5350      5352      5347      5353      5350      5354
      5348      5347      5353      5350      5349      5347      5353      5350
      5350      5354      5355      5356      5350      5354      5355      5357
      5350      5354      5355      5358      5351      5350      5354      5355
      5352      5350      5354      5355      5353      5350      5354      5355
      5354      5355      5358      5359      5354      5355      5358      5360
      5354      5355      5358      5366      5355      5358      5360      5361
      5355      5358      5366      5367      5355      5358      5366      5368
      5355      5358      5366      5369      5356      5355      5358      5359
      5356      5355      5358      5360      5356      5355      5358      5366
      5357      5355      5358      5359      5357      5355      5358      5360
      5357      5355      5358      5366      5358      5360      5361      5362
      5358      5360      5361      5363      5358      5366      5369      5370
      5359      5358      5360      5361      5359      5358      5366      5367
      5359      5358      5366      5368      5359      5358      5366      5369
      5360      5358      5366      5367      5360      5358      5366      5368
      5360      5358      5366      5369      5360      5361      5363      5364
      5360      5361      5363      5365      5360      5361      5363      5375
      5361      5360      5358      5366      5361      5363      5375      5376
      5361      5363      5375      5377      5361      5363      5375      5378
      5362      5361      5363      5364      5362      5361      5363      5365
      5362      5361      5363      5375      5363      5375      5378      5379
      5363      5375      5378      5380      5363      5375      5378      5381
      5364      5363      5375      5376      5364      5363      5375      5377
      5364      5363      5375      5378      5365      5363      5375      5376
      5365      5363      5375      5377      5365      5363      5375      5378
      5366      5369      5370      5371      5366      5369      5370      5372
      5367      5366      5369      5370      5368      5366      5369      5370
      5369      5370      5372      5373      5369      5370      5372      5374
      5369      5370      5372      5422      5370      5372      5422      5423
      5370      5372      5422      5424      5370      5372      5422      5425
      5371      5370      5372      5373      5371      5370      5372      5374
      5371      5370      5372      5422      5372      5422      5425      5426
      5372      5422      5425      5427      5372      5422      5425      5428
      5373      5372      5422      5423      5373      5372      5422      5424
      5373      5372      5422      5425      5374      5372      5422      5423
      5374      5372      5422      5424      5374      5372      5422      5425
      5375      5378      5381      5382      5375      5378      5381      5383
      5375      5378      5381      5384      5376      5375      5378      5379
      5376      5375      5378      5380      5376      5375      5378      5381
      5377      5375      5378      5379      5377      5375      5378      5380
      5377      5375      5378      5381      5378      5381      5384      5385
      5378      5381      5384      5386      5378      5381      5384      5387
      5379      5378      5381      5382      5379      5378      5381      5383
      5379      5378      5381      5384      5380      5378      5381      5382
      5380      5378      5381      5383      5380      5378      5381      5384
      5381      5384      5387      5388      5381      5384      5387      5389
      5381      5384      5387      5390      5382      5381      5384      5385
      5382      5381      5384      5386      5382      5381      5384      5387
      5383      5381      5384      5385      5383      5381      5384      5386
      5383      5381      5384      5387      5384      5387      5390      5391
      5384      5387      5390      5392      5384      5387      5390      5393
      5385      5384      5387      5388      5385      5384      5387      5389
      5385      5384      5387      5390      5386      5384      5387      5388
      5386      5384      5387      5389      5386      5384      5387      5390
      5387      5390      5393      5394      5387      5390      5393      5395
      5388      5387      5390      5391      5388      5387      5390      5392
      5388      5387      5390      5393      5389      5387      5390      5391
      5389      5387      5390      5392      5389      5387      5390      5393
      5390      5393      5395      5396      5390      5393      5395      5397
      5391      5390      5393      5394      5391      5390      5393      5395
      5392      5390      5393      5394      5392      5390      5393      5395
      5393      5395      5397      5398      5393      5395      5397      5399
      5393      5395      5397      5400      5394      5393      5395      5396
      5394      5393      5395      5397      5395      5397      5400      5401
      5395      5397      5400      5402      5395      5397      5400      5403
      5396      5395      5397      5398      5396      5395      5397      5399
      5396      5395      5397      5400      5397      5400      5403      5404
      5397      5400      5403      5405      5397      5400      5403      5406
      5398      5397      5400      5401      5398      5397      5400      5402
      5398      5397      5400      5403      5399      5397      5400      5401
      5399      5397      5400      5402      5399      5397      5400      5403
      5400      5403      5406      5407      5400      5403      5406      5408
      5400      5403      5406      5409      5401      5400      5403      5404
      5401      5400      5403      5405      5401      5400      5403      5406
      5402      5400      5403      5404      5402      5400      5403      5405
      5402      5400      5403      5406      5403      5406      5409      5410
      5403      5406      5409      5411      5403      5406      5409      5412
      5404      5403      5406      5407      5404      5403      5406      5408
      5404      5403      5406      5409      5405      5403      5406      5407
      5405      5403      5406      5408      5405      5403      5406      5409
      5406      5409      5412      5413      5406      5409      5412      5414
      5406      5409      5412      5415      5407      5406      5409      5410
      5407      5406      5409      5411      5407      5406      5409      5412
      5408      5406      5409      5410      5408      5406      5409      5411
      5408      5406      5409      5412      5409      5412      5415      5416
      5409      5412      5415      5417      5409      5412      5415      5418
      5410      5409      5412      5413      5410      5409      5412      5414
      5410      5409      5412      5415      5411      5409      5412      5413
      5411      5409      5412      5414      5411      5409      5412      5415
      5412      5415      5418      5419      5412      5415      5418      5420
      5412      5415      5418      5421      5413      5412      5415      5416
      5413      5412      5415      5417      5413      5412      5415      5418
      5414      5412      5415      5416      5414      5412      5415      5417
      5414      5412      5415      5418      5416      5415      5418      5419
      5416      5415      5418      5420      5416      5415      5418      5421
      5417      5415      5418      5419      5417      5415      5418      5420
      5417      5415      5418      5421      5422      5425      5428      5429
      5422      5425      5428      5430      5422      5425      5428      5431
      5423      5422      5425      5426      5423      5422      5425      5427
      5423      5422      5425      5428      5424      5422      5425      5426
      5424      5422      5425      5427      5424      5422      5425      5428
      5425      5428      5431      5432      5425      5428      5431      5433
      5425      5428      5431      5434      5426      5425      5428      5429
      5426      5425      5428      5430      5426      5425      5428      5431
      5427      5425      5428      5429      5427      5425      5428      5430
      5427      5425      5428      5431      5428      5431      5434      5435
      5428      5431      5434      5436      5428      5431      5434      5437
      5429      5428      5431      5432      5429      5428      5431      5433
      5429      5428      5431      5434      5430      5428      5431      5432
      5430      5428      5431      5433      5430      5428      5431      5434
      5431      5434      5437      5438      5431      5434      5437      5439
      5431      5434      5437      5440      5432      5431      5434      5435
      5432      5431      5434      5436      5432      5431      5434      5437
      5433      5431      5434      5435      5433      5431      5434      5436
      5433      5431      5434      5437      5434      5437      5440      5441
      5434      5437      5440      5442      5435      5434      5437      5438
      5435      5434      5437      5439      5435      5434      5437      5440
      5436      5434      5437      5438      5436      5434      5437      5439
      5436      5434      5437      5440      5437      5440      5442      5443
      5437      5440      5442      5444      5438      5437      5440      5441
      5438      5437      5440      5442      5439      5437      5440      5441
      5439      5437      5440      5442      5440      5442      5444      5445
      5440      5442      5444      5446      5440      5442      5444      5447
      5441      5440      5442      5443      5441      5440      5442      5444
      5442      5444      5447      5448      5442      5444      5447      5449
      5442      5444      5447      5450      5443      5442      5444      5445
      5443      5442      5444      5446      5443      5442      5444      5447
      5444      5447      5450      5451      5444      5447      5450      5452
      5444      5447      5450      5453      5445      5444      5447      5448
      5445      5444      5447      5449      5445      5444      5447      5450
      5446      5444      5447      5448      5446      5444      5447      5449
      5446      5444      5447      5450      5447      5450      5453      5454
      5447      5450      5453      5455      5447      5450      5453      5456
      5448      5447      5450      5451      5448      5447      5450      5452
      5448      5447      5450      5453      5449      5447      5450      5451
      5449      5447      5450      5452      5449      5447      5450      5453
      5450      5453      5456      5457      5450      5453      5456      5458
      5450      5453      5456      5459      5451      5450      5453      5454
      5451      5450      5453      5455      5451      5450      5453      5456
      5452      5450      5453      5454      5452      5450      5453      5455
      5452      5450      5453      5456      5453      5456      5459      5460
      5453      5456      5459      5461      5453      5456      5459      5462
      5454      5453      5456      5457      5454      5453      5456      5458
      5454      5453      5456      5459      5455      5453      5456      5457
      5455      5453      5456      5458      5455      5453      5456      5459
      5456      5459      5462      5463      5456      5459      5462      5464
      5456      5459      5462      5465      5457      5456      5459      5460
      5457      5456      5459      5461      5457      5456      5459      5462
      5458      5456      5459      5460      5458      5456      5459      5461
      5458      5456      5459      5462      5459      5462      5465      5466
      5459      5462      5465      5467      5459      5462      5465      5468
      5460      5459      5462      5463      5460      5459      5462      5464
      5460      5459      5462      5465      5461      5459      5462      5463
      5461      5459      5462      5464      5461      5459      5462      5465
      5463      5462      5465      5466      5463      5462      5465      5467
      5463      5462      5465      5468      5464      5462      5465      5466
      5464      5462      5465      5467      5464      5462      5465      5468
      5469      5470      5485      5486      5469      5470      5485      5487
      5469      5470      5485      5491      5470      5469      5473      5474
      5470      5469      5473      5475      5470      5469      5473      5476
      5470      5469      5477      5478      5470      5469      5477      5479
      5470      5469      5477      5480      5470      5469      5481      5482
      5470      5469      5481      5483      5470      5469      5481      5484
      5470      5485      5491      5488      5471      5470      5469      5473
      5471      5470      5469      5477      5471      5470      5469      5481
      5471      5470      5485      5486      5471      5470      5485      5487
      5471      5470      5485      5491      5472      5470      5469      5473
      5472      5470      5469      5477      5472      5470      5469      5481
      5472      5470      5485      5486      5472      5470      5485      5487
      5472      5470      5485      5491      5473      5469      5470      5485
      5473      5469      5477      5478      5473      5469      5477      5479
      5473      5469      5477      5480      5473      5469      5481      5482
      5473      5469      5481      5483      5473      5469      5481      5484
      5474      5473      5469      5477      5474      5473      5469      5481
      5475      5473      5469      5477      5475      5473      5469      5481
      5476      5473      5469      5477      5476      5473      5469      5481
      5477      5469      5470      5485      5477      5469      5481      5482
      5477      5469      5481      5483      5477      5469      5481      5484
      5478      5477      5469      5481      5479      5477      5469      5481
      5480      5477      5469      5481      5481      5469      5470      5485
      5485      5491      5488      5489      5485      5491      5488      5490
      5485      5491      5488      5492      5486      5485      5491      5488
      5487      5485      5491      5488      5488      5492      5493      5494
      5488      5492      5493      5495      5488      5492      5493      5496
      5489      5488      5492      5493      5490      5488      5492      5493
      5491      5488      5492      5493      5492      5493      5496      5497
      5492      5493      5496      5498      5492      5493      5496      5504
      5493      5496      5498      5499      5493      5496      5504      5505
      5493      5496      5504      5506      5493      5496      5504      5507
      5494      5493      5496      5497      5494      5493      5496      5498
      5494      5493      5496      5504      5495      5493      5496      5497
      5495      5493      5496      5498      5495      5493      5496      5504
      5496      5498      5499      5500      5496      5498      5499      5501
      5496      5504      5507      5508      5497      5496      5498      5499
      5497      5496      5504      5505      5497      5496      5504      5506
      5497      5496      5504      5507      5498      5496      5504      5505
      5498      5496      5504      5506      5498      5496      5504      5507
      5498      5499      5501      5502      5498      5499      5501      5503
      5498      5499      5501      5513      5499      5498      5496      5504
      5499      5501      5513      5514      5499      5501      5513      5515
      5499      5501      5513      5516      5500      5499      5501      5502
      5500      5499      5501      5503      5500      5499      5501      5513
      5501      5513      5516      5517      5501      5513      5516      5518
      5501      5513      5516      5519      5502      5501      5513      5514
      5502      5501      5513      5515      5502      5501      5513      5516
      5503      5501      5513      5514      5503      5501      5513      5515
      5503      5501      5513      5516      5504      5507      5508      5509
      5504      5507      5508      5510      5505      5504      5507      5508
      5506      5504      5507      5508      5507      5508      5510      5511
      5507      5508      5510      5512      5507      5508      5510      5560
      5508      5510      5560      5561      5508      5510      5560      5562
      5508      5510      5560      5563      5509      5508      5510      5511
      5509      5508      5510      5512      5509      5508      5510      5560
      5510      5560      5563      5564      5510      5560      5563      5565
      5510      5560      5563      5566      5511      5510      5560      5561
      5511      5510      5560      5562      5511      5510      5560      5563
      5512      5510      5560      5561      5512      5510      5560      5562
      5512      5510      5560      5563      5513      5516      5519      5520
      5513      5516      5519      5521      5513      5516      5519      5522
      5514      5513      5516      5517      5514      5513      5516      5518
      5514      5513      5516      5519      5515      5513      5516      5517
      5515      5513      5516      5518      5515      5513      5516      5519
      5516      5519      5522      5523      5516      5519      5522      5524
      5516      5519      5522      5525      5517      5516      5519      5520
      5517      5516      5519      5521      5517      5516      5519      5522
      5518      5516      5519      5520      5518      5516      5519      5521
      5518      5516      5519      5522      5519      5522      5525      5526
      5519      5522      5525      5527      5519      5522      5525      5528
      5520      5519      5522      5523      5520      5519      5522      5524
      5520      5519      5522      5525      5521      5519      5522      5523
      5521      5519      5522      5524      5521      5519      5522      5525
      5522      5525      5528      5529      5522      5525      5528      5530
      5522      5525      5528      5531      5523      5522      5525      5526
      5523      5522      5525      5527      5523      5522      5525      5528
      5524      5522      5525      5526      5524      5522      5525      5527
      5524      5522      5525      5528      5525      5528      5531      5532
      5525      5528      5531      5533      5526      5525      5528      5529
      5526      5525      5528      5530      5526      5525      5528      5531
      5527      5525      5528      5529      5527      5525      5528      5530
      5527      5525      5528      5531      5528      5531      5533      5534
      5528      5531      5533      5535      5529      5528      5531      5532
      5529      5528      5531      5533      5530      5528      5531      5532
      5530      5528      5531      5533      5531      5533      5535      5536
      5531      5533      5535      5537      5531      5533      5535      5538
      5532      5531      5533      5534      5532      5531      5533      5535
      5533      5535      5538      5539      5533      5535      5538      5540
      5533      5535      5538      5541      5534      5533      5535      5536
      5534      5533      5535      5537      5534      5533      5535      5538
      5535      5538      5541      5542      5535      5538      5541      5543
      5535      5538      5541      5544      5536      5535      5538      5539
      5536      5535      5538      5540      5536      5535      5538      5541
      5537      5535      5538      5539      5537      5535      5538      5540
      5537      5535      5538      5541      5538      5541      5544      5545
      5538      5541      5544      5546      5538      5541      5544      5547
      5539      5538      5541      5542      5539      5538      5541      5543
      5539      5538      5541      5544      5540      5538      5541      5542
      5540      5538      5541      5543      5540      5538      5541      5544
      5541      5544      5547      5548      5541      5544      5547      5549
      5541      5544      5547      5550      5542      5541      5544      5545
      5542      5541      5544      5546      5542      5541      5544      5547
      5543      5541      5544      5545      5543      5541      5544      5546
      5543      5541      5544      5547      5544      5547      5550      5551
      5544      5547      5550      5552      5544      5547      5550      5553
      5545      5544      5547      5548      5545      5544      5547      5549
      5545      5544      5547      5550      5546      5544      5547      5548
      5546      5544      5547      5549      5546      5544      5547      5550
      5547      5550      5553      5554      5547      5550      5553      5555
      5547      5550      5553      5556      5548      5547      5550      5551
      5548      5547      5550      5552      5548      5547      5550      5553
      5549      5547      5550      5551      5549      5547      5550      5552
      5549      5547      5550      5553      5550      5553      5556      5557
      5550      5553      5556      5558      5550      5553      5556      5559
      5551      5550      5553      5554      5551      5550      5553      5555
      5551      5550      5553      5556      5552      5550      5553      5554
      5552      5550      5553      5555      5552      5550      5553      5556
      5554      5553      5556      5557      5554      5553      5556      5558
      5554      5553      5556      5559      5555      5553      5556      5557
      5555      5553      5556      5558      5555      5553      5556      5559
      5560      5563      5566      5567      5560      5563      5566      5568
      5560      5563      5566      5569      5561      5560      5563      5564
      5561      5560      5563      5565      5561      5560      5563      5566
      5562      5560      5563      5564      5562      5560      5563      5565
      5562      5560      5563      5566      5563      5566      5569      5570
      5563      5566      5569      5571      5563      5566      5569      5572
      5564      5563      5566      5567      5564      5563      5566      5568
      5564      5563      5566      5569      5565      5563      5566      5567
      5565      5563      5566      5568      5565      5563      5566      5569
      5566      5569      5572      5573      5566      5569      5572      5574
      5566      5569      5572      5575      5567      5566      5569      5570
      5567      5566      5569      5571      5567      5566      5569      5572
      5568      5566      5569      5570      5568      5566      5569      5571
      5568      5566      5569      5572      5569      5572      5575      5576
      5569      5572      5575      5577      5569      5572      5575      5578
      5570      5569      5572      5573      5570      5569      5572      5574
      5570      5569      5572      5575      5571      5569      5572      5573
      5571      5569      5572      5574      5571      5569      5572      5575
      5572      5575      5578      5579      5572      5575      5578      5580
      5573      5572      5575      5576      5573      5572      5575      5577
      5573      5572      5575      5578      5574      5572      5575      5576
      5574      5572      5575      5577      5574      5572      5575      5578
      5575      5578      5580      5581      5575      5578      5580      5582
      5576      5575      5578      5579      5576      5575      5578      5580
      5577      5575      5578      5579      5577      5575      5578      5580
      5578      5580      5582      5583      5578      5580      5582      5584
      5578      5580      5582      5585      5579      5578      5580      5581
      5579      5578      5580      5582      5580      5582      5585      5586
      5580      5582      5585      5587      5580      5582      5585      5588
      5581      5580      5582      5583      5581      5580      5582      5584
      5581      5580      5582      5585      5582      5585      5588      5589
      5582      5585      5588      5590      5582      5585      5588      5591
      5583      5582      5585      5586      5583      5582      5585      5587
      5583      5582      5585      5588      5584      5582      5585      5586
      5584      5582      5585      5587      5584      5582      5585      5588
      5585      5588      5591      5592      5585      5588      5591      5593
      5585      5588      5591      5594      5586      5585      5588      5589
      5586      5585      5588      5590      5586      5585      5588      5591
      5587      5585      5588      5589      5587      5585      5588      5590
      5587      5585      5588      5591      5588      5591      5594      5595
      5588      5591      5594      5596      5588      5591      5594      5597
      5589      5588      5591      5592      5589      5588      5591      5593
      5589      5588      5591      5594      5590      5588      5591      5592
      5590      5588      5591      5593      5590      5588      5591      5594
      5591      5594      5597      5598      5591      5594      5597      5599
      5591      5594      5597      5600      5592      5591      5594      5595
      5592      5591      5594      5596      5592      5591      5594      5597
      5593      5591      5594      5595      5593      5591      5594      5596
      5593      5591      5594      5597      5594      5597      5600      5601
      5594      5597      5600      5602      5594      5597      5600      5603
      5595      5594      5597      5598      5595      5594      5597      5599
      5595      5594      5597      5600      5596      5594      5597      5598
      5596      5594      5597      5599      5596      5594      5597      5600
      5597      5600      5603      5604      5597      5600      5603      5605
      5597      5600      5603      5606      5598      5597      5600      5601
      5598      5597      5600      5602      5598      5597      5600      5603
      5599      5597      5600      5601      5599      5597      5600      5602
      5599      5597      5600      5603      5601      5600      5603      5604
      5601      5600      5603      5605      5601      5600      5603      5606
      5602      5600      5603      5604      5602      5600      5603      5605
      5602      5600      5603      5606      5607      5608      5623      5624
      5607      5608      5623      5625      5607      5608      5623      5629
      5608      5607      5611      5612      5608      5607      5611      5613
      5608      5607      5611      5614      5608      5607      5615      5616
      5608      5607      5615      5617      5608      5607      5615      5618
      5608      5607      5619      5620      5608      5607      5619      5621
      5608      5607      5619      5622      5608      5623      5629      5626
      5609      5608      5607      5611      5609      5608      5607      5615
      5609      5608      5607      5619      5609      5608      5623      5624
      5609      5608      5623      5625      5609      5608      5623      5629
      5610      5608      5607      5611      5610      5608      5607      5615
      5610      5608      5607      5619      5610      5608      5623      5624
      5610      5608      5623      5625      5610      5608      5623      5629
      5611      5607      5608      5623      5611      5607      5615      5616
      5611      5607      5615      5617      5611      5607      5615      5618
      5611      5607      5619      5620      5611      5607      5619      5621
      5611      5607      5619      5622      5612      5611      5607      5615
      5612      5611      5607      5619      5613      5611      5607      5615
      5613      5611      5607      5619      5614      5611      5607      5615
      5614      5611      5607      5619      5615      5607      5608      5623
      5615      5607      5619      5620      5615      5607      5619      5621
      5615      5607      5619      5622      5616      5615      5607      5619
      5617      5615      5607      5619      5618      5615      5607      5619
      5619      5607      5608      5623      5623      5629      5626      5627
      5623      5629      5626      5628      5623      5629      5626      5630
      5624      5623      5629      5626      5625      5623      5629      5626
      5626      5630      5631      5632      5626      5630      5631      5633
      5626      5630      5631      5634      5627      5626      5630      5631
      5628      5626      5630      5631      5629      5626      5630      5631
      5630      5631      5634      5635      5630      5631      5634      5636
      5630      5631      5634      5642      5631      5634      5636      5637
      5631      5634      5642      5643      5631      5634      5642      5644
      5631      5634      5642      5645      5632      5631      5634      5635
      5632      5631      5634      5636      5632      5631      5634      5642
      5633      5631      5634      5635      5633      5631      5634      5636
      5633      5631      5634      5642      5634      5636      5637      5638
      5634      5636      5637      5639      5634      5642      5645      5646
      5635      5634      5636      5637      5635      5634      5642      5643
      5635      5634      5642      5644      5635      5634      5642      5645
      5636      5634      5642      5643      5636      5634      5642      5644
      5636      5634      5642      5645      5636      5637      5639      5640
      5636      5637      5639      5641      5636      5637      5639      5651
      5637      5636      5634      5642      5637      5639      5651      5652
      5637      5639      5651      5653      5637      5639      5651      5654
      5638      5637      5639      5640      5638      5637      5639      5641
      5638      5637      5639      5651      5639      5651      5654      5655
      5639      5651      5654      5656      5639      5651      5654      5657
      5640      5639      5651      5652      5640      5639      5651      5653
      5640      5639      5651      5654      5641      5639      5651      5652
      5641      5639      5651      5653      5641      5639      5651      5654
      5642      5645      5646      5647      5642      5645      5646      5648
      5643      5642      5645      5646      5644      5642      5645      5646
      5645      5646      5648      5649      5645      5646      5648      5650
      5645      5646      5648      5698      5646      5648      5698      5699
      5646      5648      5698      5700      5646      5648      5698      5701
      5647      5646      5648      5649      5647      5646      5648      5650
      5647      5646      5648      5698      5648      5698      5701      5702
      5648      5698      5701      5703      5648      5698      5701      5704
      5649      5648      5698      5699      5649      5648      5698      5700
      5649      5648      5698      5701      5650      5648      5698      5699
      5650      5648      5698      5700      5650      5648      5698      5701
      5651      5654      5657      5658      5651      5654      5657      5659
      5651      5654      5657      5660      5652      5651      5654      5655
      5652      5651      5654      5656      5652      5651      5654      5657
      5653      5651      5654      5655      5653      5651      5654      5656
      5653      5651      5654      5657      5654      5657      5660      5661
      5654      5657      5660      5662      5654      5657      5660      5663
      5655      5654      5657      5658      5655      5654      5657      5659
      5655      5654      5657      5660      5656      5654      5657      5658
      5656      5654      5657      5659      5656      5654      5657      5660
      5657      5660      5663      5664      5657      5660      5663      5665
      5657      5660      5663      5666      5658      5657      5660      5661
      5658      5657      5660      5662      5658      5657      5660      5663
      5659      5657      5660      5661      5659      5657      5660      5662
      5659      5657      5660      5663      5660      5663      5666      5667
      5660      5663      5666      5668      5660      5663      5666      5669
      5661      5660      5663      5664      5661      5660      5663      5665
      5661      5660      5663      5666      5662      5660      5663      5664
      5662      5660      5663      5665      5662      5660      5663      5666
      5663      5666      5669      5670      5663      5666      5669      5671
      5664      5663      5666      5667      5664      5663      5666      5668
      5664      5663      5666      5669      5665      5663      5666      5667
      5665      5663      5666      5668      5665      5663      5666      5669
      5666      5669      5671      5672      5666      5669      5671      5673
      5667      5666      5669      5670      5667      5666      5669      5671
      5668      5666      5669      5670      5668      5666      5669      5671
      5669      5671      5673      5674      5669      5671      5673      5675
      5669      5671      5673      5676      5670      5669      5671      5672
      5670      5669      5671      5673      5671      5673      5676      5677
      5671      5673      5676      5678      5671      5673      5676      5679
      5672      5671      5673      5674      5672      5671      5673      5675
      5672      5671      5673      5676      5673      5676      5679      5680
      5673      5676      5679      5681      5673      5676      5679      5682
      5674      5673      5676      5677      5674      5673      5676      5678
      5674      5673      5676      5679      5675      5673      5676      5677
      5675      5673      5676      5678      5675      5673      5676      5679
      5676      5679      5682      5683      5676      5679      5682      5684
      5676      5679      5682      5685      5677      5676      5679      5680
      5677      5676      5679      5681      5677      5676      5679      5682
      5678      5676      5679      5680      5678      5676      5679      5681
      5678      5676      5679      5682      5679      5682      5685      5686
      5679      5682      5685      5687      5679      5682      5685      5688
      5680      5679      5682      5683      5680      5679      5682      5684
      5680      5679      5682      5685      5681      5679      5682      5683
      5681      5679      5682      5684      5681      5679      5682      5685
      5682      5685      5688      5689      5682      5685      5688      5690
      5682      5685      5688      5691      5683      5682      5685      5686
      5683      5682      5685      5687      5683      5682      5685      5688
      5684      5682      5685      5686      5684      5682      5685      5687
      5684      5682      5685      5688      5685      5688      5691      5692
      5685      5688      5691      5693      5685      5688      5691      5694
      5686      5685      5688      5689      5686      5685      5688      5690
      5686      5685      5688      5691      5687      5685      5688      5689
      5687      5685      5688      5690      5687      5685      5688      5691
      5688      5691      5694      5695      5688      5691      5694      5696
      5688      5691      5694      5697      5689      5688      5691      5692
      5689      5688      5691      5693      5689      5688      5691      5694
      5690      5688      5691      5692      5690      5688      5691      5693
      5690      5688      5691      5694      5692      5691      5694      5695
      5692      5691      5694      5696      5692      5691      5694      5697
      5693      5691      5694      5695      5693      5691      5694      5696
      5693      5691      5694      5697      5698      5701      5704      5705
      5698      5701      5704      5706      5698      5701      5704      5707
      5699      5698      5701      5702      5699      5698      5701      5703
      5699      5698      5701      5704      5700      5698      5701      5702
      5700      5698      5701      5703      5700      5698      5701      5704
      5701      5704      5707      5708      5701      5704      5707      5709
      5701      5704      5707      5710      5702      5701      5704      5705
      5702      5701      5704      5706      5702      5701      5704      5707
      5703      5701      5704      5705      5703      5701      5704      5706
      5703      5701      5704      5707      5704      5707      5710      5711
      5704      5707      5710      5712      5704      5707      5710      5713
      5705      5704      5707      5708      5705      5704      5707      5709
      5705      5704      5707      5710      5706      5704      5707      5708
      5706      5704      5707      5709      5706      5704      5707      5710
      5707      5710      5713      5714      5707      5710      5713      5715
      5707      5710      5713      5716      5708      5707      5710      5711
      5708      5707      5710      5712      5708      5707      5710      5713
      5709      5707      5710      5711      5709      5707      5710      5712
      5709      5707      5710      5713      5710      5713      5716      5717
      5710      5713      5716      5718      5711      5710      5713      5714
      5711      5710      5713      5715      5711      5710      5713      5716
      5712      5710      5713      5714      5712      5710      5713      5715
      5712      5710      5713      5716      5713      5716      5718      5719
      5713      5716      5718      5720      5714      5713      5716      5717
      5714      5713      5716      5718      5715      5713      5716      5717
      5715      5713      5716      5718      5716      5718      5720      5721
      5716      5718      5720      5722      5716      5718      5720      5723
      5717      5716      5718      5719      5717      5716      5718      5720
      5718      5720      5723      5724      5718      5720      5723      5725
      5718      5720      5723      5726      5719      5718      5720      5721
      5719      5718      5720      5722      5719      5718      5720      5723
      5720      5723      5726      5727      5720      5723      5726      5728
      5720      5723      5726      5729      5721      5720      5723      5724
      5721      5720      5723      5725      5721      5720      5723      5726
      5722      5720      5723      5724      5722      5720      5723      5725
      5722      5720      5723      5726      5723      5726      5729      5730
      5723      5726      5729      5731      5723      5726      5729      5732
      5724      5723      5726      5727      5724      5723      5726      5728
      5724      5723      5726      5729      5725      5723      5726      5727
      5725      5723      5726      5728      5725      5723      5726      5729
      5726      5729      5732      5733      5726      5729      5732      5734
      5726      5729      5732      5735      5727      5726      5729      5730
      5727      5726      5729      5731      5727      5726      5729      5732
      5728      5726      5729      5730      5728      5726      5729      5731
      5728      5726      5729      5732      5729      5732      5735      5736
      5729      5732      5735      5737      5729      5732      5735      5738
      5730      5729      5732      5733      5730      5729      5732      5734
      5730      5729      5732      5735      5731      5729      5732      5733
      5731      5729      5732      5734      5731      5729      5732      5735
      5732      5735      5738      5739      5732      5735      5738      5740
      5732      5735      5738      5741      5733      5732      5735      5736
      5733      5732      5735      5737      5733      5732      5735      5738
      5734      5732      5735      5736      5734      5732      5735      5737
      5734      5732      5735      5738      5735      5738      5741      5742
      5735      5738      5741      5743      5735      5738      5741      5744
      5736      5735      5738      5739      5736      5735      5738      5740
      5736      5735      5738      5741      5737      5735      5738      5739
      5737      5735      5738      5740      5737      5735      5738      5741
      5739      5738      5741      5742      5739      5738      5741      5743
      5739      5738      5741      5744      5740      5738      5741      5742
      5740      5738      5741      5743      5740      5738      5741      5744
      5745      5746      5761      5762      5745      5746      5761      5763
      5745      5746      5761      5767      5746      5745      5749      5750
      5746      5745      5749      5751      5746      5745      5749      5752
      5746      5745      5753      5754      5746      5745      5753      5755
      5746      5745      5753      5756      5746      5745      5757      5758
      5746      5745      5757      5759      5746      5745      5757      5760
      5746      5761      5767      5764      5747      5746      5745      5749
      5747      5746      5745      5753      5747      5746      5745      5757
      5747      5746      5761      5762      5747      5746      5761      5763
      5747      5746      5761      5767      5748      5746      5745      5749
      5748      5746      5745      5753      5748      5746      5745      5757
      5748      5746      5761      5762      5748      5746      5761      5763
      5748      5746      5761      5767      5749      5745      5746      5761
      5749      5745      5753      5754      5749      5745      5753      5755
      5749      5745      5753      5756      5749      5745      5757      5758
      5749      5745      5757      5759      5749      5745      5757      5760
      5750      5749      5745      5753      5750      5749      5745      5757
      5751      5749      5745      5753      5751      5749      5745      5757
      5752      5749      5745      5753      5752      5749      5745      5757
      5753      5745      5746      5761      5753      5745      5757      5758
      5753      5745      5757      5759      5753      5745      5757      5760
      5754      5753      5745      5757      5755      5753      5745      5757
      5756      5753      5745      5757      5757      5745      5746      5761
      5761      5767      5764      5765      5761      5767      5764      5766
      5761      5767      5764      5768      5762      5761      5767      5764
      5763      5761      5767      5764      5764      5768      5769      5770
      5764      5768      5769      5771      5764      5768      5769      5772
      5765      5764      5768      5769      5766      5764      5768      5769
      5767      5764      5768      5769      5768      5769      5772      5773
      5768      5769      5772      5774      5768      5769      5772      5780
      5769      5772      5774      5775      5769      5772      5780      5781
      5769      5772      5780      5782      5769      5772      5780      5783
      5770      5769      5772      5773      5770      5769      5772      5774
      5770      5769      5772      5780      5771      5769      5772      5773
      5771      5769      5772      5774      5771      5769      5772      5780
      5772      5774      5775      5776      5772      5774      5775      5777
      5772      5780      5783      5784      5773      5772      5774      5775
      5773      5772      5780      5781      5773      5772      5780      5782
      5773      5772      5780      5783      5774      5772      5780      5781
      5774      5772      5780      5782      5774      5772      5780      5783
      5774      5775      5777      5778      5774      5775      5777      5779
      5774      5775      5777      5789      5775      5774      5772      5780
      5775      5777      5789      5790      5775      5777      5789      5791
      5775      5777      5789      5792      5776      5775      5777      5778
      5776      5775      5777      5779      5776      5775      5777      5789
      5777      5789      5792      5793      5777      5789      5792      5794
      5777      5789      5792      5795      5778      5777      5789      5790
      5778      5777      5789      5791      5778      5777      5789      5792
      5779      5777      5789      5790      5779      5777      5789      5791
      5779      5777      5789      5792      5780      5783      5784      5785
      5780      5783      5784      5786      5781      5780      5783      5784
      5782      5780      5783      5784      5783      5784      5786      5787
      5783      5784      5786      5788      5783      5784      5786      5836
      5784      5786      5836      5837      5784      5786      5836      5838
      5784      5786      5836      5839      5785      5784      5786      5787
      5785      5784      5786      5788      5785      5784      5786      5836
      5786      5836      5839      5840      5786      5836      5839      5841
      5786      5836      5839      5842      5787      5786      5836      5837
      5787      5786      5836      5838      5787      5786      5836      5839
      5788      5786      5836      5837      5788      5786      5836      5838
      5788      5786      5836      5839      5789      5792      5795      5796
      5789      5792      5795      5797      5789      5792      5795      5798
      5790      5789      5792      5793      5790      5789      5792      5794
      5790      5789      5792      5795      5791      5789      5792      5793
      5791      5789      5792      5794      5791      5789      5792      5795
      5792      5795      5798      5799      5792      5795      5798      5800
      5792      5795      5798      5801      5793      5792      5795      5796
      5793      5792      5795      5797      5793      5792      5795      5798
      5794      5792      5795      5796      5794      5792      5795      5797
      5794      5792      5795      5798      5795      5798      5801      5802
      5795      5798      5801      5803      5795      5798      5801      5804
      5796      5795      5798      5799      5796      5795      5798      5800
      5796      5795      5798      5801      5797      5795      5798      5799
      5797      5795      5798      5800      5797      5795      5798      5801
      5798      5801      5804      5805      5798      5801      5804      5806
      5798      5801      5804      5807      5799      5798      5801      5802
      5799      5798      5801      5803      5799      5798      5801      5804
      5800      5798      5801      5802      5800      5798      5801      5803
      5800      5798      5801      5804      5801      5804      5807      5808
      5801      5804      5807      5809      5802      5801      5804      5805
      5802      5801      5804      5806      5802      5801      5804      5807
      5803      5801      5804      5805      5803      5801      5804      5806
      5803      5801      5804      5807      5804      5807      5809      5810
      5804      5807      5809      5811      5805      5804      5807      5808
      5805      5804      5807      5809      5806      5804      5807      5808
      5806      5804      5807      5809      5807      5809      5811      5812
      5807      5809      5811      5813      5807      5809      5811      5814
      5808      5807      5809      5810      5808      5807      5809      5811
      5809      5811      5814      5815      5809      5811      5814      5816
      5809      5811      5814      5817      5810      5809      5811      5812
      5810      5809      5811      5813      5810      5809      5811      5814
      5811      5814      5817      5818      5811      5814      5817      5819
      5811      5814      5817      5820      5812      5811      5814      5815
      5812      5811      5814      5816      5812      5811      5814      5817
      5813      5811      5814      5815      5813      5811      5814      5816
      5813      5811      5814      5817      5814      5817      5820      5821
      5814      5817      5820      5822      5814      5817      5820      5823
      5815      5814      5817      5818      5815      5814      5817      5819
      5815      5814      5817      5820      5816      5814      5817      5818
      5816      5814      5817      5819      5816      5814      5817      5820
      5817      5820      5823      5824      5817      5820      5823      5825
      5817      5820      5823      5826      5818      5817      5820      5821
      5818      5817      5820      5822      5818      5817      5820      5823
      5819      5817      5820      5821      5819      5817      5820      5822
      5819      5817      5820      5823      5820      5823      5826      5827
      5820      5823      5826      5828      5820      5823      5826      5829
      5821      5820      5823      5824      5821      5820      5823      5825
      5821      5820      5823      5826      5822      5820      5823      5824
      5822      5820      5823      5825      5822      5820      5823      5826
      5823      5826      5829      5830      5823      5826      5829      5831
      5823      5826      5829      5832      5824      5823      5826      5827
      5824      5823      5826      5828      5824      5823      5826      5829
      5825      5823      5826      5827      5825      5823      5826      5828
      5825      5823      5826      5829      5826      5829      5832      5833
      5826      5829      5832      5834      5826      5829      5832      5835
      5827      5826      5829      5830      5827      5826      5829      5831
      5827      5826      5829      5832      5828      5826      5829      5830
      5828      5826      5829      5831      5828      5826      5829      5832
      5830      5829      5832      5833      5830      5829      5832      5834
      5830      5829      5832      5835      5831      5829      5832      5833
      5831      5829      5832      5834      5831      5829      5832      5835
      5836      5839      5842      5843      5836      5839      5842      5844
      5836      5839      5842      5845      5837      5836      5839      5840
      5837      5836      5839      5841      5837      5836      5839      5842
      5838      5836      5839      5840      5838      5836      5839      5841
      5838      5836      5839      5842      5839      5842      5845      5846
      5839      5842      5845      5847      5839      5842      5845      5848
      5840      5839      5842      5843      5840      5839      5842      5844
      5840      5839      5842      5845      5841      5839      5842      5843
      5841      5839      5842      5844      5841      5839      5842      5845
      5842      5845      5848      5849      5842      5845      5848      5850
      5842      5845      5848      5851      5843      5842      5845      5846
      5843      5842      5845      5847      5843      5842      5845      5848
      5844      5842      5845      5846      5844      5842      5845      5847
      5844      5842      5845      5848      5845      5848      5851      5852
      5845      5848      5851      5853      5845      5848      5851      5854
      5846      5845      5848      5849      5846      5845      5848      5850
      5846      5845      5848      5851      5847      5845      5848      5849
      5847      5845      5848      5850      5847      5845      5848      5851
      5848      5851      5854      5855      5848      5851      5854      5856
      5849      5848      5851      5852      5849      5848      5851      5853
      5849      5848      5851      5854      5850      5848      5851      5852
      5850      5848      5851      5853      5850      5848      5851      5854
      5851      5854      5856      5857      5851      5854      5856      5858
      5852      5851      5854      5855      5852      5851      5854      5856
      5853      5851      5854      5855      5853      5851      5854      5856
      5854      5856      5858      5859      5854      5856      5858      5860
      5854      5856      5858      5861      5855      5854      5856      5857
      5855      5854      5856      5858      5856      5858      5861      5862
      5856      5858      5861      5863      5856      5858      5861      5864
      5857      5856      5858      5859      5857      5856      5858      5860
      5857      5856      5858      5861      5858      5861      5864      5865
      5858      5861      5864      5866      5858      5861      5864      5867
      5859      5858      5861      5862      5859      5858      5861      5863
      5859      5858      5861      5864      5860      5858      5861      5862
      5860      5858      5861      5863      5860      5858      5861      5864
      5861      5864      5867      5868      5861      5864      5867      5869
      5861      5864      5867      5870      5862      5861      5864      5865
      5862      5861      5864      5866      5862      5861      5864      5867
      5863      5861      5864      5865      5863      5861      5864      5866
      5863      5861      5864      5867      5864      5867      5870      5871
      5864      5867      5870      5872      5864      5867      5870      5873
      5865      5864      5867      5868      5865      5864      5867      5869
      5865      5864      5867      5870      5866      5864      5867      5868
      5866      5864      5867      5869      5866      5864      5867      5870
      5867      5870      5873      5874      5867      5870      5873      5875
      5867      5870      5873      5876      5868      5867      5870      5871
      5868      5867      5870      5872      5868      5867      5870      5873
      5869      5867      5870      5871      5869      5867      5870      5872
      5869      5867      5870      5873      5870      5873      5876      5877
      5870      5873      5876      5878      5870      5873      5876      5879
      5871      5870      5873      5874      5871      5870      5873      5875
      5871      5870      5873      5876      5872      5870      5873      5874
      5872      5870      5873      5875      5872      5870      5873      5876
      5873      5876      5879      5880      5873      5876      5879      5881
      5873      5876      5879      5882      5874      5873      5876      5877
      5874      5873      5876      5878      5874      5873      5876      5879
      5875      5873      5876      5877      5875      5873      5876      5878
      5875      5873      5876      5879      5877      5876      5879      5880
      5877      5876      5879      5881      5877      5876      5879      5882
      5878      5876      5879      5880      5878      5876      5879      5881
      5878      5876      5879      5882      5883      5884      5899      5900
      5883      5884      5899      5901      5883      5884      5899      5905
      5884      5883      5887      5888      5884      5883      5887      5889
      5884      5883      5887      5890      5884      5883      5891      5892
      5884      5883      5891      5893      5884      5883      5891      5894
      5884      5883      5895      5896      5884      5883      5895      5897
      5884      5883      5895      5898      5884      5899      5905      5902
      5885      5884      5883      5887      5885      5884      5883      5891
      5885      5884      5883      5895      5885      5884      5899      5900
      5885      5884      5899      5901      5885      5884      5899      5905
      5886      5884      5883      5887      5886      5884      5883      5891
      5886      5884      5883      5895      5886      5884      5899      5900
      5886      5884      5899      5901      5886      5884      5899      5905
      5887      5883      5884      5899      5887      5883      5891      5892
      5887      5883      5891      5893      5887      5883      5891      5894
      5887      5883      5895      5896      5887      5883      5895      5897
      5887      5883      5895      5898      5888      5887      5883      5891
      5888      5887      5883      5895      5889      5887      5883      5891
      5889      5887      5883      5895      5890      5887      5883      5891
      5890      5887      5883      5895      5891      5883      5884      5899
      5891      5883      5895      5896      5891      5883      5895      5897
      5891      5883      5895      5898      5892      5891      5883      5895
      5893      5891      5883      5895      5894      5891      5883      5895
      5895      5883      5884      5899      5899      5905      5902      5903
      5899      5905      5902      5904      5899      5905      5902      5906
      5900      5899      5905      5902      5901      5899      5905      5902
      5902      5906      5907      5908      5902      5906      5907      5909
      5902      5906      5907      5910      5903      5902      5906      5907
      5904      5902      5906      5907      5905      5902      5906      5907
      5906      5907      5910      5911      5906      5907      5910      5912
      5906      5907      5910      5918      5907      5910      5912      5913
      5907      5910      5918      5919      5907      5910      5918      5920
      5907      5910      5918      5921      5908      5907      5910      5911
      5908      5907      5910      5912      5908      5907      5910      5918
      5909      5907      5910      5911      5909      5907      5910      5912
      5909      5907      5910      5918      5910      5912      5913      5914
      5910      5912      5913      5915      5910      5918      5921      5922
      5911      5910      5912      5913      5911      5910      5918      5919
      5911      5910      5918      5920      5911      5910      5918      5921
      5912      5910      5918      5919      5912      5910      5918      5920
      5912      5910      5918      5921      5912      5913      5915      5916
      5912      5913      5915      5917      5912      5913      5915      5927
      5913      5912      5910      5918      5913      5915      5927      5928
      5913      5915      5927      5929      5913      5915      5927      5930
      5914      5913      5915      5916      5914      5913      5915      5917
      5914      5913      5915      5927      5915      5927      5930      5931
      5915      5927      5930      5932      5915      5927      5930      5933
      5916      5915      5927      5928      5916      5915      5927      5929
      5916      5915      5927      5930      5917      5915      5927      5928
      5917      5915      5927      5929      5917      5915      5927      5930
      5918      5921      5922      5923      5918      5921      5922      5924
      5919      5918      5921      5922      5920      5918      5921      5922
      5921      5922      5924      5925      5921      5922      5924      5926
      5921      5922      5924      5974      5922      5924      5974      5975
      5922      5924      5974      5976      5922      5924      5974      5977
      5923      5922      5924      5925      5923      5922      5924      5926
      5923      5922      5924      5974      5924      5974      5977      5978
      5924      5974      5977      5979      5924      5974      5977      5980
      5925      5924      5974      5975      5925      5924      5974      5976
      5925      5924      5974      5977      5926      5924      5974      5975
      5926      5924      5974      5976      5926      5924      5974      5977
      5927      5930      5933      5934      5927      5930      5933      5935
      5927      5930      5933      5936      5928      5927      5930      5931
      5928      5927      5930      5932      5928      5927      5930      5933
      5929      5927      5930      5931      5929      5927      5930      5932
      5929      5927      5930      5933      5930      5933      5936      5937
      5930      5933      5936      5938      5930      5933      5936      5939
      5931      5930      5933      5934      5931      5930      5933      5935
      5931      5930      5933      5936      5932      5930      5933      5934
      5932      5930      5933      5935      5932      5930      5933      5936
      5933      5936      5939      5940      5933      5936      5939      5941
      5933      5936      5939      5942      5934      5933      5936      5937
      5934      5933      5936      5938      5934      5933      5936      5939
      5935      5933      5936      5937      5935      5933      5936      5938
      5935      5933      5936      5939      5936      5939      5942      5943
      5936      5939      5942      5944      5936      5939      5942      5945
      5937      5936      5939      5940      5937      5936      5939      5941
      5937      5936      5939      5942      5938      5936      5939      5940
      5938      5936      5939      5941      5938      5936      5939      5942
      5939      5942      5945      5946      5939      5942      5945      5947
      5940      5939      5942      5943      5940      5939      5942      5944
      5940      5939      5942      5945      5941      5939      5942      5943
      5941      5939      5942      5944      5941      5939      5942      5945
      5942      5945      5947      5948      5942      5945      5947      5949
      5943      5942      5945      5946      5943      5942      5945      5947
      5944      5942      5945      5946      5944      5942      5945      5947
      5945      5947      5949      5950      5945      5947      5949      5951
      5945      5947      5949      5952      5946      5945      5947      5948
      5946      5945      5947      5949      5947      5949      5952      5953
      5947      5949      5952      5954      5947      5949      5952      5955
      5948      5947      5949      5950      5948      5947      5949      5951
      5948      5947      5949      5952      5949      5952      5955      5956
      5949      5952      5955      5957      5949      5952      5955      5958
      5950      5949      5952      5953      5950      5949      5952      5954
      5950      5949      5952      5955      5951      5949      5952      5953
      5951      5949      5952      5954      5951      5949      5952      5955
      5952      5955      5958      5959      5952      5955      5958      5960
      5952      5955      5958      5961      5953      5952      5955      5956
      5953      5952      5955      5957      5953      5952      5955      5958
      5954      5952      5955      5956      5954      5952      5955      5957
      5954      5952      5955      5958      5955      5958      5961      5962
      5955      5958      5961      5963      5955      5958      5961      5964
      5956      5955      5958      5959      5956      5955      5958      5960
      5956      5955      5958      5961      5957      5955      5958      5959
      5957      5955      5958      5960      5957      5955      5958      5961
      5958      5961      5964      5965      5958      5961      5964      5966
      5958      5961      5964      5967      5959      5958      5961      5962
      5959      5958      5961      5963      5959      5958      5961      5964
      5960      5958      5961      5962      5960      5958      5961      5963
      5960      5958      5961      5964      5961      5964      5967      5968
      5961      5964      5967      5969      5961      5964      5967      5970
      5962      5961      5964      5965      5962      5961      5964      5966
      5962      5961      5964      5967      5963      5961      5964      5965
      5963      5961      5964      5966      5963      5961      5964      5967
      5964      5967      5970      5971      5964      5967      5970      5972
      5964      5967      5970      5973      5965      5964      5967      5968
      5965      5964      5967      5969      5965      5964      5967      5970
      5966      5964      5967      5968      5966      5964      5967      5969
      5966      5964      5967      5970      5968      5967      5970      5971
      5968      5967      5970      5972      5968      5967      5970      5973
      5969      5967      5970      5971      5969      5967      5970      5972
      5969      5967      5970      5973      5974      5977      5980      5981
      5974      5977      5980      5982      5974      5977      5980      5983
      5975      5974      5977      5978      5975      5974      5977      5979
      5975      5974      5977      5980      5976      5974      5977      5978
      5976      5974      5977      5979      5976      5974      5977      5980
      5977      5980      5983      5984      5977      5980      5983      5985
      5977      5980      5983      5986      5978      5977      5980      5981
      5978      5977      5980      5982      5978      5977      5980      5983
      5979      5977      5980      5981      5979      5977      5980      5982
      5979      5977      5980      5983      5980      5983      5986      5987
      5980      5983      5986      5988      5980      5983      5986      5989
      5981      5980      5983      5984      5981      5980      5983      5985
      5981      5980      5983      5986      5982      5980      5983      5984
      5982      5980      5983      5985      5982      5980      5983      5986
      5983      5986      5989      5990      5983      5986      5989      5991
      5983      5986      5989      5992      5984      5983      5986      5987
      5984      5983      5986      5988      5984      5983      5986      5989
      5985      5983      5986      5987      5985      5983      5986      5988
      5985      5983      5986      5989      5986      5989      5992      5993
      5986      5989      5992      5994      5987      5986      5989      5990
      5987      5986      5989      5991      5987      5986      5989      5992
      5988      5986      5989      5990      5988      5986      5989      5991
      5988      5986      5989      5992      5989      5992      5994      5995
      5989      5992      5994      5996      5990      5989      5992      5993
      5990      5989      5992      5994      5991      5989      5992      5993
      5991      5989      5992      5994      5992      5994      5996      5997
      5992      5994      5996      5998      5992      5994      5996      5999
      5993      5992      5994      5995      5993      5992      5994      5996
      5994      5996      5999      6000      5994      5996      5999      6001
      5994      5996      5999      6002      5995      5994      5996      5997
      5995      5994      5996      5998      5995      5994      5996      5999
      5996      5999      6002      6003      5996      5999      6002      6004
      5996      5999      6002      6005      5997      5996      5999      6000
      5997      5996      5999      6001      5997      5996      5999      6002
      5998      5996      5999      6000      5998      5996      5999      6001
      5998      5996      5999      6002      5999      6002      6005      6006
      5999      6002      6005      6007      5999      6002      6005      6008
      6000      5999      6002      6003      6000      5999      6002      6004
      6000      5999      6002      6005      6001      5999      6002      6003
      6001      5999      6002      6004      6001      5999      6002      6005
      6002      6005      6008      6009      6002      6005      6008      6010
      6002      6005      6008      6011      6003      6002      6005      6006
      6003      6002      6005      6007      6003      6002      6005      6008
      6004      6002      6005      6006      6004      6002      6005      6007
      6004      6002      6005      6008      6005      6008      6011      6012
      6005      6008      6011      6013      6005      6008      6011      6014
      6006      6005      6008      6009      6006      6005      6008      6010
      6006      6005      6008      6011      6007      6005      6008      6009
      6007      6005      6008      6010      6007      6005      6008      6011
      6008      6011      6014      6015      6008      6011      6014      6016
      6008      6011      6014      6017      6009      6008      6011      6012
      6009      6008      6011      6013      6009      6008      6011      6014
      6010      6008      6011      6012      6010      6008      6011      6013
      6010      6008      6011      6014      6011      6014      6017      6018
      6011      6014      6017      6019      6011      6014      6017      6020
      6012      6011      6014      6015      6012      6011      6014      6016
      6012      6011      6014      6017      6013      6011      6014      6015
      6013      6011      6014      6016      6013      6011      6014      6017
      6015      6014      6017      6018      6015      6014      6017      6019
      6015      6014      6017      6020      6016      6014      6017      6018
      6016      6014      6017      6019      6016      6014      6017      6020
      6021      6022      6037      6038      6021      6022      6037      6039
      6021      6022      6037      6043      6022      6021      6025      6026
      6022      6021      6025      6027      6022      6021      6025      6028
      6022      6021      6029      6030      6022      6021      6029      6031
      6022      6021      6029      6032      6022      6021      6033      6034
      6022      6021      6033      6035      6022      6021      6033      6036
      6022      6037      6043      6040      6023      6022      6021      6025
      6023      6022      6021      6029      6023      6022      6021      6033
      6023      6022      6037      6038      6023      6022      6037      6039
      6023      6022      6037      6043      6024      6022      6021      6025
      6024      6022      6021      6029      6024      6022      6021      6033
      6024      6022      6037      6038      6024      6022      6037      6039
      6024      6022      6037      6043      6025      6021      6022      6037
      6025      6021      6029      6030      6025      6021      6029      6031
      6025      6021      6029      6032      6025      6021      6033      6034
      6025      6021      6033      6035      6025      6021      6033      6036
      6026      6025      6021      6029      6026      6025      6021      6033
      6027      6025      6021      6029      6027      6025      6021      6033
      6028      6025      6021      6029      6028      6025      6021      6033
      6029      6021      6022      6037      6029      6021      6033      6034
      6029      6021      6033      6035      6029      6021      6033      6036
      6030      6029      6021      6033      6031      6029      6021      6033
      6032      6029      6021      6033      6033      6021      6022      6037
      6037      6043      6040      6041      6037      6043      6040      6042
      6037      6043      6040      6044      6038      6037      6043      6040
      6039      6037      6043      6040      6040      6044      6045      6046
      6040      6044      6045      6047      6040      6044      6045      6048
      6041      6040      6044      6045      6042      6040      6044      6045
      6043      6040      6044      6045      6044      6045      6048      6049
      6044      6045      6048      6050      6044      6045      6048      6056
      6045      6048      6050      6051      6045      6048      6056      6057
      6045      6048      6056      6058      6045      6048      6056      6059
      6046      6045      6048      6049      6046      6045      6048      6050
      6046      6045      6048      6056      6047      6045      6048      6049
      6047      6045      6048      6050      6047      6045      6048      6056
      6048      6050      6051      6052      6048      6050      6051      6053
      6048      6056      6059      6060      6049      6048      6050      6051
      6049      6048      6056      6057      6049      6048      6056      6058
      6049      6048      6056      6059      6050      6048      6056      6057
      6050      6048      6056      6058      6050      6048      6056      6059
      6050      6051      6053      6054      6050      6051      6053      6055
      6050      6051      6053      6065      6051      6050      6048      6056
      6051      6053      6065      6066      6051      6053      6065      6067
      6051      6053      6065      6068      6052      6051      6053      6054
      6052      6051      6053      6055      6052      6051      6053      6065
      6053      6065      6068      6069      6053      6065      6068      6070
      6053      6065      6068      6071      6054      6053      6065      6066
      6054      6053      6065      6067      6054      6053      6065      6068
      6055      6053      6065      6066      6055      6053      6065      6067
      6055      6053      6065      6068      6056      6059      6060      6061
      6056      6059      6060      6062      6057      6056      6059      6060
      6058      6056      6059      6060      6059      6060      6062      6063
      6059      6060      6062      6064      6059      6060      6062      6112
      6060      6062      6112      6113      6060      6062      6112      6114
      6060      6062      6112      6115      6061      6060      6062      6063
      6061      6060      6062      6064      6061      6060      6062      6112
      6062      6112      6115      6116      6062      6112      6115      6117
      6062      6112      6115      6118      6063      6062      6112      6113
      6063      6062      6112      6114      6063      6062      6112      6115
      6064      6062      6112      6113      6064      6062      6112      6114
      6064      6062      6112      6115      6065      6068      6071      6072
      6065      6068      6071      6073      6065      6068      6071      6074
      6066      6065      6068      6069      6066      6065      6068      6070
      6066      6065      6068      6071      6067      6065      6068      6069
      6067      6065      6068      6070      6067      6065      6068      6071
      6068      6071      6074      6075      6068      6071      6074      6076
      6068      6071      6074      6077      6069      6068      6071      6072
      6069      6068      6071      6073      6069      6068      6071      6074
      6070      6068      6071      6072      6070      6068      6071      6073
      6070      6068      6071      6074      6071      6074      6077      6078
      6071      6074      6077      6079      6071      6074      6077      6080
      6072      6071      6074      6075      6072      6071      6074      6076
      6072      6071      6074      6077      6073      6071      6074      6075
      6073      6071      6074      6076      6073      6071      6074      6077
      6074      6077      6080      6081      6074      6077      6080      6082
      6074      6077      6080      6083      6075      6074      6077      6078
      6075      6074      6077      6079      6075      6074      6077      6080
      6076      6074      6077      6078      6076      6074      6077      6079
      6076      6074      6077      6080      6077      6080      6083      6084
      6077      6080      6083      6085      6078      6077      6080      6081
      6078      6077      6080      6082      6078      6077      6080      6083
      6079      6077      6080      6081      6079      6077      6080      6082
      6079      6077      6080      6083      6080      6083      6085      6086
      6080      6083      6085      6087      6081      6080      6083      6084
      6081      6080      6083      6085      6082      6080      6083      6084
      6082      6080      6083      6085      6083      6085      6087      6088
      6083      6085      6087      6089      6083      6085      6087      6090
      6084      6083      6085      6086      6084      6083      6085      6087
      6085      6087      6090      6091      6085      6087      6090      6092
      6085      6087      6090      6093      6086      6085      6087      6088
      6086      6085      6087      6089      6086      6085      6087      6090
      6087      6090      6093      6094      6087      6090      6093      6095
      6087      6090      6093      6096      6088      6087      6090      6091
      6088      6087      6090      6092      6088      6087      6090      6093
      6089      6087      6090      6091      6089      6087      6090      6092
      6089      6087      6090      6093      6090      6093      6096      6097
      6090      6093      6096      6098      6090      6093      6096      6099
      6091      6090      6093      6094      6091      6090      6093      6095
      6091      6090      6093      6096      6092      6090      6093      6094
      6092      6090      6093      6095      6092      6090      6093      6096
      6093      6096      6099      6100      6093      6096      6099      6101
      6093      6096      6099      6102      6094      6093      6096      6097
      6094      6093      6096      6098      6094      6093      6096      6099
      6095      6093      6096      6097      6095      6093      6096      6098
      6095      6093      6096      6099      6096      6099      6102      6103
      6096      6099      6102      6104      6096      6099      6102      6105
      6097      6096      6099      6100      6097      6096      6099      6101
      6097      6096      6099      6102      6098      6096      6099      6100
      6098      6096      6099      6101      6098      6096      6099      6102
      6099      6102      6105      6106      6099      6102      6105      6107
      6099      6102      6105      6108      6100      6099      6102      6103
      6100      6099      6102      6104      6100      6099      6102      6105
      6101      6099      6102      6103      6101      6099      6102      6104
      6101      6099      6102      6105      6102      6105      6108      6109
      6102      6105      6108      6110      6102      6105      6108      6111
      6103      6102      6105      6106      6103      6102      6105      6107
      6103      6102      6105      6108      6104      6102      6105      6106
      6104      6102      6105      6107      6104      6102      6105      6108
      6106      6105      6108      6109      6106      6105      6108      6110
      6106      6105      6108      6111      6107      6105      6108      6109
      6107      6105      6108      6110      6107      6105      6108      6111
      6112      6115      6118      6119      6112      6115      6118      6120
      6112      6115      6118      6121      6113      6112      6115      6116
      6113      6112      6115      6117      6113      6112      6115      6118
      6114      6112      6115      6116      6114      6112      6115      6117
      6114      6112      6115      6118      6115      6118      6121      6122
      6115      6118      6121      6123      6115      6118      6121      6124
      6116      6115      6118      6119      6116      6115      6118      6120
      6116      6115      6118      6121      6117      6115      6118      6119
      6117      6115      6118      6120      6117      6115      6118      6121
      6118      6121      6124      6125      6118      6121      6124      6126
      6118      6121      6124      6127      6119      6118      6121      6122
      6119      6118      6121      6123      6119      6118      6121      6124
      6120      6118      6121      6122      6120      6118      6121      6123
      6120      6118      6121      6124      6121      6124      6127      6128
      6121      6124      6127      6129      6121      6124      6127      6130
      6122      6121      6124      6125      6122      6121      6124      6126
      6122      6121      6124      6127      6123      6121      6124      6125
      6123      6121      6124      6126      6123      6121      6124      6127
      6124      6127      6130      6131      6124      6127      6130      6132
      6125      6124      6127      6128      6125      6124      6127      6129
      6125      6124      6127      6130      6126      6124      6127      6128
      6126      6124      6127      6129      6126      6124      6127      6130
      6127      6130      6132      6133      6127      6130      6132      6134
      6128      6127      6130      6131      6128      6127      6130      6132
      6129      6127      6130      6131      6129      6127      6130      6132
      6130      6132      6134      6135      6130      6132      6134      6136
      6130      6132      6134      6137      6131      6130      6132      6133
      6131      6130      6132      6134      6132      6134      6137      6138
      6132      6134      6137      6139      6132      6134      6137      6140
      6133      6132      6134      6135      6133      6132      6134      6136
      6133      6132      6134      6137      6134      6137      6140      6141
      6134      6137      6140      6142      6134      6137      6140      6143
      6135      6134      6137      6138      6135      6134      6137      6139
      6135      6134      6137      6140      6136      6134      6137      6138
      6136      6134      6137      6139      6136      6134      6137      6140
      6137      6140      6143      6144      6137      6140      6143      6145
      6137      6140      6143      6146      6138      6137      6140      6141
      6138      6137      6140      6142      6138      6137      6140      6143
      6139      6137      6140      6141      6139      6137      6140      6142
      6139      6137      6140      6143      6140      6143      6146      6147
      6140      6143      6146      6148      6140      6143      6146      6149
      6141      6140      6143      6144      6141      6140      6143      6145
      6141      6140      6143      6146      6142      6140      6143      6144
      6142      6140      6143      6145      6142      6140      6143      6146
      6143      6146      6149      6150      6143      6146      6149      6151
      6143      6146      6149      6152      6144      6143      6146      6147
      6144      6143      6146      6148      6144      6143      6146      6149
      6145      6143      6146      6147      6145      6143      6146      6148
      6145      6143      6146      6149      6146      6149      6152      6153
      6146      6149      6152      6154      6146      6149      6152      6155
      6147      6146      6149      6150      6147      6146      6149      6151
      6147      6146      6149      6152      6148      6146      6149      6150
      6148      6146      6149      6151      6148      6146      6149      6152
      6149      6152      6155      6156      6149      6152      6155      6157
      6149      6152      6155      6158      6150      6149      6152      6153
      6150      6149      6152      6154      6150      6149      6152      6155
      6151      6149      6152      6153      6151      6149      6152      6154
      6151      6149      6152      6155      6153      6152      6155      6156
      6153      6152      6155      6157      6153      6152      6155      6158
      6154      6152      6155      6156      6154      6152      6155      6157
      6154      6152      6155      6158      6159      6160      6175      6176
      6159      6160      6175      6177      6159      6160      6175      6181
      6160      6159      6163      6164      6160      6159      6163      6165
      6160      6159      6163      6166      6160      6159      6167      6168
      6160      6159      6167      6169      6160      6159      6167      6170
      6160      6159      6171      6172      6160      6159      6171      6173
      6160      6159      6171      6174      6160      6175      6181      6178
      6161      6160      6159      6163      6161      6160      6159      6167
      6161      6160      6159      6171      6161      6160      6175      6176
      6161      6160      6175      6177      6161      6160      6175      6181
      6162      6160      6159      6163      6162      6160      6159      6167
      6162      6160      6159      6171      6162      6160      6175      6176
      6162      6160      6175      6177      6162      6160      6175      6181
      6163      6159      6160      6175      6163      6159      6167      6168
      6163      6159      6167      6169      6163      6159      6167      6170
      6163      6159      6171      6172      6163      6159      6171      6173
      6163      6159      6171      6174      6164      6163      6159      6167
      6164      6163      6159      6171      6165      6163      6159      6167
      6165      6163      6159      6171      6166      6163      6159      6167
      6166      6163      6159      6171      6167      6159      6160      6175
      6167      6159      6171      6172      6167      6159      6171      6173
      6167      6159      6171      6174      6168      6167      6159      6171
      6169      6167      6159      6171      6170      6167      6159      6171
      6171      6159      6160      6175      6175      6181      6178      6179
      6175      6181      6178      6180      6175      6181      6178      6182
      6176      6175      6181      6178      6177      6175      6181      6178
      6178      6182      6183      6184      6178      6182      6183      6185
      6178      6182      6183      6186      6179      6178      6182      6183
      6180      6178      6182      6183      6181      6178      6182      6183
      6182      6183      6186      6187      6182      6183      6186      6188
      6182      6183      6186      6194      6183      6186      6188      6189
      6183      6186      6194      6195      6183      6186      6194      6196
      6183      6186      6194      6197      6184      6183      6186      6187
      6184      6183      6186      6188      6184      6183      6186      6194
      6185      6183      6186      6187      6185      6183      6186      6188
      6185      6183      6186      6194      6186      6188      6189      6190
      6186      6188      6189      6191      6186      6194      6197      6198
      6187      6186      6188      6189      6187      6186      6194      6195
      6187      6186      6194      6196      6187      6186      6194      6197
      6188      6186      6194      6195      6188      6186      6194      6196
      6188      6186      6194      6197      6188      6189      6191      6192
      6188      6189      6191      6193      6188      6189      6191      6203
      6189      6188      6186      6194      6189      6191      6203      6204
      6189      6191      6203      6205      6189      6191      6203      6206
      6190      6189      6191      6192      6190      6189      6191      6193
      6190      6189      6191      6203      6191      6203      6206      6207
      6191      6203      6206      6208      6191      6203      6206      6209
      6192      6191      6203      6204      6192      6191      6203      6205
      6192      6191      6203      6206      6193      6191      6203      6204
      6193      6191      6203      6205      6193      6191      6203      6206
      6194      6197      6198      6199      6194      6197      6198      6200
      6195      6194      6197      6198      6196      6194      6197      6198
      6197      6198      6200      6201      6197      6198      6200      6202
      6197      6198      6200      6250      6198      6200      6250      6251
      6198      6200      6250      6252      6198      6200      6250      6253
      6199      6198      6200      6201      6199      6198      6200      6202
      6199      6198      6200      6250      6200      6250      6253      6254
      6200      6250      6253      6255      6200      6250      6253      6256
      6201      6200      6250      6251      6201      6200      6250      6252
      6201      6200      6250      6253      6202      6200      6250      6251
      6202      6200      6250      6252      6202      6200      6250      6253
      6203      6206      6209      6210      6203      6206      6209      6211
      6203      6206      6209      6212      6204      6203      6206      6207
      6204      6203      6206      6208      6204      6203      6206      6209
      6205      6203      6206      6207      6205      6203      6206      6208
      6205      6203      6206      6209      6206      6209      6212      6213
      6206      6209      6212      6214      6206      6209      6212      6215
      6207      6206      6209      6210      6207      6206      6209      6211
      6207      6206      6209      6212      6208      6206      6209      6210
      6208      6206      6209      6211      6208      6206      6209      6212
      6209      6212      6215      6216      6209      6212      6215      6217
      6209      6212      6215      6218      6210      6209      6212      6213
      6210      6209      6212      6214      6210      6209      6212      6215
      6211      6209      6212      6213      6211      6209      6212      6214
      6211      6209      6212      6215      6212      6215      6218      6219
      6212      6215      6218      6220      6212      6215      6218      6221
      6213      6212      6215      6216      6213      6212      6215      6217
      6213      6212      6215      6218      6214      6212      6215      6216
      6214      6212      6215      6217      6214      6212      6215      6218
      6215      6218      6221      6222      6215      6218      6221      6223
      6216      6215      6218      6219      6216      6215      6218      6220
      6216      6215      6218      6221      6217      6215      6218      6219
      6217      6215      6218      6220      6217      6215      6218      6221
      6218      6221      6223      6224      6218      6221      6223      6225
      6219      6218      6221      6222      6219      6218      6221      6223
      6220      6218      6221      6222      6220      6218      6221      6223
      6221      6223      6225      6226      6221      6223      6225      6227
      6221      6223      6225      6228      6222      6221      6223      6224
      6222      6221      6223      6225      6223      6225      6228      6229
      6223      6225      6228      6230      6223      6225      6228      6231
      6224      6223      6225      6226      6224      6223      6225      6227
      6224      6223      6225      6228      6225      6228      6231      6232
      6225      6228      6231      6233      6225      6228      6231      6234
      6226      6225      6228      6229      6226      6225      6228      6230
      6226      6225      6228      6231      6227      6225      6228      6229
      6227      6225      6228      6230      6227      6225      6228      6231
      6228      6231      6234      6235      6228      6231      6234      6236
      6228      6231      6234      6237      6229      6228      6231      6232
      6229      6228      6231      6233      6229      6228      6231      6234
      6230      6228      6231      6232      6230      6228      6231      6233
      6230      6228      6231      6234      6231      6234      6237      6238
      6231      6234      6237      6239      6231      6234      6237      6240
      6232      6231      6234      6235      6232      6231      6234      6236
      6232      6231      6234      6237      6233      6231      6234      6235
      6233      6231      6234      6236      6233      6231      6234      6237
      6234      6237      6240      6241      6234      6237      6240      6242
      6234      6237      6240      6243      6235      6234      6237      6238
      6235      6234      6237      6239      6235      6234      6237      6240
      6236      6234      6237      6238      6236      6234      6237      6239
      6236      6234      6237      6240      6237      6240      6243      6244
      6237      6240      6243      6245      6237      6240      6243      6246
      6238      6237      6240      6241      6238      6237      6240      6242
      6238      6237      6240      6243      6239      6237      6240      6241
      6239      6237      6240      6242      6239      6237      6240      6243
      6240      6243      6246      6247      6240      6243      6246      6248
      6240      6243      6246      6249      6241      6240      6243      6244
      6241      6240      6243      6245      6241      6240      6243      6246
      6242      6240      6243      6244      6242      6240      6243      6245
      6242      6240      6243      6246      6244      6243      6246      6247
      6244      6243      6246      6248      6244      6243      6246      6249
      6245      6243      6246      6247      6245      6243      6246      6248
      6245      6243      6246      6249      6250      6253      6256      6257
      6250      6253      6256      6258      6250      6253      6256      6259
      6251      6250      6253      6254      6251      6250      6253      6255
      6251      6250      6253      6256      6252      6250      6253      6254
      6252      6250      6253      6255      6252      6250      6253      6256
      6253      6256      6259      6260      6253      6256      6259      6261
      6253      6256      6259      6262      6254      6253      6256      6257
      6254      6253      6256      6258      6254      6253      6256      6259
      6255      6253      6256      6257      6255      6253      6256      6258
      6255      6253      6256      6259      6256      6259      6262      6263
      6256      6259      6262      6264      6256      6259      6262      6265
      6257      6256      6259      6260      6257      6256      6259      6261
      6257      6256      6259      6262      6258      6256      6259      6260
      6258      6256      6259      6261      6258      6256      6259      6262
      6259      6262      6265      6266      6259      6262      6265      6267
      6259      6262      6265      6268      6260      6259      6262      6263
      6260      6259      6262      6264      6260      6259      6262      6265
      6261      6259      6262      6263      6261      6259      6262      6264
      6261      6259      6262      6265      6262      6265      6268      6269
      6262      6265      6268      6270      6263      6262      6265      6266
      6263      6262      6265      6267      6263      6262      6265      6268
      6264      6262      6265      6266      6264      6262      6265      6267
      6264      6262      6265      6268      6265      6268      6270      6271
      6265      6268      6270      6272      6266      6265      6268      6269
      6266      6265      6268      6270      6267      6265      6268      6269
      6267      6265      6268      6270      6268      6270      6272      6273
      6268      6270      6272      6274      6268      6270      6272      6275
      6269      6268      6270      6271      6269      6268      6270      6272
      6270      6272      6275      6276      6270      6272      6275      6277
      6270      6272      6275      6278      6271      6270      6272      6273
      6271      6270      6272      6274      6271      6270      6272      6275
      6272      6275      6278      6279      6272      6275      6278      6280
      6272      6275      6278      6281      6273      6272      6275      6276
      6273      6272      6275      6277      6273      6272      6275      6278
      6274      6272      6275      6276      6274      6272      6275      6277
      6274      6272      6275      6278      6275      6278      6281      6282
      6275      6278      6281      6283      6275      6278      6281      6284
      6276      6275      6278      6279      6276      6275      6278      6280
      6276      6275      6278      6281      6277      6275      6278      6279
      6277      6275      6278      6280      6277      6275      6278      6281
      6278      6281      6284      6285      6278      6281      6284      6286
      6278      6281      6284      6287      6279      6278      6281      6282
      6279      6278      6281      6283      6279      6278      6281      6284
      6280      6278      6281      6282      6280      6278      6281      6283
      6280      6278      6281      6284      6281      6284      6287      6288
      6281      6284      6287      6289      6281      6284      6287      6290
      6282      6281      6284      6285      6282      6281      6284      6286
      6282      6281      6284      6287      6283      6281      6284      6285
      6283      6281      6284      6286      6283      6281      6284      6287
      6284      6287      6290      6291      6284      6287      6290      6292
      6284      6287      6290      6293      6285      6284      6287      6288
      6285      6284      6287      6289      6285      6284      6287      6290
      6286      6284      6287      6288      6286      6284      6287      6289
      6286      6284      6287      6290      6287      6290      6293      6294
      6287      6290      6293      6295      6287      6290      6293      6296
      6288      6287      6290      6291      6288      6287      6290      6292
      6288      6287      6290      6293      6289      6287      6290      6291
      6289      6287      6290      6292      6289      6287      6290      6293
      6291      6290      6293      6294      6291      6290      6293      6295
      6291      6290      6293      6296      6292      6290      6293      6294
      6292      6290      6293      6295      6292      6290      6293      6296
      6297      6298      6313      6314      6297      6298      6313      6315
      6297      6298      6313      6319      6298      6297      6301      6302
      6298      6297      6301      6303      6298      6297      6301      6304
      6298      6297      6305      6306      6298      6297      6305      6307
      6298      6297      6305      6308      6298      6297      6309      6310
      6298      6297      6309      6311      6298      6297      6309      6312
      6298      6313      6319      6316      6299      6298      6297      6301
      6299      6298      6297      6305      6299      6298      6297      6309
      6299      6298      6313      6314      6299      6298      6313      6315
      6299      6298      6313      6319      6300      6298      6297      6301
      6300      6298      6297      6305      6300      6298      6297      6309
      6300      6298      6313      6314      6300      6298      6313      6315
      6300      6298      6313      6319      6301      6297      6298      6313
      6301      6297      6305      6306      6301      6297      6305      6307
      6301      6297      6305      6308      6301      6297      6309      6310
      6301      6297      6309      6311      6301      6297      6309      6312
      6302      6301      6297      6305      6302      6301      6297      6309
      6303      6301      6297      6305      6303      6301      6297      6309
      6304      6301      6297      6305      6304      6301      6297      6309
      6305      6297      6298      6313      6305      6297      6309      6310
      6305      6297      6309      6311      6305      6297      6309      6312
      6306      6305      6297      6309      6307      6305      6297      6309
      6308      6305      6297      6309      6309      6297      6298      6313
      6313      6319      6316      6317      6313      6319      6316      6318
      6313      6319      6316      6320      6314      6313      6319      6316
      6315      6313      6319      6316      6316      6320      6321      6322
      6316      6320      6321      6323      6316      6320      6321      6324
      6317      6316      6320      6321      6318      6316      6320      6321
      6319      6316      6320      6321      6320      6321      6324      6325
      6320      6321      6324      6326      6320      6321      6324      6332
      6321      6324      6326      6327      6321      6324      6332      6333
      6321      6324      6332      6334      6321      6324      6332      6335
      6322      6321      6324      6325      6322      6321      6324      6326
      6322      6321      6324      6332      6323      6321      6324      6325
      6323      6321      6324      6326      6323      6321      6324      6332
      6324      6326      6327      6328      6324      6326      6327      6329
      6324      6332      6335      6336      6325      6324      6326      6327
      6325      6324      6332      6333      6325      6324      6332      6334
      6325      6324      6332      6335      6326      6324      6332      6333
      6326      6324      6332      6334      6326      6324      6332      6335
      6326      6327      6329      6330      6326      6327      6329      6331
      6326      6327      6329      6341      6327      6326      6324      6332
      6327      6329      6341      6342      6327      6329      6341      6343
      6327      6329      6341      6344      6328      6327      6329      6330
      6328      6327      6329      6331      6328      6327      6329      6341
      6329      6341      6344      6345      6329      6341      6344      6346
      6329      6341      6344      6347      6330      6329      6341      6342
      6330      6329      6341      6343      6330      6329      6341      6344
      6331      6329      6341      6342      6331      6329      6341      6343
      6331      6329      6341      6344      6332      6335      6336      6337
      6332      6335      6336      6338      6333      6332      6335      6336
      6334      6332      6335      6336      6335      6336      6338      6339
      6335      6336      6338      6340      6335      6336      6338      6388
      6336      6338      6388      6389      6336      6338      6388      6390
      6336      6338      6388      6391      6337      6336      6338      6339
      6337      6336      6338      6340      6337      6336      6338      6388
      6338      6388      6391      6392      6338      6388      6391      6393
      6338      6388      6391      6394      6339      6338      6388      6389
      6339      6338      6388      6390      6339      6338      6388      6391
      6340      6338      6388      6389      6340      6338      6388      6390
      6340      6338      6388      6391      6341      6344      6347      6348
      6341      6344      6347      6349      6341      6344      6347      6350
      6342      6341      6344      6345      6342      6341      6344      6346
      6342      6341      6344      6347      6343      6341      6344      6345
      6343      6341      6344      6346      6343      6341      6344      6347
      6344      6347      6350      6351      6344      6347      6350      6352
      6344      6347      6350      6353      6345      6344      6347      6348
      6345      6344      6347      6349      6345      6344      6347      6350
      6346      6344      6347      6348      6346      6344      6347      6349
      6346      6344      6347      6350      6347      6350      6353      6354
      6347      6350      6353      6355      6347      6350      6353      6356
      6348      6347      6350      6351      6348      6347      6350      6352
      6348      6347      6350      6353      6349      6347      6350      6351
      6349      6347      6350      6352      6349      6347      6350      6353
      6350      6353      6356      6357      6350      6353      6356      6358
      6350      6353      6356      6359      6351      6350      6353      6354
      6351      6350      6353      6355      6351      6350      6353      6356
      6352      6350      6353      6354      6352      6350      6353      6355
      6352      6350      6353      6356      6353      6356      6359      6360
      6353      6356      6359      6361      6354      6353      6356      6357
      6354      6353      6356      6358      6354      6353      6356      6359
      6355      6353      6356      6357      6355      6353      6356      6358
      6355      6353      6356      6359      6356      6359      6361      6362
      6356      6359      6361      6363      6357      6356      6359      6360
      6357      6356      6359      6361      6358      6356      6359      6360
      6358      6356      6359      6361      6359      6361      6363      6364
      6359      6361      6363      6365      6359      6361      6363      6366
      6360      6359      6361      6362      6360      6359      6361      6363
      6361      6363      6366      6367      6361      6363      6366      6368
      6361      6363      6366      6369      6362      6361      6363      6364
      6362      6361      6363      6365      6362      6361      6363      6366
      6363      6366      6369      6370      6363      6366      6369      6371
      6363      6366      6369      6372      6364      6363      6366      6367
      6364      6363      6366      6368      6364      6363      6366      6369
      6365      6363      6366      6367      6365      6363      6366      6368
      6365      6363      6366      6369      6366      6369      6372      6373
      6366      6369      6372      6374      6366      6369      6372      6375
      6367      6366      6369      6370      6367      6366      6369      6371
      6367      6366      6369      6372      6368      6366      6369      6370
      6368      6366      6369      6371      6368      6366      6369      6372
      6369      6372      6375      6376      6369      6372      6375      6377
      6369      6372      6375      6378      6370      6369      6372      6373
      6370      6369      6372      6374      6370      6369      6372      6375
      6371      6369      6372      6373      6371      6369      6372      6374
      6371      6369      6372      6375      6372      6375      6378      6379
      6372      6375      6378      6380      6372      6375      6378      6381
      6373      6372      6375      6376      6373      6372      6375      6377
      6373      6372      6375      6378      6374      6372      6375      6376
      6374      6372      6375      6377      6374      6372      6375      6378
      6375      6378      6381      6382      6375      6378      6381      6383
      6375      6378      6381      6384      6376      6375      6378      6379
      6376      6375      6378      6380      6376      6375      6378      6381
      6377      6375      6378      6379      6377      6375      6378      6380
      6377      6375      6378      6381      6378      6381      6384      6385
      6378      6381      6384      6386      6378      6381      6384      6387
      6379      6378      6381      6382      6379      6378      6381      6383
      6379      6378      6381      6384      6380      6378      6381      6382
      6380      6378      6381      6383      6380      6378      6381      6384
      6382      6381      6384      6385      6382      6381      6384      6386
      6382      6381      6384      6387      6383      6381      6384      6385
      6383      6381      6384      6386      6383      6381      6384      6387
      6388      6391      6394      6395      6388      6391      6394      6396
      6388      6391      6394      6397      6389      6388      6391      6392
      6389      6388      6391      6393      6389      6388      6391      6394
      6390      6388      6391      6392      6390      6388      6391      6393
      6390      6388      6391      6394      6391      6394      6397      6398
      6391      6394      6397      6399      6391      6394      6397      6400
      6392      6391      6394      6395      6392      6391      6394      6396
      6392      6391      6394      6397      6393      6391      6394      6395
      6393      6391      6394      6396      6393      6391      6394      6397
      6394      6397      6400      6401      6394      6397      6400      6402
      6394      6397      6400      6403      6395      6394      6397      6398
      6395      6394      6397      6399      6395      6394      6397      6400
      6396      6394      6397      6398      6396      6394      6397      6399
      6396      6394      6397      6400      6397      6400      6403      6404
      6397      6400      6403      6405      6397      6400      6403      6406
      6398      6397      6400      6401      6398      6397      6400      6402
      6398      6397      6400      6403      6399      6397      6400      6401
      6399      6397      6400      6402      6399      6397      6400      6403
      6400      6403      6406      6407      6400      6403      6406      6408
      6401      6400      6403      6404      6401      6400      6403      6405
      6401      6400      6403      6406      6402      6400      6403      6404
      6402      6400      6403      6405      6402      6400      6403      6406
      6403      6406      6408      6409      6403      6406      6408      6410
      6404      6403      6406      6407      6404      6403      6406      6408
      6405      6403      6406      6407      6405      6403      6406      6408
      6406      6408      6410      6411      6406      6408      6410      6412
      6406      6408      6410      6413      6407      6406      6408      6409
      6407      6406      6408      6410      6408      6410      6413      6414
      6408      6410      6413      6415      6408      6410      6413      6416
      6409      6408      6410      6411      6409      6408      6410      6412
      6409      6408      6410      6413      6410      6413      6416      6417
      6410      6413      6416      6418      6410      6413      6416      6419
      6411      6410      6413      6414      6411      6410      6413      6415
      6411      6410      6413      6416      6412      6410      6413      6414
      6412      6410      6413      6415      6412      6410      6413      6416
      6413      6416      6419      6420      6413      6416      6419      6421
      6413      6416      6419      6422      6414      6413      6416      6417
      6414      6413      6416      6418      6414      6413      6416      6419
      6415      6413      6416      6417      6415      6413      6416      6418
      6415      6413      6416      6419      6416      6419      6422      6423
      6416      6419      6422      6424      6416      6419      6422      6425
      6417      6416      6419      6420      6417      6416      6419      6421
      6417      6416      6419      6422      6418      6416      6419      6420
      6418      6416      6419      6421      6418      6416      6419      6422
      6419      6422      6425      6426      6419      6422      6425      6427
      6419      6422      6425      6428      6420      6419      6422      6423
      6420      6419      6422      6424      6420      6419      6422      6425
      6421      6419      6422      6423      6421      6419      6422      6424
      6421      6419      6422      6425      6422      6425      6428      6429
      6422      6425      6428      6430      6422      6425      6428      6431
      6423      6422      6425      6426      6423      6422      6425      6427
      6423      6422      6425      6428      6424      6422      6425      6426
      6424      6422      6425      6427      6424      6422      6425      6428
      6425      6428      6431      6432      6425      6428      6431      6433
      6425      6428      6431      6434      6426      6425      6428      6429
      6426      6425      6428      6430      6426      6425      6428      6431
      6427      6425      6428      6429      6427      6425      6428      6430
      6427      6425      6428      6431      6429      6428      6431      6432
      6429      6428      6431      6433      6429      6428      6431      6434
      6430      6428      6431      6432      6430      6428      6431      6433
      6430      6428      6431      6434      6435      6436      6451      6452
      6435      6436      6451      6453      6435      6436      6451      6457
      6436      6435      6439      6440      6436      6435      6439      6441
      6436      6435      6439      6442      6436      6435      6443      6444
      6436      6435      6443      6445      6436      6435      6443      6446
      6436      6435      6447      6448      6436      6435      6447      6449
      6436      6435      6447      6450      6436      6451      6457      6454
      6437      6436      6435      6439      6437      6436      6435      6443
      6437      6436      6435      6447      6437      6436      6451      6452
      6437      6436      6451      6453      6437      6436      6451      6457
      6438      6436      6435      6439      6438      6436      6435      6443
      6438      6436      6435      6447      6438      6436      6451      6452
      6438      6436      6451      6453      6438      6436      6451      6457
      6439      6435      6436      6451      6439      6435      6443      6444
      6439      6435      6443      6445      6439      6435      6443      6446
      6439      6435      6447      6448      6439      6435      6447      6449
      6439      6435      6447      6450      6440      6439      6435      6443
      6440      6439      6435      6447      6441      6439      6435      6443
      6441      6439      6435      6447      6442      6439      6435      6443
      6442      6439      6435      6447      6443      6435      6436      6451
      6443      6435      6447      6448      6443      6435      6447      6449
      6443      6435      6447      6450      6444      6443      6435      6447
      6445      6443      6435      6447      6446      6443      6435      6447
      6447      6435      6436      6451      6451      6457      6454      6455
      6451      6457      6454      6456      6451      6457      6454      6458
      6452      6451      6457      6454      6453      6451      6457      6454
      6454      6458      6459      6460      6454      6458      6459      6461
      6454      6458      6459      6462      6455      6454      6458      6459
      6456      6454      6458      6459      6457      6454      6458      6459
      6458      6459      6462      6463      6458      6459      6462      6464
      6458      6459      6462      6470      6459      6462      6464      6465
      6459      6462      6470      6471      6459      6462      6470      6472
      6459      6462      6470      6473      6460      6459      6462      6463
      6460      6459      6462      6464      6460      6459      6462      6470
      6461      6459      6462      6463      6461      6459      6462      6464
      6461      6459      6462      6470      6462      6464      6465      6466
      6462      6464      6465      6467      6462      6470      6473      6474
      6463      6462      6464      6465      6463      6462      6470      6471
      6463      6462      6470      6472      6463      6462      6470      6473
      6464      6462      6470      6471      6464      6462      6470      6472
      6464      6462      6470      6473      6464      6465      6467      6468
      6464      6465      6467      6469      6464      6465      6467      6479
      6465      6464      6462      6470      6465      6467      6479      6480
      6465      6467      6479      6481      6465      6467      6479      6482
      6466      6465      6467      6468      6466      6465      6467      6469
      6466      6465      6467      6479      6467      6479      6482      6483
      6467      6479      6482      6484      6467      6479      6482      6485
      6468      6467      6479      6480      6468      6467      6479      6481
      6468      6467      6479      6482      6469      6467      6479      6480
      6469      6467      6479      6481      6469      6467      6479      6482
      6470      6473      6474      6475      6470      6473      6474      6476
      6471      6470      6473      6474      6472      6470      6473      6474
      6473      6474      6476      6477      6473      6474      6476      6478
      6473      6474      6476      6526      6474      6476      6526      6527
      6474      6476      6526      6528      6474      6476      6526      6529
      6475      6474      6476      6477      6475      6474      6476      6478
      6475      6474      6476      6526      6476      6526      6529      6530
      6476      6526      6529      6531      6476      6526      6529      6532
      6477      6476      6526      6527      6477      6476      6526      6528
      6477      6476      6526      6529      6478      6476      6526      6527
      6478      6476      6526      6528      6478      6476      6526      6529
      6479      6482      6485      6486      6479      6482      6485      6487
      6479      6482      6485      6488      6480      6479      6482      6483
      6480      6479      6482      6484      6480      6479      6482      6485
      6481      6479      6482      6483      6481      6479      6482      6484
      6481      6479      6482      6485      6482      6485      6488      6489
      6482      6485      6488      6490      6482      6485      6488      6491
      6483      6482      6485      6486      6483      6482      6485      6487
      6483      6482      6485      6488      6484      6482      6485      6486
      6484      6482      6485      6487      6484      6482      6485      6488
      6485      6488      6491      6492      6485      6488      6491      6493
      6485      6488      6491      6494      6486      6485      6488      6489
      6486      6485      6488      6490      6486      6485      6488      6491
      6487      6485      6488      6489      6487      6485      6488      6490
      6487      6485      6488      6491      6488      6491      6494      6495
      6488      6491      6494      6496      6488      6491      6494      6497
      6489      6488      6491      6492      6489      6488      6491      6493
      6489      6488      6491      6494      6490      6488      6491      6492
      6490      6488      6491      6493      6490      6488      6491      6494
      6491      6494      6497      6498      6491      6494      6497      6499
      6492      6491      6494      6495      6492      6491      6494      6496
      6492      6491      6494      6497      6493      6491      6494      6495
      6493      6491      6494      6496      6493      6491      6494      6497
      6494      6497      6499      6500      6494      6497      6499      6501
      6495      6494      6497      6498      6495      6494      6497      6499
      6496      6494      6497      6498      6496      6494      6497      6499
      6497      6499      6501      6502      6497      6499      6501      6503
      6497      6499      6501      6504      6498      6497      6499      6500
      6498      6497      6499      6501      6499      6501      6504      6505
      6499      6501      6504      6506      6499      6501      6504      6507
      6500      6499      6501      6502      6500      6499      6501      6503
      6500      6499      6501      6504      6501      6504      6507      6508
      6501      6504      6507      6509      6501      6504      6507      6510
      6502      6501      6504      6505      6502      6501      6504      6506
      6502      6501      6504      6507      6503      6501      6504      6505
      6503      6501      6504      6506      6503      6501      6504      6507
      6504      6507      6510      6511      6504      6507      6510      6512
      6504      6507      6510      6513      6505      6504      6507      6508
      6505      6504      6507      6509      6505      6504      6507      6510
      6506      6504      6507      6508      6506      6504      6507      6509
      6506      6504      6507      6510      6507      6510      6513      6514
      6507      6510      6513      6515      6507      6510      6513      6516
      6508      6507      6510      6511      6508      6507      6510      6512
      6508      6507      6510      6513      6509      6507      6510      6511
      6509      6507      6510      6512      6509      6507      6510      6513
      6510      6513      6516      6517      6510      6513      6516      6518
      6510      6513      6516      6519      6511      6510      6513      6514
      6511      6510      6513      6515      6511      6510      6513      6516
      6512      6510      6513      6514      6512      6510      6513      6515
      6512      6510      6513      6516      6513      6516      6519      6520
      6513      6516      6519      6521      6513      6516      6519      6522
      6514      6513      6516      6517      6514      6513      6516      6518
      6514      6513      6516      6519      6515      6513      6516      6517
      6515      6513      6516      6518      6515      6513      6516      6519
      6516      6519      6522      6523      6516      6519      6522      6524
      6516      6519      6522      6525      6517      6516      6519      6520
      6517      6516      6519      6521      6517      6516      6519      6522
      6518      6516      6519      6520      6518      6516      6519      6521
      6518      6516      6519      6522      6520      6519      6522      6523
      6520      6519      6522      6524      6520      6519      6522      6525
      6521      6519      6522      6523      6521      6519      6522      6524
      6521      6519      6522      6525      6526      6529      6532      6533
      6526      6529      6532      6534      6526      6529      6532      6535
      6527      6526      6529      6530      6527      6526      6529      6531
      6527      6526      6529      6532      6528      6526      6529      6530
      6528      6526      6529      6531      6528      6526      6529      6532
      6529      6532      6535      6536      6529      6532      6535      6537
      6529      6532      6535      6538      6530      6529      6532      6533
      6530      6529      6532      6534      6530      6529      6532      6535
      6531      6529      6532      6533      6531      6529      6532      6534
      6531      6529      6532      6535      6532      6535      6538      6539
      6532      6535      6538      6540      6532      6535      6538      6541
      6533      6532      6535      6536      6533      6532      6535      6537
      6533      6532      6535      6538      6534      6532      6535      6536
      6534      6532      6535      6537      6534      6532      6535      6538
      6535      6538      6541      6542      6535      6538      6541      6543
      6535      6538      6541      6544      6536      6535      6538      6539
      6536      6535      6538      6540      6536      6535      6538      6541
      6537      6535      6538      6539      6537      6535      6538      6540
      6537      6535      6538      6541      6538      6541      6544      6545
      6538      6541      6544      6546      6539      6538      6541      6542
      6539      6538      6541      6543      6539      6538      6541      6544
      6540      6538      6541      6542      6540      6538      6541      6543
      6540      6538      6541      6544      6541      6544      6546      6547
      6541      6544      6546      6548      6542      6541      6544      6545
      6542      6541      6544      6546      6543      6541      6544      6545
      6543      6541      6544      6546      6544      6546      6548      6549
      6544      6546      6548      6550      6544      6546      6548      6551
      6545      6544      6546      6547      6545      6544      6546      6548
      6546      6548      6551      6552      6546      6548      6551      6553
      6546      6548      6551      6554      6547      6546      6548      6549
      6547      6546      6548      6550      6547      6546      6548      6551
      6548      6551      6554      6555      6548      6551      6554      6556
      6548      6551      6554      6557      6549      6548      6551      6552
      6549      6548      6551      6553      6549      6548      6551      6554
      6550      6548      6551      6552      6550      6548      6551      6553
      6550      6548      6551      6554      6551      6554      6557      6558
      6551      6554      6557      6559      6551      6554      6557      6560
      6552      6551      6554      6555      6552      6551      6554      6556
      6552      6551      6554      6557      6553      6551      6554      6555
      6553      6551      6554      6556      6553      6551      6554      6557
      6554      6557      6560      6561      6554      6557      6560      6562
      6554      6557      6560      6563      6555      6554      6557      6558
      6555      6554      6557      6559      6555      6554      6557      6560
      6556      6554      6557      6558      6556      6554      6557      6559
      6556      6554      6557      6560      6557      6560      6563      6564
      6557      6560      6563      6565      6557      6560      6563      6566
      6558      6557      6560      6561      6558      6557      6560      6562
      6558      6557      6560      6563      6559      6557      6560      6561
      6559      6557      6560      6562      6559      6557      6560      6563
      6560      6563      6566      6567      6560      6563      6566      6568
      6560      6563      6566      6569      6561      6560      6563      6564
      6561      6560      6563      6565      6561      6560      6563      6566
      6562      6560      6563      6564      6562      6560      6563      6565
      6562      6560      6563      6566      6563      6566      6569      6570
      6563      6566      6569      6571      6563      6566      6569      6572
      6564      6563      6566      6567      6564      6563      6566      6568
      6564      6563      6566      6569      6565      6563      6566      6567
      6565      6563      6566      6568      6565      6563      6566      6569
      6567      6566      6569      6570      6567      6566      6569      6571
      6567      6566      6569      6572      6568      6566      6569      6570
      6568      6566      6569      6571      6568      6566      6569      6572
      6573      6574      6589      6590      6573      6574      6589      6591
      6573      6574      6589      6595      6574      6573      6577      6578
      6574      6573      6577      6579      6574      6573      6577      6580
      6574      6573      6581      6582      6574      6573      6581      6583
      6574      6573      6581      6584      6574      6573      6585      6586
      6574      6573      6585      6587      6574      6573      6585      6588
      6574      6589      6595      6592      6575      6574      6573      6577
      6575      6574      6573      6581      6575      6574      6573      6585
      6575      6574      6589      6590      6575      6574      6589      6591
      6575      6574      6589      6595      6576      6574      6573      6577
      6576      6574      6573      6581      6576      6574      6573      6585
      6576      6574      6589      6590      6576      6574      6589      6591
      6576      6574      6589      6595      6577      6573      6574      6589
      6577      6573      6581      6582      6577      6573      6581      6583
      6577      6573      6581      6584      6577      6573      6585      6586
      6577      6573      6585      6587      6577      6573      6585      6588
      6578      6577      6573      6581      6578      6577      6573      6585
      6579      6577      6573      6581      6579      6577      6573      6585
      6580      6577      6573      6581      6580      6577      6573      6585
      6581      6573      6574      6589      6581      6573      6585      6586
      6581      6573      6585      6587      6581      6573      6585      6588
      6582      6581      6573      6585      6583      6581      6573      6585
      6584      6581      6573      6585      6585      6573      6574      6589
      6589      6595      6592      6593      6589      6595      6592      6594
      6589      6595      6592      6596      6590      6589      6595      6592
      6591      6589      6595      6592      6592      6596      6597      6598
      6592      6596      6597      6599      6592      6596      6597      6600
      6593      6592      6596      6597      6594      6592      6596      6597
      6595      6592      6596      6597      6596      6597      6600      6601
      6596      6597      6600      6602      6596      6597      6600      6608
      6597      6600      6602      6603      6597      6600      6608      6609
      6597      6600      6608      6610      6597      6600      6608      6611
      6598      6597      6600      6601      6598      6597      6600      6602
      6598      6597      6600      6608      6599      6597      6600      6601
      6599      6597      6600      6602      6599      6597      6600      6608
      6600      6602      6603      6604      6600      6602      6603      6605
      6600      6608      6611      6612      6601      6600      6602      6603
      6601      6600      6608      6609      6601      6600      6608      6610
      6601      6600      6608      6611      6602      6600      6608      6609
      6602      6600      6608      6610      6602      6600      6608      6611
      6602      6603      6605      6606      6602      6603      6605      6607
      6602      6603      6605      6617      6603      6602      6600      6608
      6603      6605      6617      6618      6603      6605      6617      6619
      6603      6605      6617      6620      6604      6603      6605      6606
      6604      6603      6605      6607      6604      6603      6605      6617
      6605      6617      6620      6621      6605      6617      6620      6622
      6605      6617      6620      6623      6606      6605      6617      6618
      6606      6605      6617      6619      6606      6605      6617      6620
      6607      6605      6617      6618      6607      6605      6617      6619
      6607      6605      6617      6620      6608      6611      6612      6613
      6608      6611      6612      6614      6609      6608      6611      6612
      6610      6608      6611      6612      6611      6612      6614      6615
      6611      6612      6614      6616      6611      6612      6614      6664
      6612      6614      6664      6665      6612      6614      6664      6666
      6612      6614      6664      6667      6613      6612      6614      6615
      6613      6612      6614      6616      6613      6612      6614      6664
      6614      6664      6667      6668      6614      6664      6667      6669
      6614      6664      6667      6670      6615      6614      6664      6665
      6615      6614      6664      6666      6615      6614      6664      6667
      6616      6614      6664      6665      6616      6614      6664      6666
      6616      6614      6664      6667      6617      6620      6623      6624
      6617      6620      6623      6625      6617      6620      6623      6626
      6618      6617      6620      6621      6618      6617      6620      6622
      6618      6617      6620      6623      6619      6617      6620      6621
      6619      6617      6620      6622      6619      6617      6620      6623
      6620      6623      6626      6627      6620      6623      6626      6628
      6620      6623      6626      6629      6621      6620      6623      6624
      6621      6620      6623      6625      6621      6620      6623      6626
      6622      6620      6623      6624      6622      6620      6623      6625
      6622      6620      6623      6626      6623      6626      6629      6630
      6623      6626      6629      6631      6623      6626      6629      6632
      6624      6623      6626      6627      6624      6623      6626      6628
      6624      6623      6626      6629      6625      6623      6626      6627
      6625      6623      6626      6628      6625      6623      6626      6629
      6626      6629      6632      6633      6626      6629      6632      6634
      6626      6629      6632      6635      6627      6626      6629      6630
      6627      6626      6629      6631      6627      6626      6629      6632
      6628      6626      6629      6630      6628      6626      6629      6631
      6628      6626      6629      6632      6629      6632      6635      6636
      6629      6632      6635      6637      6630      6629      6632      6633
      6630      6629      6632      6634      6630      6629      6632      6635
      6631      6629      6632      6633      6631      6629      6632      6634
      6631      6629      6632      6635      6632      6635      6637      6638
      6632      6635      6637      6639      6633      6632      6635      6636
      6633      6632      6635      6637      6634      6632      6635      6636
      6634      6632      6635      6637      6635      6637      6639      6640
      6635      6637      6639      6641      6635      6637      6639      6642
      6636      6635      6637      6638      6636      6635      6637      6639
      6637      6639      6642      6643      6637      6639      6642      6644
      6637      6639      6642      6645      6638      6637      6639      6640
      6638      6637      6639      6641      6638      6637      6639      6642
      6639      6642      6645      6646      6639      6642      6645      6647
      6639      6642      6645      6648      6640      6639      6642      6643
      6640      6639      6642      6644      6640      6639      6642      6645
      6641      6639      6642      6643      6641      6639      6642      6644
      6641      6639      6642      6645      6642      6645      6648      6649
      6642      6645      6648      6650      6642      6645      6648      6651
      6643      6642      6645      6646      6643      6642      6645      6647
      6643      6642      6645      6648      6644      6642      6645      6646
      6644      6642      6645      6647      6644      6642      6645      6648
      6645      6648      6651      6652      6645      6648      6651      6653
      6645      6648      6651      6654      6646      6645      6648      6649
      6646      6645      6648      6650      6646      6645      6648      6651
      6647      6645      6648      6649      6647      6645      6648      6650
      6647      6645      6648      6651      6648      6651      6654      6655
      6648      6651      6654      6656      6648      6651      6654      6657
      6649      6648      6651      6652      6649      6648      6651      6653
      6649      6648      6651      6654      6650      6648      6651      6652
      6650      6648      6651      6653      6650      6648      6651      6654
      6651      6654      6657      6658      6651      6654      6657      6659
      6651      6654      6657      6660      6652      6651      6654      6655
      6652      6651      6654      6656      6652      6651      6654      6657
      6653      6651      6654      6655      6653      6651      6654      6656
      6653      6651      6654      6657      6654      6657      6660      6661
      6654      6657      6660      6662      6654      6657      6660      6663
      6655      6654      6657      6658      6655      6654      6657      6659
      6655      6654      6657      6660      6656      6654      6657      6658
      6656      6654      6657      6659      6656      6654      6657      6660
      6658      6657      6660      6661      6658      6657      6660      6662
      6658      6657      6660      6663      6659      6657      6660      6661
      6659      6657      6660      6662      6659      6657      6660      6663
      6664      6667      6670      6671      6664      6667      6670      6672
      6664      6667      6670      6673      6665      6664      6667      6668
      6665      6664      6667      6669      6665      6664      6667      6670
      6666      6664      6667      6668      6666      6664      6667      6669
      6666      6664      6667      6670      6667      6670      6673      6674
      6667      6670      6673      6675      6667      6670      6673      6676
      6668      6667      6670      6671      6668      6667      6670      6672
      6668      6667      6670      6673      6669      6667      6670      6671
      6669      6667      6670      6672      6669      6667      6670      6673
      6670      6673      6676      6677      6670      6673      6676      6678
      6670      6673      6676      6679      6671      6670      6673      6674
      6671      6670      6673      6675      6671      6670      6673      6676
      6672      6670      6673      6674      6672      6670      6673      6675
      6672      6670      6673      6676      6673      6676      6679      6680
      6673      6676      6679      6681      6673      6676      6679      6682
      6674      6673      6676      6677      6674      6673      6676      6678
      6674      6673      6676      6679      6675      6673      6676      6677
      6675      6673      6676      6678      6675      6673      6676      6679
      6676      6679      6682      6683      6676      6679      6682      6684
      6677      6676      6679      6680      6677      6676      6679      6681
      6677      6676      6679      6682      6678      6676      6679      6680
      6678      6676      6679      6681      6678      6676      6679      6682
      6679      6682      6684      6685      6679      6682      6684      6686
      6680      6679      6682      6683      6680      6679      6682      6684
      6681      6679      6682      6683      6681      6679      6682      6684
      6682      6684      6686      6687      6682      6684      6686      6688
      6682      6684      6686      6689      6683      6682      6684      6685
      6683      6682      6684      6686      6684      6686      6689      6690
      6684      6686      6689      6691      6684      6686      6689      6692
      6685      6684      6686      6687      6685      6684      6686      6688
      6685      6684      6686      6689      6686      6689      6692      6693
      6686      6689      6692      6694      6686      6689      6692      6695
      6687      6686      6689      6690      6687      6686      6689      6691
      6687      6686      6689      6692      6688      6686      6689      6690
      6688      6686      6689      6691      6688      6686      6689      6692
      6689      6692      6695      6696      6689      6692      6695      6697
      6689      6692      6695      6698      6690      6689      6692      6693
      6690      6689      6692      6694      6690      6689      6692      6695
      6691      6689      6692      6693      6691      6689      6692      6694
      6691      6689      6692      6695      6692      6695      6698      6699
      6692      6695      6698      6700      6692      6695      6698      6701
      6693      6692      6695      6696      6693      6692      6695      6697
      6693      6692      6695      6698      6694      6692      6695      6696
      6694      6692      6695      6697      6694      6692      6695      6698
      6695      6698      6701      6702      6695      6698      6701      6703
      6695      6698      6701      6704      6696      6695      6698      6699
      6696      6695      6698      6700      6696      6695      6698      6701
      6697      6695      6698      6699      6697      6695      6698      6700
      6697      6695      6698      6701      6698      6701      6704      6705
      6698      6701      6704      6706      6698      6701      6704      6707
      6699      6698      6701      6702      6699      6698      6701      6703
      6699      6698      6701      6704      6700      6698      6701      6702
      6700      6698      6701      6703      6700      6698      6701      6704
      6701      6704      6707      6708      6701      6704      6707      6709
      6701      6704      6707      6710      6702      6701      6704      6705
      6702      6701      6704      6706      6702      6701      6704      6707
      6703      6701      6704      6705      6703      6701      6704      6706
      6703      6701      6704      6707      6705      6704      6707      6708
      6705      6704      6707      6709      6705      6704      6707      6710
      6706      6704      6707      6708      6706      6704      6707      6709
      6706      6704      6707      6710      6711      6712      6727      6728
      6711      6712      6727      6729      6711      6712      6727      6733
      6712      6711      6715      6716      6712      6711      6715      6717
      6712      6711      6715      6718      6712      6711      6719      6720
      6712      6711      6719      6721      6712      6711      6719      6722
      6712      6711      6723      6724      6712      6711      6723      6725
      6712      6711      6723      6726      6712      6727      6733      6730
      6713      6712      6711      6715      6713      6712      6711      6719
      6713      6712      6711      6723      6713      6712      6727      6728
      6713      6712      6727      6729      6713      6712      6727      6733
      6714      6712      6711      6715      6714      6712      6711      6719
      6714      6712      6711      6723      6714      6712      6727      6728
      6714      6712      6727      6729      6714      6712      6727      6733
      6715      6711      6712      6727      6715      6711      6719      6720
      6715      6711      6719      6721      6715      6711      6719      6722
      6715      6711      6723      6724      6715      6711      6723      6725
      6715      6711      6723      6726      6716      6715      6711      6719
      6716      6715      6711      6723      6717      6715      6711      6719
      6717      6715      6711      6723      6718      6715      6711      6719
      6718      6715      6711      6723      6719      6711      6712      6727
      6719      6711      6723      6724      6719      6711      6723      6725
      6719      6711      6723      6726      6720      6719      6711      6723
      6721      6719      6711      6723      6722      6719      6711      6723
      6723      6711      6712      6727      6727      6733      6730      6731
      6727      6733      6730      6732      6727      6733      6730      6734
      6728      6727      6733      6730      6729      6727      6733      6730
      6730      6734      6735      6736      6730      6734      6735      6737
      6730      6734      6735      6738      6731      6730      6734      6735
      6732      6730      6734      6735      6733      6730      6734      6735
      6734      6735      6738      6739      6734      6735      6738      6740
      6734      6735      6738      6746      6735      6738      6740      6741
      6735      6738      6746      6747      6735      6738      6746      6748
      6735      6738      6746      6749      6736      6735      6738      6739
      6736      6735      6738      6740      6736      6735      6738      6746
      6737      6735      6738      6739      6737      6735      6738      6740
      6737      6735      6738      6746      6738      6740      6741      6742
      6738      6740      6741      6743      6738      6746      6749      6750
      6739      6738      6740      6741      6739      6738      6746      6747
      6739      6738      6746      6748      6739      6738      6746      6749
      6740      6738      6746      6747      6740      6738      6746      6748
      6740      6738      6746      6749      6740      6741      6743      6744
      6740      6741      6743      6745      6740      6741      6743      6755
      6741      6740      6738      6746      6741      6743      6755      6756
      6741      6743      6755      6757      6741      6743      6755      6758
      6742      6741      6743      6744      6742      6741      6743      6745
      6742      6741      6743      6755      6743      6755      6758      6759
      6743      6755      6758      6760      6743      6755      6758      6761
      6744      6743      6755      6756      6744      6743      6755      6757
      6744      6743      6755      6758      6745      6743      6755      6756
      6745      6743      6755      6757      6745      6743      6755      6758
      6746      6749      6750      6751      6746      6749      6750      6752
      6747      6746      6749      6750      6748      6746      6749      6750
      6749      6750      6752      6753      6749      6750      6752      6754
      6749      6750      6752      6802      6750      6752      6802      6803
      6750      6752      6802      6804      6750      6752      6802      6805
      6751      6750      6752      6753      6751      6750      6752      6754
      6751      6750      6752      6802      6752      6802      6805      6806
      6752      6802      6805      6807      6752      6802      6805      6808
      6753      6752      6802      6803      6753      6752      6802      6804
      6753      6752      6802      6805      6754      6752      6802      6803
      6754      6752      6802      6804      6754      6752      6802      6805
      6755      6758      6761      6762      6755      6758      6761      6763
      6755      6758      6761      6764      6756      6755      6758      6759
      6756      6755      6758      6760      6756      6755      6758      6761
      6757      6755      6758      6759      6757      6755      6758      6760
      6757      6755      6758      6761      6758      6761      6764      6765
      6758      6761      6764      6766      6758      6761      6764      6767
      6759      6758      6761      6762      6759      6758      6761      6763
      6759      6758      6761      6764      6760      6758      6761      6762
      6760      6758      6761      6763      6760      6758      6761      6764
      6761      6764      6767      6768      6761      6764      6767      6769
      6761      6764      6767      6770      6762      6761      6764      6765
      6762      6761      6764      6766      6762      6761      6764      6767
      6763      6761      6764      6765      6763      6761      6764      6766
      6763      6761      6764      6767      6764      6767      6770      6771
      6764      6767      6770      6772      6764      6767      6770      6773
      6765      6764      6767      6768      6765      6764      6767      6769
      6765      6764      6767      6770      6766      6764      6767      6768
      6766      6764      6767      6769      6766      6764      6767      6770
      6767      6770      6773      6774      6767      6770      6773      6775
      6768      6767      6770      6771      6768      6767      6770      6772
      6768      6767      6770      6773      6769      6767      6770      6771
      6769      6767      6770      6772      6769      6767      6770      6773
      6770      6773      6775      6776      6770      6773      6775      6777
      6771      6770      6773      6774      6771      6770      6773      6775
      6772      6770      6773      6774      6772      6770      6773      6775
      6773      6775      6777      6778      6773      6775      6777      6779
      6773      6775      6777      6780      6774      6773      6775      6776
      6774      6773      6775      6777      6775      6777      6780      6781
      6775      6777      6780      6782      6775      6777      6780      6783
      6776      6775      6777      6778      6776      6775      6777      6779
      6776      6775      6777      6780      6777      6780      6783      6784
      6777      6780      6783      6785      6777      6780      6783      6786
      6778      6777      6780      6781      6778      6777      6780      6782
      6778      6777      6780      6783      6779      6777      6780      6781
      6779      6777      6780      6782      6779      6777      6780      6783
      6780      6783      6786      6787      6780      6783      6786      6788
      6780      6783      6786      6789      6781      6780      6783      6784
      6781      6780      6783      6785      6781      6780      6783      6786
      6782      6780      6783      6784      6782      6780      6783      6785
      6782      6780      6783      6786      6783      6786      6789      6790
      6783      6786      6789      6791      6783      6786      6789      6792
      6784      6783      6786      6787      6784      6783      6786      6788
      6784      6783      6786      6789      6785      6783      6786      6787
      6785      6783      6786      6788      6785      6783      6786      6789
      6786      6789      6792      6793      6786      6789      6792      6794
      6786      6789      6792      6795      6787      6786      6789      6790
      6787      6786      6789      6791      6787      6786      6789      6792
      6788      6786      6789      6790      6788      6786      6789      6791
      6788      6786      6789      6792      6789      6792      6795      6796
      6789      6792      6795      6797      6789      6792      6795      6798
      6790      6789      6792      6793      6790      6789      6792      6794
      6790      6789      6792      6795      6791      6789      6792      6793
      6791      6789      6792      6794      6791      6789      6792      6795
      6792      6795      6798      6799      6792      6795      6798      6800
      6792      6795      6798      6801      6793      6792      6795      6796
      6793      6792      6795      6797      6793      6792      6795      6798
      6794      6792      6795      6796      6794      6792      6795      6797
      6794      6792      6795      6798      6796      6795      6798      6799
      6796      6795      6798      6800      6796      6795      6798      6801
      6797      6795      6798      6799      6797      6795      6798      6800
      6797      6795      6798      6801      6802      6805      6808      6809
      6802      6805      6808      6810      6802      6805      6808      6811
      6803      6802      6805      6806      6803      6802      6805      6807
      6803      6802      6805      6808      6804      6802      6805      6806
      6804      6802      6805      6807      6804      6802      6805      6808
      6805      6808      6811      6812      6805      6808      6811      6813
      6805      6808      6811      6814      6806      6805      6808      6809
      6806      6805      6808      6810      6806      6805      6808      6811
      6807      6805      6808      6809      6807      6805      6808      6810
      6807      6805      6808      6811      6808      6811      6814      6815
      6808      6811      6814      6816      6808      6811      6814      6817
      6809      6808      6811      6812      6809      6808      6811      6813
      6809      6808      6811      6814      6810      6808      6811      6812
      6810      6808      6811      6813      6810      6808      6811      6814
      6811      6814      6817      6818      6811      6814      6817      6819
      6811      6814      6817      6820      6812      6811      6814      6815
      6812      6811      6814      6816      6812      6811      6814      6817
      6813      6811      6814      6815      6813      6811      6814      6816
      6813      6811      6814      6817      6814      6817      6820      6821
      6814      6817      6820      6822      6815      6814      6817      6818
      6815      6814      6817      6819      6815      6814      6817      6820
      6816      6814      6817      6818      6816      6814      6817      6819
      6816      6814      6817      6820      6817      6820      6822      6823
      6817      6820      6822      6824      6818      6817      6820      6821
      6818      6817      6820      6822      6819      6817      6820      6821
      6819      6817      6820      6822      6820      6822      6824      6825
      6820      6822      6824      6826      6820      6822      6824      6827
      6821      6820      6822      6823      6821      6820      6822      6824
      6822      6824      6827      6828      6822      6824      6827      6829
      6822      6824      6827      6830      6823      6822      6824      6825
      6823      6822      6824      6826      6823      6822      6824      6827
      6824      6827      6830      6831      6824      6827      6830      6832
      6824      6827      6830      6833      6825      6824      6827      6828
      6825      6824      6827      6829      6825      6824      6827      6830
      6826      6824      6827      6828      6826      6824      6827      6829
      6826      6824      6827      6830      6827      6830      6833      6834
      6827      6830      6833      6835      6827      6830      6833      6836
      6828      6827      6830      6831      6828      6827      6830      6832
      6828      6827      6830      6833      6829      6827      6830      6831
      6829      6827      6830      6832      6829      6827      6830      6833
      6830      6833      6836      6837      6830      6833      6836      6838
      6830      6833      6836      6839      6831      6830      6833      6834
      6831      6830      6833      6835      6831      6830      6833      6836
      6832      6830      6833      6834      6832      6830      6833      6835
      6832      6830      6833      6836      6833      6836      6839      6840
      6833      6836      6839      6841      6833      6836      6839      6842
      6834      6833      6836      6837      6834      6833      6836      6838
      6834      6833      6836      6839      6835      6833      6836      6837
      6835      6833      6836      6838      6835      6833      6836      6839
      6836      6839      6842      6843      6836      6839      6842      6844
      6836      6839      6842      6845      6837      6836      6839      6840
      6837      6836      6839      6841      6837      6836      6839      6842
      6838      6836      6839      6840      6838      6836      6839      6841
      6838      6836      6839      6842      6839      6842      6845      6846
      6839      6842      6845      6847      6839      6842      6845      6848
      6840      6839      6842      6843      6840      6839      6842      6844
      6840      6839      6842      6845      6841      6839      6842      6843
      6841      6839      6842      6844      6841      6839      6842      6845
      6843      6842      6845      6846      6843      6842      6845      6847
      6843      6842      6845      6848      6844      6842      6845      6846
      6844      6842      6845      6847      6844      6842      6845      6848
      6849      6850      6865      6866      6849      6850      6865      6867
      6849      6850      6865      6871      6850      6849      6853      6854
      6850      6849      6853      6855      6850      6849      6853      6856
      6850      6849      6857      6858      6850      6849      6857      6859
      6850      6849      6857      6860      6850      6849      6861      6862
      6850      6849      6861      6863      6850      6849      6861      6864
      6850      6865      6871      6868      6851      6850      6849      6853
      6851      6850      6849      6857      6851      6850      6849      6861
      6851      6850      6865      6866      6851      6850      6865      6867
      6851      6850      6865      6871      6852      6850      6849      6853
      6852      6850      6849      6857      6852      6850      6849      6861
      6852      6850      6865      6866      6852      6850      6865      6867
      6852      6850      6865      6871      6853      6849      6850      6865
      6853      6849      6857      6858      6853      6849      6857      6859
      6853      6849      6857      6860      6853      6849      6861      6862
      6853      6849      6861      6863      6853      6849      6861      6864
      6854      6853      6849      6857      6854      6853      6849      6861
      6855      6853      6849      6857      6855      6853      6849      6861
      6856      6853      6849      6857      6856      6853      6849      6861
      6857      6849      6850      6865      6857      6849      6861      6862
      6857      6849      6861      6863      6857      6849      6861      6864
      6858      6857      6849      6861      6859      6857      6849      6861
      6860      6857      6849      6861      6861      6849      6850      6865
      6865      6871      6868      6869      6865      6871      6868      6870
      6865      6871      6868      6872      6866      6865      6871      6868
      6867      6865      6871      6868      6868      6872      6873      6874
      6868      6872      6873      6875      6868      6872      6873      6876
      6869      6868      6872      6873      6870      6868      6872      6873
      6871      6868      6872      6873      6872      6873      6876      6877
      6872      6873      6876      6878      6872      6873      6876      6884
      6873      6876      6878      6879      6873      6876      6884      6885
      6873      6876      6884      6886      6873      6876      6884      6887
      6874      6873      6876      6877      6874      6873      6876      6878
      6874      6873      6876      6884      6875      6873      6876      6877
      6875      6873      6876      6878      6875      6873      6876      6884
      6876      6878      6879      6880      6876      6878      6879      6881
      6876      6884      6887      6888      6877      6876      6878      6879
      6877      6876      6884      6885      6877      6876      6884      6886
      6877      6876      6884      6887      6878      6876      6884      6885
      6878      6876      6884      6886      6878      6876      6884      6887
      6878      6879      6881      6882      6878      6879      6881      6883
      6878      6879      6881      6893      6879      6878      6876      6884
      6879      6881      6893      6894      6879      6881      6893      6895
      6879      6881      6893      6896      6880      6879      6881      6882
      6880      6879      6881      6883      6880      6879      6881      6893
      6881      6893      6896      6897      6881      6893      6896      6898
      6881      6893      6896      6899      6882      6881      6893      6894
      6882      6881      6893      6895      6882      6881      6893      6896
      6883      6881      6893      6894      6883      6881      6893      6895
      6883      6881      6893      6896      6884      6887      6888      6889
      6884      6887      6888      6890      6885      6884      6887      6888
      6886      6884      6887      6888      6887      6888      6890      6891
      6887      6888      6890      6892      6887      6888      6890      6940
      6888      6890      6940      6941      6888      6890      6940      6942
      6888      6890      6940      6943      6889      6888      6890      6891
      6889      6888      6890      6892      6889      6888      6890      6940
      6890      6940      6943      6944      6890      6940      6943      6945
      6890      6940      6943      6946      6891      6890      6940      6941
      6891      6890      6940      6942      6891      6890      6940      6943
      6892      6890      6940      6941      6892      6890      6940      6942
      6892      6890      6940      6943      6893      6896      6899      6900
      6893      6896      6899      6901      6893      6896      6899      6902
      6894      6893      6896      6897      6894      6893      6896      6898
      6894      6893      6896      6899      6895      6893      6896      6897
      6895      6893      6896      6898      6895      6893      6896      6899
      6896      6899      6902      6903      6896      6899      6902      6904
      6896      6899      6902      6905      6897      6896      6899      6900
      6897      6896      6899      6901      6897      6896      6899      6902
      6898      6896      6899      6900      6898      6896      6899      6901
      6898      6896      6899      6902      6899      6902      6905      6906
      6899      6902      6905      6907      6899      6902      6905      6908
      6900      6899      6902      6903      6900      6899      6902      6904
      6900      6899      6902      6905      6901      6899      6902      6903
      6901      6899      6902      6904      6901      6899      6902      6905
      6902      6905      6908      6909      6902      6905      6908      6910
      6902      6905      6908      6911      6903      6902      6905      6906
      6903      6902      6905      6907      6903      6902      6905      6908
      6904      6902      6905      6906      6904      6902      6905      6907
      6904      6902      6905      6908      6905      6908      6911      6912
      6905      6908      6911      6913      6906      6905      6908      6909
      6906      6905      6908      6910      6906      6905      6908      6911
      6907      6905      6908      6909      6907      6905      6908      6910
      6907      6905      6908      6911      6908      6911      6913      6914
      6908      6911      6913      6915      6909      6908      6911      6912
      6909      6908      6911      6913      6910      6908      6911      6912
      6910      6908      6911      6913      6911      6913      6915      6916
      6911      6913      6915      6917      6911      6913      6915      6918
      6912      6911      6913      6914      6912      6911      6913      6915
      6913      6915      6918      6919      6913      6915      6918      6920
      6913      6915      6918      6921      6914      6913      6915      6916
      6914      6913      6915      6917      6914      6913      6915      6918
      6915      6918      6921      6922      6915      6918      6921      6923
      6915      6918      6921      6924      6916      6915      6918      6919
      6916      6915      6918      6920      6916      6915      6918      6921
      6917      6915      6918      6919      6917      6915      6918      6920
      6917      6915      6918      6921      6918      6921      6924      6925
      6918      6921      6924      6926      6918      6921      6924      6927
      6919      6918      6921      6922      6919      6918      6921      6923
      6919      6918      6921      6924      6920      6918      6921      6922
      6920      6918      6921      6923      6920      6918      6921      6924
      6921      6924      6927      6928      6921      6924      6927      6929
      6921      6924      6927      6930      6922      6921      6924      6925
      6922      6921      6924      6926      6922      6921      6924      6927
      6923      6921      6924      6925      6923      6921      6924      6926
      6923      6921      6924      6927      6924      6927      6930      6931
      6924      6927      6930      6932      6924      6927      6930      6933
      6925      6924      6927      6928      6925      6924      6927      6929
      6925      6924      6927      6930      6926      6924      6927      6928
      6926      6924      6927      6929      6926      6924      6927      6930
      6927      6930      6933      6934      6927      6930      6933      6935
      6927      6930      6933      6936      6928      6927      6930      6931
      6928      6927      6930      6932      6928      6927      6930      6933
      6929      6927      6930      6931      6929      6927      6930      6932
      6929      6927      6930      6933      6930      6933      6936      6937
      6930      6933      6936      6938      6930      6933      6936      6939
      6931      6930      6933      6934      6931      6930      6933      6935
      6931      6930      6933      6936      6932      6930      6933      6934
      6932      6930      6933      6935      6932      6930      6933      6936
      6934      6933      6936      6937      6934      6933      6936      6938
      6934      6933      6936      6939      6935      6933      6936      6937
      6935      6933      6936      6938      6935      6933      6936      6939
      6940      6943      6946      6947      6940      6943      6946      6948
      6940      6943      6946      6949      6941      6940      6943      6944
      6941      6940      6943      6945      6941      6940      6943      6946
      6942      6940      6943      6944      6942      6940      6943      6945
      6942      6940      6943      6946      6943      6946      6949      6950
      6943      6946      6949      6951      6943      6946      6949      6952
      6944      6943      6946      6947      6944      6943      6946      6948
      6944      6943      6946      6949      6945      6943      6946      6947
      6945      6943      6946      6948      6945      6943      6946      6949
      6946      6949      6952      6953      6946      6949      6952      6954
      6946      6949      6952      6955      6947      6946      6949      6950
      6947      6946      6949      6951      6947      6946      6949      6952
      6948      6946      6949      6950      6948      6946      6949      6951
      6948      6946      6949      6952      6949      6952      6955      6956
      6949      6952      6955      6957      6949      6952      6955      6958
      6950      6949      6952      6953      6950      6949      6952      6954
      6950      6949      6952      6955      6951      6949      6952      6953
      6951      6949      6952      6954      6951      6949      6952      6955
      6952      6955      6958      6959      6952      6955      6958      6960
      6953      6952      6955      6956      6953      6952      6955      6957
      6953      6952      6955      6958      6954      6952      6955      6956
      6954      6952      6955      6957      6954      6952      6955      6958
      6955      6958      6960      6961      6955      6958      6960      6962
      6956      6955      6958      6959      6956      6955      6958      6960
      6957      6955      6958      6959      6957      6955      6958      6960
      6958      6960      6962      6963      6958      6960      6962      6964
      6958      6960      6962      6965      6959      6958      6960      6961
      6959      6958      6960      6962      6960      6962      6965      6966
      6960      6962      6965      6967      6960      6962      6965      6968
      6961      6960      6962      6963      6961      6960      6962      6964
      6961      6960      6962      6965      6962      6965      6968      6969
      6962      6965      6968      6970      6962      6965      6968      6971
      6963      6962      6965      6966      6963      6962      6965      6967
      6963      6962      6965      6968      6964      6962      6965      6966
      6964      6962      6965      6967      6964      6962      6965      6968
      6965      6968      6971      6972      6965      6968      6971      6973
      6965      6968      6971      6974      6966      6965      6968      6969
      6966      6965      6968      6970      6966      6965      6968      6971
      6967      6965      6968      6969      6967      6965      6968      6970
      6967      6965      6968      6971      6968      6971      6974      6975
      6968      6971      6974      6976      6968      6971      6974      6977
      6969      6968      6971      6972      6969      6968      6971      6973
      6969      6968      6971      6974      6970      6968      6971      6972
      6970      6968      6971      6973      6970      6968      6971      6974
      6971      6974      6977      6978      6971      6974      6977      6979
      6971      6974      6977      6980      6972      6971      6974      6975
      6972      6971      6974      6976      6972      6971      6974      6977
      6973      6971      6974      6975      6973      6971      6974      6976
      6973      6971      6974      6977      6974      6977      6980      6981
      6974      6977      6980      6982      6974      6977      6980      6983
      6975      6974      6977      6978      6975      6974      6977      6979
      6975      6974      6977      6980      6976      6974      6977      6978
      6976      6974      6977      6979      6976      6974      6977      6980
      6977      6980      6983      6984      6977      6980      6983      6985
      6977      6980      6983      6986      6978      6977      6980      6981
      6978      6977      6980      6982      6978      6977      6980      6983
      6979      6977      6980      6981      6979      6977      6980      6982
      6979      6977      6980      6983      6981      6980      6983      6984
      6981      6980      6983      6985      6981      6980      6983      6986
      6982      6980      6983      6984      6982      6980      6983      6985
      6982      6980      6983      6986      6987      6988      7003      7004
      6987      6988      7003      7005      6987      6988      7003      7009
      6988      6987      6991      6992      6988      6987      6991      6993
      6988      6987      6991      6994      6988      6987      6995      6996
      6988      6987      6995      6997      6988      6987      6995      6998
      6988      6987      6999      7000      6988      6987      6999      7001
      6988      6987      6999      7002      6988      7003      7009      7006
      6989      6988      6987      6991      6989      6988      6987      6995
      6989      6988      6987      6999      6989      6988      7003      7004
      6989      6988      7003      7005      6989      6988      7003      7009
      6990      6988      6987      6991      6990      6988      6987      6995
      6990      6988      6987      6999      6990      6988      7003      7004
      6990      6988      7003      7005      6990      6988      7003      7009
      6991      6987      6988      7003      6991      6987      6995      6996
      6991      6987      6995      6997      6991      6987      6995      6998
      6991      6987      6999      7000      6991      6987      6999      7001
      6991      6987      6999      7002      6992      6991      6987      6995
      6992      6991      6987      6999      6993      6991      6987      6995
      6993      6991      6987      6999      6994      6991      6987      6995
      6994      6991      6987      6999      6995      6987      6988      7003
      6995      6987      6999      7000      6995      6987      6999      7001
      6995      6987      6999      7002      6996      6995      6987      6999
      6997      6995      6987      6999      6998      6995      6987      6999
      6999      6987      6988      7003      7003      7009      7006      7007
      7003      7009      7006      7008      7003      7009      7006      7010
      7004      7003      7009      7006      7005      7003      7009      7006
      7006      7010      7011      7012      7006      7010      7011      7013
      7006      7010      7011      7014      7007      7006      7010      7011
      7008      7006      7010      7011      7009      7006      7010      7011
      7010      7011      7014      7015      7010      7011      7014      7016
      7010      7011      7014      7022      7011      7014      7016      7017
      7011      7014      7022      7023      7011      7014      7022      7024
      7011      7014      7022      7025      7012      7011      7014      7015
      7012      7011      7014      7016      7012      7011      7014      7022
      7013      7011      7014      7015      7013      7011      7014      7016
      7013      7011      7014      7022      7014      7016      7017      7018
      7014      7016      7017      7019      7014      7022      7025      7026
      7015      7014      7016      7017      7015      7014      7022      7023
      7015      7014      7022      7024      7015      7014      7022      7025
      7016      7014      7022      7023      7016      7014      7022      7024
      7016      7014      7022      7025      7016      7017      7019      7020
      7016      7017      7019      7021      7016      7017      7019      7031
      7017      7016      7014      7022      7017      7019      7031      7032
      7017      7019      7031      7033      7017      7019      7031      7034
      7018      7017      7019      7020      7018      7017      7019      7021
      7018      7017      7019      7031      7019      7031      7034      7035
      7019      7031      7034      7036      7019      7031      7034      7037
      7020      7019      7031      7032      7020      7019      7031      7033
      7020      7019      7031      7034      7021      7019      7031      7032
      7021      7019      7031      7033      7021      7019      7031      7034
      7022      7025      7026      7027      7022      7025      7026      7028
      7023      7022      7025      7026      7024      7022      7025      7026
      7025      7026      7028      7029      7025      7026      7028      7030
      7025      7026      7028      7078      7026      7028      7078      7079
      7026      7028      7078      7080      7026      7028      7078      7081
      7027      7026      7028      7029      7027      7026      7028      7030
      7027      7026      7028      7078      7028      7078      7081      7082
      7028      7078      7081      7083      7028      7078      7081      7084
      7029      7028      7078      7079      7029      7028      7078      7080
      7029      7028      7078      7081      7030      7028      7078      7079
      7030      7028      7078      7080      7030      7028      7078      7081
      7031      7034      7037      7038      7031      7034      7037      7039
      7031      7034      7037      7040      7032      7031      7034      7035
      7032      7031      7034      7036      7032      7031      7034      7037
      7033      7031      7034      7035      7033      7031      7034      7036
      7033      7031      7034      7037      7034      7037      7040      7041
      7034      7037      7040      7042      7034      7037      7040      7043
      7035      7034      7037      7038      7035      7034      7037      7039
      7035      7034      7037      7040      7036      7034      7037      7038
      7036      7034      7037      7039      7036      7034      7037      7040
      7037      7040      7043      7044      7037      7040      7043      7045
      7037      7040      7043      7046      7038      7037      7040      7041
      7038      7037      7040      7042      7038      7037      7040      7043
      7039      7037      7040      7041      7039      7037      7040      7042
      7039      7037      7040      7043      7040      7043      7046      7047
      7040      7043      7046      7048      7040      7043      7046      7049
      7041      7040      7043      7044      7041      7040      7043      7045
      7041      7040      7043      7046      7042      7040      7043      7044
      7042      7040      7043      7045      7042      7040      7043      7046
      7043      7046      7049      7050      7043      7046      7049      7051
      7044      7043      7046      7047      7044      7043      7046      7048
      7044      7043      7046      7049      7045      7043      7046      7047
      7045      7043      7046      7048      7045      7043      7046      7049
      7046      7049      7051      7052      7046      7049      7051      7053
      7047      7046      7049      7050      7047      7046      7049      7051
      7048      7046      7049      7050      7048      7046      7049      7051
      7049      7051      7053      7054      7049      7051      7053      7055
      7049      7051      7053      7056      7050      7049      7051      7052
      7050      7049      7051      7053      7051      7053      7056      7057
      7051      7053      7056      7058      7051      7053      7056      7059
      7052      7051      7053      7054      7052      7051      7053      7055
      7052      7051      7053      7056      7053      7056      7059      7060
      7053      7056      7059      7061      7053      7056      7059      7062
      7054      7053      7056      7057      7054      7053      7056      7058
      7054      7053      7056      7059      7055      7053      7056      7057
      7055      7053      7056      7058      7055      7053      7056      7059
      7056      7059      7062      7063      7056      7059      7062      7064
      7056      7059      7062      7065      7057      7056      7059      7060
      7057      7056      7059      7061      7057      7056      7059      7062
      7058      7056      7059      7060      7058      7056      7059      7061
      7058      7056      7059      7062      7059      7062      7065      7066
      7059      7062      7065      7067      7059      7062      7065      7068
      7060      7059      7062      7063      7060      7059      7062      7064
      7060      7059      7062      7065      7061      7059      7062      7063
      7061      7059      7062      7064      7061      7059      7062      7065
      7062      7065      7068      7069      7062      7065      7068      7070
      7062      7065      7068      7071      7063      7062      7065      7066
      7063      7062      7065      7067      7063      7062      7065      7068
      7064      7062      7065      7066      7064      7062      7065      7067
      7064      7062      7065      7068      7065      7068      7071      7072
      7065      7068      7071      7073      7065      7068      7071      7074
      7066      7065      7068      7069      7066      7065      7068      7070
      7066      7065      7068      7071      7067      7065      7068      7069
      7067      7065      7068      7070      7067      7065      7068      7071
      7068      7071      7074      7075      7068      7071      7074      7076
      7068      7071      7074      7077      7069      7068      7071      7072
      7069      7068      7071      7073      7069      7068      7071      7074
      7070      7068      7071      7072      7070      7068      7071      7073
      7070      7068      7071      7074      7072      7071      7074      7075
      7072      7071      7074      7076      7072      7071      7074      7077
      7073      7071      7074      7075      7073      7071      7074      7076
      7073      7071      7074      7077      7078      7081      7084      7085
      7078      7081      7084      7086      7078      7081      7084      7087
      7079      7078      7081      7082      7079      7078      7081      7083
      7079      7078      7081      7084      7080      7078      7081      7082
      7080      7078      7081      7083      7080      7078      7081      7084
      7081      7084      7087      7088      7081      7084      7087      7089
      7081      7084      7087      7090      7082      7081      7084      7085
      7082      7081      7084      7086      7082      7081      7084      7087
      7083      7081      7084      7085      7083      7081      7084      7086
      7083      7081      7084      7087      7084      7087      7090      7091
      7084      7087      7090      7092      7084      7087      7090      7093
      7085      7084      7087      7088      7085      7084      7087      7089
      7085      7084      7087      7090      7086      7084      7087      7088
      7086      7084      7087      7089      7086      7084      7087      7090
      7087      7090      7093      7094      7087      7090      7093      7095
      7087      7090      7093      7096      7088      7087      7090      7091
      7088      7087      7090      7092      7088      7087      7090      7093
      7089      7087      7090      7091      7089      7087      7090      7092
      7089      7087      7090      7093      7090      7093      7096      7097
      7090      7093      7096      7098      7091      7090      7093      7094
      7091      7090      7093      7095      7091      7090      7093      7096
      7092      7090      7093      7094      7092      7090      7093      7095
      7092      7090      7093      7096      7093      7096      7098      7099
      7093      7096      7098      7100      7094      7093      7096      7097
      7094      7093      7096      7098      7095      7093      7096      7097
      7095      7093      7096      7098      7096      7098      7100      7101
      7096      7098      7100      7102      7096      7098      7100      7103
      7097      7096      7098      7099      7097      7096      7098      7100
      7098      7100      7103      7104      7098      7100      7103      7105
      7098      7100      7103      7106      7099      7098      7100      7101
      7099      7098      7100      7102      7099      7098      7100      7103
      7100      7103      7106      7107      7100      7103      7106      7108
      7100      7103      7106      7109      7101      7100      7103      7104
      7101      7100      7103      7105      7101      7100      7103      7106
      7102      7100      7103      7104      7102      7100      7103      7105
      7102      7100      7103      7106      7103      7106      7109      7110
      7103      7106      7109      7111      7103      7106      7109      7112
      7104      7103      7106      7107      7104      7103      7106      7108
      7104      7103      7106      7109      7105      7103      7106      7107
      7105      7103      7106      7108      7105      7103      7106      7109
      7106      7109      7112      7113      7106      7109      7112      7114
      7106      7109      7112      7115      7107      7106      7109      7110
      7107      7106      7109      7111      7107      7106      7109      7112
      7108      7106      7109      7110      7108      7106      7109      7111
      7108      7106      7109      7112      7109      7112      7115      7116
      7109      7112      7115      7117      7109      7112      7115      7118
      7110      7109      7112      7113      7110      7109      7112      7114
      7110      7109      7112      7115      7111      7109      7112      7113
      7111      7109      7112      7114      7111      7109      7112      7115
      7112      7115      7118      7119      7112      7115      7118      7120
      7112      7115      7118      7121      7113      7112      7115      7116
      7113      7112      7115      7117      7113      7112      7115      7118
      7114      7112      7115      7116      7114      7112      7115      7117
      7114      7112      7115      7118      7115      7118      7121      7122
      7115      7118      7121      7123      7115      7118      7121      7124
      7116      7115      7118      7119      7116      7115      7118      7120
      7116      7115      7118      7121      7117      7115      7118      7119
      7117      7115      7118      7120      7117      7115      7118      7121
      7119      7118      7121      7122      7119      7118      7121      7123
      7119      7118      7121      7124      7120      7118      7121      7122
      7120      7118      7121      7123      7120      7118      7121      7124
      7125      7126      7141      7142      7125      7126      7141      7143
      7125      7126      7141      7147      7126      7125      7129      7130
      7126      7125      7129      7131      7126      7125      7129      7132
      7126      7125      7133      7134      7126      7125      7133      7135
      7126      7125      7133      7136      7126      7125      7137      7138
      7126      7125      7137      7139      7126      7125      7137      7140
      7126      7141      7147      7144      7127      7126      7125      7129
      7127      7126      7125      7133      7127      7126      7125      7137
      7127      7126      7141      7142      7127      7126      7141      7143
      7127      7126      7141      7147      7128      7126      7125      7129
      7128      7126      7125      7133      7128      7126      7125      7137
      7128      7126      7141      7142      7128      7126      7141      7143
      7128      7126      7141      7147      7129      7125      7126      7141
      7129      7125      7133      7134      7129      7125      7133      7135
      7129      7125      7133      7136      7129      7125      7137      7138
      7129      7125      7137      7139      7129      7125      7137      7140
      7130      7129      7125      7133      7130      7129      7125      7137
      7131      7129      7125      7133      7131      7129      7125      7137
      7132      7129      7125      7133      7132      7129      7125      7137
      7133      7125      7126      7141      7133      7125      7137      7138
      7133      7125      7137      7139      7133      7125      7137      7140
      7134      7133      7125      7137      7135      7133      7125      7137
      7136      7133      7125      7137      7137      7125      7126      7141
      7141      7147      7144      7145      7141      7147      7144      7146
      7141      7147      7144      7148      7142      7141      7147      7144
      7143      7141      7147      7144      7144      7148      7149      7150
      7144      7148      7149      7151      7144      7148      7149      7152
      7145      7144      7148      7149      7146      7144      7148      7149
      7147      7144      7148      7149      7148      7149      7152      7153
      7148      7149      7152      7154      7148      7149      7152      7160
      7149      7152      7154      7155      7149      7152      7160      7161
      7149      7152      7160      7162      7149      7152      7160      7163
      7150      7149      7152      7153      7150      7149      7152      7154
      7150      7149      7152      7160      7151      7149      7152      7153
      7151      7149      7152      7154      7151      7149      7152      7160
      7152      7154      7155      7156      7152      7154      7155      7157
      7152      7160      7163      7164      7153      7152      7154      7155
      7153      7152      7160      7161      7153      7152      7160      7162
      7153      7152      7160      7163      7154      7152      7160      7161
      7154      7152      7160      7162      7154      7152      7160      7163
      7154      7155      7157      7158      7154      7155      7157      7159
      7154      7155      7157      7169      7155      7154      7152      7160
      7155      7157      7169      7170      7155      7157      7169      7171
      7155      7157      7169      7172      7156      7155      7157      7158
      7156      7155      7157      7159      7156      7155      7157      7169
      7157      7169      7172      7173      7157      7169      7172      7174
      7157      7169      7172      7175      7158      7157      7169      7170
      7158      7157      7169      7171      7158      7157      7169      7172
      7159      7157      7169      7170      7159      7157      7169      7171
      7159      7157      7169      7172      7160      7163      7164      7165
      7160      7163      7164      7166      7161      7160      7163      7164
      7162      7160      7163      7164      7163      7164      7166      7167
      7163      7164      7166      7168      7163      7164      7166      7216
      7164      7166      7216      7217      7164      7166      7216      7218
      7164      7166      7216      7219      7165      7164      7166      7167
      7165      7164      7166      7168      7165      7164      7166      7216
      7166      7216      7219      7220      7166      7216      7219      7221
      7166      7216      7219      7222      7167      7166      7216      7217
      7167      7166      7216      7218      7167      7166      7216      7219
      7168      7166      7216      7217      7168      7166      7216      7218
      7168      7166      7216      7219      7169      7172      7175      7176
      7169      7172      7175      7177      7169      7172      7175      7178
      7170      7169      7172      7173      7170      7169      7172      7174
      7170      7169      7172      7175      7171      7169      7172      7173
      7171      7169      7172      7174      7171      7169      7172      7175
      7172      7175      7178      7179      7172      7175      7178      7180
      7172      7175      7178      7181      7173      7172      7175      7176
      7173      7172      7175      7177      7173      7172      7175      7178
      7174      7172      7175      7176      7174      7172      7175      7177
      7174      7172      7175      7178      7175      7178      7181      7182
      7175      7178      7181      7183      7175      7178      7181      7184
      7176      7175      7178      7179      7176      7175      7178      7180
      7176      7175      7178      7181      7177      7175      7178      7179
      7177      7175      7178      7180      7177      7175      7178      7181
      7178      7181      7184      7185      7178      7181      7184      7186
      7178      7181      7184      7187      7179      7178      7181      7182
      7179      7178      7181      7183      7179      7178      7181      7184
      7180      7178      7181      7182      7180      7178      7181      7183
      7180      7178      7181      7184      7181      7184      7187      7188
      7181      7184      7187      7189      7182      7181      7184      7185
      7182      7181      7184      7186      7182      7181      7184      7187
      7183      7181      7184      7185      7183      7181      7184      7186
      7183      7181      7184      7187      7184      7187      7189      7190
      7184      7187      7189      7191      7185      7184      7187      7188
      7185      7184      7187      7189      7186      7184      7187      7188
      7186      7184      7187      7189      7187      7189      7191      7192
      7187      7189      7191      7193      7187      7189      7191      7194
      7188      7187      7189      7190      7188      7187      7189      7191
      7189      7191      7194      7195      7189      7191      7194      7196
      7189      7191      7194      7197      7190      7189      7191      7192
      7190      7189      7191      7193      7190      7189      7191      7194
      7191      7194      7197      7198      7191      7194      7197      7199
      7191      7194      7197      7200      7192      7191      7194      7195
      7192      7191      7194      7196      7192      7191      7194      7197
      7193      7191      7194      7195      7193      7191      7194      7196
      7193      7191      7194      7197      7194      7197      7200      7201
      7194      7197      7200      7202      7194      7197      7200      7203
      7195      7194      7197      7198      7195      7194      7197      7199
      7195      7194      7197      7200      7196      7194      7197      7198
      7196      7194      7197      7199      7196      7194      7197      7200
      7197      7200      7203      7204      7197      7200      7203      7205
      7197      7200      7203      7206      7198      7197      7200      7201
      7198      7197      7200      7202      7198      7197      7200      7203
      7199      7197      7200      7201      7199      7197      7200      7202
      7199      7197      7200      7203      7200      7203      7206      7207
      7200      7203      7206      7208      7200      7203      7206      7209
      7201      7200      7203      7204      7201      7200      7203      7205
      7201      7200      7203      7206      7202      7200      7203      7204
      7202      7200      7203      7205      7202      7200      7203      7206
      7203      7206      7209      7210      7203      7206      7209      7211
      7203      7206      7209      7212      7204      7203      7206      7207
      7204      7203      7206      7208      7204      7203      7206      7209
      7205      7203      7206      7207      7205      7203      7206      7208
      7205      7203      7206      7209      7206      7209      7212      7213
      7206      7209      7212      7214      7206      7209      7212      7215
      7207      7206      7209      7210      7207      7206      7209      7211
      7207      7206      7209      7212      7208      7206      7209      7210
      7208      7206      7209      7211      7208      7206      7209      7212
      7210      7209      7212      7213      7210      7209      7212      7214
      7210      7209      7212      7215      7211      7209      7212      7213
      7211      7209      7212      7214      7211      7209      7212      7215
      7216      7219      7222      7223      7216      7219      7222      7224
      7216      7219      7222      7225      7217      7216      7219      7220
      7217      7216      7219      7221      7217      7216      7219      7222
      7218      7216      7219      7220      7218      7216      7219      7221
      7218      7216      7219      7222      7219      7222      7225      7226
      7219      7222      7225      7227      7219      7222      7225      7228
      7220      7219      7222      7223      7220      7219      7222      7224
      7220      7219      7222      7225      7221      7219      7222      7223
      7221      7219      7222      7224      7221      7219      7222      7225
      7222      7225      7228      7229      7222      7225      7228      7230
      7222      7225      7228      7231      7223      7222      7225      7226
      7223      7222      7225      7227      7223      7222      7225      7228
      7224      7222      7225      7226      7224      7222      7225      7227
      7224      7222      7225      7228      7225      7228      7231      7232
      7225      7228      7231      7233      7225      7228      7231      7234
      7226      7225      7228      7229      7226      7225      7228      7230
      7226      7225      7228      7231      7227      7225      7228      7229
      7227      7225      7228      7230      7227      7225      7228      7231
      7228      7231      7234      7235      7228      7231      7234      7236
      7229      7228      7231      7232      7229      7228      7231      7233
      7229      7228      7231      7234      7230      7228      7231      7232
      7230      7228      7231      7233      7230      7228      7231      7234
      7231      7234      7236      7237      7231      7234      7236      7238
      7232      7231      7234      7235      7232      7231      7234      7236
      7233      7231      7234      7235      7233      7231      7234      7236
      7234      7236      7238      7239      7234      7236      7238      7240
      7234      7236      7238      7241      7235      7234      7236      7237
      7235      7234      7236      7238      7236      7238      7241      7242
      7236      7238      7241      7243      7236      7238      7241      7244
      7237      7236      7238      7239      7237      7236      7238      7240
      7237      7236      7238      7241      7238      7241      7244      7245
      7238      7241      7244      7246      7238      7241      7244      7247
      7239      7238      7241      7242      7239      7238      7241      7243
      7239      7238      7241      7244      7240      7238      7241      7242
      7240      7238      7241      7243      7240      7238      7241      7244
      7241      7244      7247      7248      7241      7244      7247      7249
      7241      7244      7247      7250      7242      7241      7244      7245
      7242      7241      7244      7246      7242      7241      7244      7247
      7243      7241      7244      7245      7243      7241      7244      7246
      7243      7241      7244      7247      7244      7247      7250      7251
      7244      7247      7250      7252      7244      7247      7250      7253
      7245      7244      7247      7248      7245      7244      7247      7249
      7245      7244      7247      7250      7246      7244      7247      7248
      7246      7244      7247      7249      7246      7244      7247      7250
      7247      7250      7253      7254      7247      7250      7253      7255
      7247      7250      7253      7256      7248      7247      7250      7251
      7248      7247      7250      7252      7248      7247      7250      7253
      7249      7247      7250      7251      7249      7247      7250      7252
      7249      7247      7250      7253      7250      7253      7256      7257
      7250      7253      7256      7258      7250      7253      7256      7259
      7251      7250      7253      7254      7251      7250      7253      7255
      7251      7250      7253      7256      7252      7250      7253      7254
      7252      7250      7253      7255      7252      7250      7253      7256
      7253      7256      7259      7260      7253      7256      7259      7261
      7253      7256      7259      7262      7254      7253      7256      7257
      7254      7253      7256      7258      7254      7253      7256      7259
      7255      7253      7256      7257      7255      7253      7256      7258
      7255      7253      7256      7259      7257      7256      7259      7260
      7257      7256      7259      7261      7257      7256      7259      7262
      7258      7256      7259      7260      7258      7256      7259      7261
      7258      7256      7259      7262      7263      7264      7279      7280
      7263      7264      7279      7281      7263      7264      7279      7285
      7264      7263      7267      7268      7264      7263      7267      7269
      7264      7263      7267      7270      7264      7263      7271      7272
      7264      7263      7271      7273      7264      7263      7271      7274
      7264      7263      7275      7276      7264      7263      7275      7277
      7264      7263      7275      7278      7264      7279      7285      7282
      7265      7264      7263      7267      7265      7264      7263      7271
      7265      7264      7263      7275      7265      7264      7279      7280
      7265      7264      7279      7281      7265      7264      7279      7285
      7266      7264      7263      7267      7266      7264      7263      7271
      7266      7264      7263      7275      7266      7264      7279      7280
      7266      7264      7279      7281      7266      7264      7279      7285
      7267      7263      7264      7279      7267      7263      7271      7272
      7267      7263      7271      7273      7267      7263      7271      7274
      7267      7263      7275      7276      7267      7263      7275      7277
      7267      7263      7275      7278      7268      7267      7263      7271
      7268      7267      7263      7275      7269      7267      7263      7271
      7269      7267      7263      7275      7270      7267      7263      7271
      7270      7267      7263      7275      7271      7263      7264      7279
      7271      7263      7275      7276      7271      7263      7275      7277
      7271      7263      7275      7278      7272      7271      7263      7275
      7273      7271      7263      7275      7274      7271      7263      7275
      7275      7263      7264      7279      7279      7285      7282      7283
      7279      7285      7282      7284      7279      7285      7282      7286
      7280      7279      7285      7282      7281      7279      7285      7282
      7282      7286      7287      7288      7282      7286      7287      7289
      7282      7286      7287      7290      7283      7282      7286      7287
      7284      7282      7286      7287      7285      7282      7286      7287
      7286      7287      7290      7291      7286      7287      7290      7292
      7286      7287      7290      7298      7287      7290      7292      7293
      7287      7290      7298      7299      7287      7290      7298      7300
      7287      7290      7298      7301      7288      7287      7290      7291
      7288      7287      7290      7292      7288      7287      7290      7298
      7289      7287      7290      7291      7289      7287      7290      7292
      7289      7287      7290      7298      7290      7292      7293      7294
      7290      7292      7293      7295      7290      7298      7301      7302
      7291      7290      7292      7293      7291      7290      7298      7299
      7291      7290      7298      7300      7291      7290      7298      7301
      7292      7290      7298      7299      7292      7290      7298      7300
      7292      7290      7298      7301      7292      7293      7295      7296
      7292      7293      7295      7297      7292      7293      7295      7307
      7293      7292      7290      7298      7293      7295      7307      7308
      7293      7295      7307      7309      7293      7295      7307      7310
      7294      7293      7295      7296      7294      7293      7295      7297
      7294      7293      7295      7307      7295      7307      7310      7311
      7295      7307      7310      7312      7295      7307      7310      7313
      7296      7295      7307      7308      7296      7295      7307      7309
      7296      7295      7307      7310      7297      7295      7307      7308
      7297      7295      7307      7309      7297      7295      7307      7310
      7298      7301      7302      7303      7298      7301      7302      7304
      7299      7298      7301      7302      7300      7298      7301      7302
      7301      7302      7304      7305      7301      7302      7304      7306
      7301      7302      7304      7354      7302      7304      7354      7355
      7302      7304      7354      7356      7302      7304      7354      7357
      7303      7302      7304      7305      7303      7302      7304      7306
      7303      7302      7304      7354      7304      7354      7357      7358
      7304      7354      7357      7359      7304      7354      7357      7360
      7305      7304      7354      7355      7305      7304      7354      7356
      7305      7304      7354      7357      7306      7304      7354      7355
      7306      7304      7354      7356      7306      7304      7354      7357
      7307      7310      7313      7314      7307      7310      7313      7315
      7307      7310      7313      7316      7308      7307      7310      7311
      7308      7307      7310      7312      7308      7307      7310      7313
      7309      7307      7310      7311      7309      7307      7310      7312
      7309      7307      7310      7313      7310      7313      7316      7317
      7310      7313      7316      7318      7310      7313      7316      7319
      7311      7310      7313      7314      7311      7310      7313      7315
      7311      7310      7313      7316      7312      7310      7313      7314
      7312      7310      7313      7315      7312      7310      7313      7316
      7313      7316      7319      7320      7313      7316      7319      7321
      7313      7316      7319      7322      7314      7313      7316      7317
      7314      7313      7316      7318      7314      7313      7316      7319
      7315      7313      7316      7317      7315      7313      7316      7318
      7315      7313      7316      7319      7316      7319      7322      7323
      7316      7319      7322      7324      7316      7319      7322      7325
      7317      7316      7319      7320      7317      7316      7319      7321
      7317      7316      7319      7322      7318      7316      7319      7320
      7318      7316      7319      7321      7318      7316      7319      7322
      7319      7322      7325      7326      7319      7322      7325      7327
      7320      7319      7322      7323      7320      7319      7322      7324
      7320      7319      7322      7325      7321      7319      7322      7323
      7321      7319      7322      7324      7321      7319      7322      7325
      7322      7325      7327      7328      7322      7325      7327      7329
      7323      7322      7325      7326      7323      7322      7325      7327
      7324      7322      7325      7326      7324      7322      7325      7327
      7325      7327      7329      7330      7325      7327      7329      7331
      7325      7327      7329      7332      7326      7325      7327      7328
      7326      7325      7327      7329      7327      7329      7332      7333
      7327      7329      7332      7334      7327      7329      7332      7335
      7328      7327      7329      7330      7328      7327      7329      7331
      7328      7327      7329      7332      7329      7332      7335      7336
      7329      7332      7335      7337      7329      7332      7335      7338
      7330      7329      7332      7333      7330      7329      7332      7334
      7330      7329      7332      7335      7331      7329      7332      7333
      7331      7329      7332      7334      7331      7329      7332      7335
      7332      7335      7338      7339      7332      7335      7338      7340
      7332      7335      7338      7341      7333      7332      7335      7336
      7333      7332      7335      7337      7333      7332      7335      7338
      7334      7332      7335      7336      7334      7332      7335      7337
      7334      7332      7335      7338      7335      7338      7341      7342
      7335      7338      7341      7343      7335      7338      7341      7344
      7336      7335      7338      7339      7336      7335      7338      7340
      7336      7335      7338      7341      7337      7335      7338      7339
      7337      7335      7338      7340      7337      7335      7338      7341
      7338      7341      7344      7345      7338      7341      7344      7346
      7338      7341      7344      7347      7339      7338      7341      7342
      7339      7338      7341      7343      7339      7338      7341      7344
      7340      7338      7341      7342      7340      7338      7341      7343
      7340      7338      7341      7344      7341      7344      7347      7348
      7341      7344      7347      7349      7341      7344      7347      7350
      7342      7341      7344      7345      7342      7341      7344      7346
      7342      7341      7344      7347      7343      7341      7344      7345
      7343      7341      7344      7346      7343      7341      7344      7347
      7344      7347      7350      7351      7344      7347      7350      7352
      7344      7347      7350      7353      7345      7344      7347      7348
      7345      7344      7347      7349      7345      7344      7347      7350
      7346      7344      7347      7348      7346      7344      7347      7349
      7346      7344      7347      7350      7348      7347      7350      7351
      7348      7347      7350      7352      7348      7347      7350      7353
      7349      7347      7350      7351      7349      7347      7350      7352
      7349      7347      7350      7353      7354      7357      7360      7361
      7354      7357      7360      7362      7354      7357      7360      7363
      7355      7354      7357      7358      7355      7354      7357      7359
      7355      7354      7357      7360      7356      7354      7357      7358
      7356      7354      7357      7359      7356      7354      7357      7360
      7357      7360      7363      7364      7357      7360      7363      7365
      7357      7360      7363      7366      7358      7357      7360      7361
      7358      7357      7360      7362      7358      7357      7360      7363
      7359      7357      7360      7361      7359      7357      7360      7362
      7359      7357      7360      7363      7360      7363      7366      7367
      7360      7363      7366      7368      7360      7363      7366      7369
      7361      7360      7363      7364      7361      7360      7363      7365
      7361      7360      7363      7366      7362      7360      7363      7364
      7362      7360      7363      7365      7362      7360      7363      7366
      7363      7366      7369      7370      7363      7366      7369      7371
      7363      7366      7369      7372      7364      7363      7366      7367
      7364      7363      7366      7368      7364      7363      7366      7369
      7365      7363      7366      7367      7365      7363      7366      7368
      7365      7363      7366      7369      7366      7369      7372      7373
      7366      7369      7372      7374      7367      7366      7369      7370
      7367      7366      7369      7371      7367      7366      7369      7372
      7368      7366      7369      7370      7368      7366      7369      7371
      7368      7366      7369      7372      7369      7372      7374      7375
      7369      7372      7374      7376      7370      7369      7372      7373
      7370      7369      7372      7374      7371      7369      7372      7373
      7371      7369      7372      7374      7372      7374      7376      7377
      7372      7374      7376      7378      7372      7374      7376      7379
      7373      7372      7374      7375      7373      7372      7374      7376
      7374      7376      7379      7380      7374      7376      7379      7381
      7374      7376      7379      7382      7375      7374      7376      7377
      7375      7374      7376      7378      7375      7374      7376      7379
      7376      7379      7382      7383      7376      7379      7382      7384
      7376      7379      7382      7385      7377      7376      7379      7380
      7377      7376      7379      7381      7377      7376      7379      7382
      7378      7376      7379      7380      7378      7376      7379      7381
      7378      7376      7379      7382      7379      7382      7385      7386
      7379      7382      7385      7387      7379      7382      7385      7388
      7380      7379      7382      7383      7380      7379      7382      7384
      7380      7379      7382      7385      7381      7379      7382      7383
      7381      7379      7382      7384      7381      7379      7382      7385
      7382      7385      7388      7389      7382      7385      7388      7390
      7382      7385      7388      7391      7383      7382      7385      7386
      7383      7382      7385      7387      7383      7382      7385      7388
      7384      7382      7385      7386      7384      7382      7385      7387
      7384      7382      7385      7388      7385      7388      7391      7392
      7385      7388      7391      7393      7385      7388      7391      7394
      7386      7385      7388      7389      7386      7385      7388      7390
      7386      7385      7388      7391      7387      7385      7388      7389
      7387      7385      7388      7390      7387      7385      7388      7391
      7388      7391      7394      7395      7388      7391      7394      7396
      7388      7391      7394      7397      7389      7388      7391      7392
      7389      7388      7391      7393      7389      7388      7391      7394
      7390      7388      7391      7392      7390      7388      7391      7393
      7390      7388      7391      7394      7391      7394      7397      7398
      7391      7394      7397      7399      7391      7394      7397      7400
      7392      7391      7394      7395      7392      7391      7394      7396
      7392      7391      7394      7397      7393      7391      7394      7395
      7393      7391      7394      7396      7393      7391      7394      7397
      7395      7394      7397      7398      7395      7394      7397      7399
      7395      7394      7397      7400      7396      7394      7397      7398
      7396      7394      7397      7399      7396      7394      7397      7400
      7401      7402      7417      7418      7401      7402      7417      7419
      7401      7402      7417      7423      7402      7401      7405      7406
      7402      7401      7405      7407      7402      7401      7405      7408
      7402      7401      7409      7410      7402      7401      7409      7411
      7402      7401      7409      7412      7402      7401      7413      7414
      7402      7401      7413      7415      7402      7401      7413      7416
      7402      7417      7423      7420      7403      7402      7401      7405
      7403      7402      7401      7409      7403      7402      7401      7413
      7403      7402      7417      7418      7403      7402      7417      7419
      7403      7402      7417      7423      7404      7402      7401      7405
      7404      7402      7401      7409      7404      7402      7401      7413
      7404      7402      7417      7418      7404      7402      7417      7419
      7404      7402      7417      7423      7405      7401      7402      7417
      7405      7401      7409      7410      7405      7401      7409      7411
      7405      7401      7409      7412      7405      7401      7413      7414
      7405      7401      7413      7415      7405      7401      7413      7416
      7406      7405      7401      7409      7406      7405      7401      7413
      7407      7405      7401      7409      7407      7405      7401      7413
      7408      7405      7401      7409      7408      7405      7401      7413
      7409      7401      7402      7417      7409      7401      7413      7414
      7409      7401      7413      7415      7409      7401      7413      7416
      7410      7409      7401      7413      7411      7409      7401      7413
      7412      7409      7401      7413      7413      7401      7402      7417
      7417      7423      7420      7421      7417      7423      7420      7422
      7417      7423      7420      7424      7418      7417      7423      7420
      7419      7417      7423      7420      7420      7424      7425      7426
      7420      7424      7425      7427      7420      7424      7425      7428
      7421      7420      7424      7425      7422      7420      7424      7425
      7423      7420      7424      7425      7424      7425      7428      7429
      7424      7425      7428      7430      7424      7425      7428      7436
      7425      7428      7430      7431      7425      7428      7436      7437
      7425      7428      7436      7438      7425      7428      7436      7439
      7426      7425      7428      7429      7426      7425      7428      7430
      7426      7425      7428      7436      7427      7425      7428      7429
      7427      7425      7428      7430      7427      7425      7428      7436
      7428      7430      7431      7432      7428      7430      7431      7433
      7428      7436      7439      7440      7429      7428      7430      7431
      7429      7428      7436      7437      7429      7428      7436      7438
      7429      7428      7436      7439      7430      7428      7436      7437
      7430      7428      7436      7438      7430      7428      7436      7439
      7430      7431      7433      7434      7430      7431      7433      7435
      7430      7431      7433      7445      7431      7430      7428      7436
      7431      7433      7445      7446      7431      7433      7445      7447
      7431      7433      7445      7448      7432      7431      7433      7434
      7432      7431      7433      7435      7432      7431      7433      7445
      7433      7445      7448      7449      7433      7445      7448      7450
      7433      7445      7448      7451      7434      7433      7445      7446
      7434      7433      7445      7447      7434      7433      7445      7448
      7435      7433      7445      7446      7435      7433      7445      7447
      7435      7433      7445      7448      7436      7439      7440      7441
      7436      7439      7440      7442      7437      7436      7439      7440
      7438      7436      7439      7440      7439      7440      7442      7443
      7439      7440      7442      7444      7439      7440      7442      7492
      7440      7442      7492      7493      7440      7442      7492      7494
      7440      7442      7492      7495      7441      7440      7442      7443
      7441      7440      7442      7444      7441      7440      7442      7492
      7442      7492      7495      7496      7442      7492      7495      7497
      7442      7492      7495      7498      7443      7442      7492      7493
      7443      7442      7492      7494      7443      7442      7492      7495
      7444      7442      7492      7493      7444      7442      7492      7494
      7444      7442      7492      7495      7445      7448      7451      7452
      7445      7448      7451      7453      7445      7448      7451      7454
      7446      7445      7448      7449      7446      7445      7448      7450
      7446      7445      7448      7451      7447      7445      7448      7449
      7447      7445      7448      7450      7447      7445      7448      7451
      7448      7451      7454      7455      7448      7451      7454      7456
      7448      7451      7454      7457      7449      7448      7451      7452
      7449      7448      7451      7453      7449      7448      7451      7454
      7450      7448      7451      7452      7450      7448      7451      7453
      7450      7448      7451      7454      7451      7454      7457      7458
      7451      7454      7457      7459      7451      7454      7457      7460
      7452      7451      7454      7455      7452      7451      7454      7456
      7452      7451      7454      7457      7453      7451      7454      7455
      7453      7451      7454      7456      7453      7451      7454      7457
      7454      7457      7460      7461      7454      7457      7460      7462
      7454      7457      7460      7463      7455      7454      7457      7458
      7455      7454      7457      7459      7455      7454      7457      7460
      7456      7454      7457      7458      7456      7454      7457      7459
      7456      7454      7457      7460      7457      7460      7463      7464
      7457      7460      7463      7465      7458      7457      7460      7461
      7458      7457      7460      7462      7458      7457      7460      7463
      7459      7457      7460      7461      7459      7457      7460      7462
      7459      7457      7460      7463      7460      7463      7465      7466
      7460      7463      7465      7467      7461      7460      7463      7464
      7461      7460      7463      7465      7462      7460      7463      7464
      7462      7460      7463      7465      7463      7465      7467      7468
      7463      7465      7467      7469      7463      7465      7467      7470
      7464      7463      7465      7466      7464      7463      7465      7467
      7465      7467      7470      7471      7465      7467      7470      7472
      7465      7467      7470      7473      7466      7465      7467      7468
      7466      7465      7467      7469      7466      7465      7467      7470
      7467      7470      7473      7474      7467      7470      7473      7475
      7467      7470      7473      7476      7468      7467      7470      7471
      7468      7467      7470      7472      7468      7467      7470      7473
      7469      7467      7470      7471      7469      7467      7470      7472
      7469      7467      7470      7473      7470      7473      7476      7477
      7470      7473      7476      7478      7470      7473      7476      7479
      7471      7470      7473      7474      7471      7470      7473      7475
      7471      7470      7473      7476      7472      7470      7473      7474
      7472      7470      7473      7475      7472      7470      7473      7476
      7473      7476      7479      7480      7473      7476      7479      7481
      7473      7476      7479      7482      7474      7473      7476      7477
      7474      7473      7476      7478      7474      7473      7476      7479
      7475      7473      7476      7477      7475      7473      7476      7478
      7475      7473      7476      7479      7476      7479      7482      7483
      7476      7479      7482      7484      7476      7479      7482      7485
      7477      7476      7479      7480      7477      7476      7479      7481
      7477      7476      7479      7482      7478      7476      7479      7480
      7478      7476      7479      7481      7478      7476      7479      7482
      7479      7482      7485      7486      7479      7482      7485      7487
      7479      7482      7485      7488      7480      7479      7482      7483
      7480      7479      7482      7484      7480      7479      7482      7485
      7481      7479      7482      7483      7481      7479      7482      7484
      7481      7479      7482      7485      7482      7485      7488      7489
      7482      7485      7488      7490      7482      7485      7488      7491
      7483      7482      7485      7486      7483      7482      7485      7487
      7483      7482      7485      7488      7484      7482      7485      7486
      7484      7482      7485      7487      7484      7482      7485      7488
      7486      7485      7488      7489      7486      7485      7488      7490
      7486      7485      7488      7491      7487      7485      7488      7489
      7487      7485      7488      7490      7487      7485      7488      7491
      7492      7495      7498      7499      7492      7495      7498      7500
      7492      7495      7498      7501      7493      7492      7495      7496
      7493      7492      7495      7497      7493      7492      7495      7498
      7494      7492      7495      7496      7494      7492      7495      7497
      7494      7492      7495      7498      7495      7498      7501      7502
      7495      7498      7501      7503      7495      7498      7501      7504
      7496      7495      7498      7499      7496      7495      7498      7500
      7496      7495      7498      7501      7497      7495      7498      7499
      7497      7495      7498      7500      7497      7495      7498      7501
      7498      7501      7504      7505      7498      7501      7504      7506
      7498      7501      7504      7507      7499      7498      7501      7502
      7499      7498      7501      7503      7499      7498      7501      7504
      7500      7498      7501      7502      7500      7498      7501      7503
      7500      7498      7501      7504      7501      7504      7507      7508
      7501      7504      7507      7509      7501      7504      7507      7510
      7502      7501      7504      7505      7502      7501      7504      7506
      7502      7501      7504      7507      7503      7501      7504      7505
      7503      7501      7504      7506      7503      7501      7504      7507
      7504      7507      7510      7511      7504      7507      7510      7512
      7505      7504      7507      7508      7505      7504      7507      7509
      7505      7504      7507      7510      7506      7504      7507      7508
      7506      7504      7507      7509      7506      7504      7507      7510
      7507      7510      7512      7513      7507      7510      7512      7514
      7508      7507      7510      7511      7508      7507      7510      7512
      7509      7507      7510      7511      7509      7507      7510      7512
      7510      7512      7514      7515      7510      7512      7514      7516
      7510      7512      7514      7517      7511      7510      7512      7513
      7511      7510      7512      7514      7512      7514      7517      7518
      7512      7514      7517      7519      7512      7514      7517      7520
      7513      7512      7514      7515      7513      7512      7514      7516
      7513      7512      7514      7517      7514      7517      7520      7521
      7514      7517      7520      7522      7514      7517      7520      7523
      7515      7514      7517      7518      7515      7514      7517      7519
      7515      7514      7517      7520      7516      7514      7517      7518
      7516      7514      7517      7519      7516      7514      7517      7520
      7517      7520      7523      7524      7517      7520      7523      7525
      7517      7520      7523      7526      7518      7517      7520      7521
      7518      7517      7520      7522      7518      7517      7520      7523
      7519      7517      7520      7521      7519      7517      7520      7522
      7519      7517      7520      7523      7520      7523      7526      7527
      7520      7523      7526      7528      7520      7523      7526      7529
      7521      7520      7523      7524      7521      7520      7523      7525
      7521      7520      7523      7526      7522      7520      7523      7524
      7522      7520      7523      7525      7522      7520      7523      7526
      7523      7526      7529      7530      7523      7526      7529      7531
      7523      7526      7529      7532      7524      7523      7526      7527
      7524      7523      7526      7528      7524      7523      7526      7529
      7525      7523      7526      7527      7525      7523      7526      7528
      7525      7523      7526      7529      7526      7529      7532      7533
      7526      7529      7532      7534      7526      7529      7532      7535
      7527      7526      7529      7530      7527      7526      7529      7531
      7527      7526      7529      7532      7528      7526      7529      7530
      7528      7526      7529      7531      7528      7526      7529      7532
      7529      7532      7535      7536      7529      7532      7535      7537
      7529      7532      7535      7538      7530      7529      7532      7533
      7530      7529      7532      7534      7530      7529      7532      7535
      7531      7529      7532      7533      7531      7529      7532      7534
      7531      7529      7532      7535      7533      7532      7535      7536
      7533      7532      7535      7537      7533      7532      7535      7538
      7534      7532      7535      7536      7534      7532      7535      7537
      7534      7532      7535      7538      7539      7540      7555      7556
      7539      7540      7555      7557      7539      7540      7555      7561
      7540      7539      7543      7544      7540      7539      7543      7545
      7540      7539      7543      7546      7540      7539      7547      7548
      7540      7539      7547      7549      7540      7539      7547      7550
      7540      7539      7551      7552      7540      7539      7551      7553
      7540      7539      7551      7554      7540      7555      7561      7558
      7541      7540      7539      7543      7541      7540      7539      7547
      7541      7540      7539      7551      7541      7540      7555      7556
      7541      7540      7555      7557      7541      7540      7555      7561
      7542      7540      7539      7543      7542      7540      7539      7547
      7542      7540      7539      7551      7542      7540      7555      7556
      7542      7540      7555      7557      7542      7540      7555      7561
      7543      7539      7540      7555      7543      7539      7547      7548
      7543      7539      7547      7549      7543      7539      7547      7550
      7543      7539      7551      7552      7543      7539      7551      7553
      7543      7539      7551      7554      7544      7543      7539      7547
      7544      7543      7539      7551      7545      7543      7539      7547
      7545      7543      7539      7551      7546      7543      7539      7547
      7546      7543      7539      7551      7547      7539      7540      7555
      7547      7539      7551      7552      7547      7539      7551      7553
      7547      7539      7551      7554      7548      7547      7539      7551
      7549      7547      7539      7551      7550      7547      7539      7551
      7551      7539      7540      7555      7555      7561      7558      7559
      7555      7561      7558      7560      7555      7561      7558      7562
      7556      7555      7561      7558      7557      7555      7561      7558
      7558      7562      7563      7564      7558      7562      7563      7565
      7558      7562      7563      7566      7559      7558      7562      7563
      7560      7558      7562      7563      7561      7558      7562      7563
      7562      7563      7566      7567      7562      7563      7566      7568
      7562      7563      7566      7574      7563      7566      7568      7569
      7563      7566      7574      7575      7563      7566      7574      7576
      7563      7566      7574      7577      7564      7563      7566      7567
      7564      7563      7566      7568      7564      7563      7566      7574
      7565      7563      7566      7567      7565      7563      7566      7568
      7565      7563      7566      7574      7566      7568      7569      7570
      7566      7568      7569      7571      7566      7574      7577      7578
      7567      7566      7568      7569      7567      7566      7574      7575
      7567      7566      7574      7576      7567      7566      7574      7577
      7568      7566      7574      7575      7568      7566      7574      7576
      7568      7566      7574      7577      7568      7569      7571      7572
      7568      7569      7571      7573      7568      7569      7571      7583
      7569      7568      7566      7574      7569      7571      7583      7584
      7569      7571      7583      7585      7569      7571      7583      7586
      7570      7569      7571      7572      7570      7569      7571      7573
      7570      7569      7571      7583      7571      7583      7586      7587
      7571      7583      7586      7588      7571      7583      7586      7589
      7572      7571      7583      7584      7572      7571      7583      7585
      7572      7571      7583      7586      7573      7571      7583      7584
      7573      7571      7583      7585      7573      7571      7583      7586
      7574      7577      7578      7579      7574      7577      7578      7580
      7575      7574      7577      7578      7576      7574      7577      7578
      7577      7578      7580      7581      7577      7578      7580      7582
      7577      7578      7580      7630      7578      7580      7630      7631
      7578      7580      7630      7632      7578      7580      7630      7633
      7579      7578      7580      7581      7579      7578      7580      7582
      7579      7578      7580      7630      7580      7630      7633      7634
      7580      7630      7633      7635      7580      7630      7633      7636
      7581      7580      7630      7631      7581      7580      7630      7632
      7581      7580      7630      7633      7582      7580      7630      7631
      7582      7580      7630      7632      7582      7580      7630      7633
      7583      7586      7589      7590      7583      7586      7589      7591
      7583      7586      7589      7592      7584      7583      7586      7587
      7584      7583      7586      7588      7584      7583      7586      7589
      7585      7583      7586      7587      7585      7583      7586      7588
      7585      7583      7586      7589      7586      7589      7592      7593
      7586      7589      7592      7594      7586      7589      7592      7595
      7587      7586      7589      7590      7587      7586      7589      7591
      7587      7586      7589      7592      7588      7586      7589      7590
      7588      7586      7589      7591      7588      7586      7589      7592
      7589      7592      7595      7596      7589      7592      7595      7597
      7589      7592      7595      7598      7590      7589      7592      7593
      7590      7589      7592      7594      7590      7589      7592      7595
      7591      7589      7592      7593      7591      7589      7592      7594
      7591      7589      7592      7595      7592      7595      7598      7599
      7592      7595      7598      7600      7592      7595      7598      7601
      7593      7592      7595      7596      7593      7592      7595      7597
      7593      7592      7595      7598      7594      7592      7595      7596
      7594      7592      7595      7597      7594      7592      7595      7598
      7595      7598      7601      7602      7595      7598      7601      7603
      7596      7595      7598      7599      7596      7595      7598      7600
      7596      7595      7598      7601      7597      7595      7598      7599
      7597      7595      7598      7600      7597      7595      7598      7601
      7598      7601      7603      7604      7598      7601      7603      7605
      7599      7598      7601      7602      7599      7598      7601      7603
      7600      7598      7601      7602      7600      7598      7601      7603
      7601      7603      7605      7606      7601      7603      7605      7607
      7601      7603      7605      7608      7602      7601      7603      7604
      7602      7601      7603      7605      7603      7605      7608      7609
      7603      7605      7608      7610      7603      7605      7608      7611
      7604      7603      7605      7606      7604      7603      7605      7607
      7604      7603      7605      7608      7605      7608      7611      7612
      7605      7608      7611      7613      7605      7608      7611      7614
      7606      7605      7608      7609      7606      7605      7608      7610
      7606      7605      7608      7611      7607      7605      7608      7609
      7607      7605      7608      7610      7607      7605      7608      7611
      7608      7611      7614      7615      7608      7611      7614      7616
      7608      7611      7614      7617      7609      7608      7611      7612
      7609      7608      7611      7613      7609      7608      7611      7614
      7610      7608      7611      7612      7610      7608      7611      7613
      7610      7608      7611      7614      7611      7614      7617      7618
      7611      7614      7617      7619      7611      7614      7617      7620
      7612      7611      7614      7615      7612      7611      7614      7616
      7612      7611      7614      7617      7613      7611      7614      7615
      7613      7611      7614      7616      7613      7611      7614      7617
      7614      7617      7620      7621      7614      7617      7620      7622
      7614      7617      7620      7623      7615      7614      7617      7618
      7615      7614      7617      7619      7615      7614      7617      7620
      7616      7614      7617      7618      7616      7614      7617      7619
      7616      7614      7617      7620      7617      7620      7623      7624
      7617      7620      7623      7625      7617      7620      7623      7626
      7618      7617      7620      7621      7618      7617      7620      7622
      7618      7617      7620      7623      7619      7617      7620      7621
      7619      7617      7620      7622      7619      7617      7620      7623
      7620      7623      7626      7627      7620      7623      7626      7628
      7620      7623      7626      7629      7621      7620      7623      7624
      7621      7620      7623      7625      7621      7620      7623      7626
      7622      7620      7623      7624      7622      7620      7623      7625
      7622      7620      7623      7626      7624      7623      7626      7627
      7624      7623      7626      7628      7624      7623      7626      7629
      7625      7623      7626      7627      7625      7623      7626      7628
      7625      7623      7626      7629      7630      7633      7636      7637
      7630      7633      7636      7638      7630      7633      7636      7639
      7631      7630      7633      7634      7631      7630      7633      7635
      7631      7630      7633      7636      7632      7630      7633      7634
      7632      7630      7633      7635      7632      7630      7633      7636
      7633      7636      7639      7640      7633      7636      7639      7641
      7633      7636      7639      7642      7634      7633      7636      7637
      7634      7633      7636      7638      7634      7633      7636      7639
      7635      7633      7636      7637      7635      7633      7636      7638
      7635      7633      7636      7639      7636      7639      7642      7643
      7636      7639      7642      7644      7636      7639      7642      7645
      7637      7636      7639      7640      7637      7636      7639      7641
      7637      7636      7639      7642      7638      7636      7639      7640
      7638      7636      7639      7641      7638      7636      7639      7642
      7639      7642      7645      7646      7639      7642      7645      7647
      7639      7642      7645      7648      7640      7639      7642      7643
      7640      7639      7642      7644      7640      7639      7642      7645
      7641      7639      7642      7643      7641      7639      7642      7644
      7641      7639      7642      7645      7642      7645      7648      7649
      7642      7645      7648      7650      7643      7642      7645      7646
      7643      7642      7645      7647      7643      7642      7645      7648
      7644      7642      7645      7646      7644      7642      7645      7647
      7644      7642      7645      7648      7645      7648      7650      7651
      7645      7648      7650      7652      7646      7645      7648      7649
      7646      7645      7648      7650      7647      7645      7648      7649
      7647      7645      7648      7650      7648      7650      7652      7653
      7648      7650      7652      7654      7648      7650      7652      7655
      7649      7648      7650      7651      7649      7648      7650      7652
      7650      7652      7655      7656      7650      7652      7655      7657
      7650      7652      7655      7658      7651      7650      7652      7653
      7651      7650      7652      7654      7651      7650      7652      7655
      7652      7655      7658      7659      7652      7655      7658      7660
      7652      7655      7658      7661      7653      7652      7655      7656
      7653      7652      7655      7657      7653      7652      7655      7658
      7654      7652      7655      7656      7654      7652      7655      7657
      7654      7652      7655      7658      7655      7658      7661      7662
      7655      7658      7661      7663      7655      7658      7661      7664
      7656      7655      7658      7659      7656      7655      7658      7660
      7656      7655      7658      7661      7657      7655      7658      7659
      7657      7655      7658      7660      7657      7655      7658      7661
      7658      7661      7664      7665      7658      7661      7664      7666
      7658      7661      7664      7667      7659      7658      7661      7662
      7659      7658      7661      7663      7659      7658      7661      7664
      7660      7658      7661      7662      7660      7658      7661      7663
      7660      7658      7661      7664      7661      7664      7667      7668
      7661      7664      7667      7669      7661      7664      7667      7670
      7662      7661      7664      7665      7662      7661      7664      7666
      7662      7661      7664      7667      7663      7661      7664      7665
      7663      7661      7664      7666      7663      7661      7664      7667
      7664      7667      7670      7671      7664      7667      7670      7672
      7664      7667      7670      7673      7665      7664      7667      7668
      7665      7664      7667      7669      7665      7664      7667      7670
      7666      7664      7667      7668      7666      7664      7667      7669
      7666      7664      7667      7670      7667      7670      7673      7674
      7667      7670      7673      7675      7667      7670      7673      7676
      7668      7667      7670      7671      7668      7667      7670      7672
      7668      7667      7670      7673      7669      7667      7670      7671
      7669      7667      7670      7672      7669      7667      7670      7673
      7671      7670      7673      7674      7671      7670      7673      7675
      7671      7670      7673      7676      7672      7670      7673      7674
      7672      7670      7673      7675      7672      7670      7673      7676
      7677      7678      7693      7694      7677      7678      7693      7695
      7677      7678      7693      7699      7678      7677      7681      7682
      7678      7677      7681      7683      7678      7677      7681      7684
      7678      7677      7685      7686      7678      7677      7685      7687
      7678      7677      7685      7688      7678      7677      7689      7690
      7678      7677      7689      7691      7678      7677      7689      7692
      7678      7693      7699      7696      7679      7678      7677      7681
      7679      7678      7677      7685      7679      7678      7677      7689
      7679      7678      7693      7694      7679      7678      7693      7695
      7679      7678      7693      7699      7680      7678      7677      7681
      7680      7678      7677      7685      7680      7678      7677      7689
      7680      7678      7693      7694      7680      7678      7693      7695
      7680      7678      7693      7699      7681      7677      7678      7693
      7681      7677      7685      7686      7681      7677      7685      7687
      7681      7677      7685      7688      7681      7677      7689      7690
      7681      7677      7689      7691      7681      7677      7689      7692
      7682      7681      7677      7685      7682      7681      7677      7689
      7683      7681      7677      7685      7683      7681      7677      7689
      7684      7681      7677      7685      7684      7681      7677      7689
      7685      7677      7678      7693      7685      7677      7689      7690
      7685      7677      7689      7691      7685      7677      7689      7692
      7686      7685      7677      7689      7687      7685      7677      7689
      7688      7685      7677      7689      7689      7677      7678      7693
      7693      7699      7696      7697      7693      7699      7696      7698
      7693      7699      7696      7700      7694      7693      7699      7696
      7695      7693      7699      7696      7696      7700      7701      7702
      7696      7700      7701      7703      7696      7700      7701      7704
      7697      7696      7700      7701      7698      7696      7700      7701
      7699      7696      7700      7701      7700      7701      7704      7705
      7700      7701      7704      7706      7700      7701      7704      7712
      7701      7704      7706      7707      7701      7704      7712      7713
      7701      7704      7712      7714      7701      7704      7712      7715
      7702      7701      7704      7705      7702      7701      7704      7706
      7702      7701      7704      7712      7703      7701      7704      7705
      7703      7701      7704      7706      7703      7701      7704      7712
      7704      7706      7707      7708      7704      7706      7707      7709
      7704      7712      7715      7716      7705      7704      7706      7707
      7705      7704      7712      7713      7705      7704      7712      7714
      7705      7704      7712      7715      7706      7704      7712      7713
      7706      7704      7712      7714      7706      7704      7712      7715
      7706      7707      7709      7710      7706      7707      7709      7711
      7706      7707      7709      7721      7707      7706      7704      7712
      7707      7709      7721      7722      7707      7709      7721      7723
      7707      7709      7721      7724      7708      7707      7709      7710
      7708      7707      7709      7711      7708      7707      7709      7721
      7709      7721      7724      7725      7709      7721      7724      7726
      7709      7721      7724      7727      7710      7709      7721      7722
      7710      7709      7721      7723      7710      7709      7721      7724
      7711      7709      7721      7722      7711      7709      7721      7723
      7711      7709      7721      7724      7712      7715      7716      7717
      7712      7715      7716      7718      7713      7712      7715      7716
      7714      7712      7715      7716      7715      7716      7718      7719
      7715      7716      7718      7720      7715      7716      7718      7768
      7716      7718      7768      7769      7716      7718      7768      7770
      7716      7718      7768      7771      7717      7716      7718      7719
      7717      7716      7718      7720      7717      7716      7718      7768
      7718      7768      7771      7772      7718      7768      7771      7773
      7718      7768      7771      7774      7719      7718      7768      7769
      7719      7718      7768      7770      7719      7718      7768      7771
      7720      7718      7768      7769      7720      7718      7768      7770
      7720      7718      7768      7771      7721      7724      7727      7728
      7721      7724      7727      7729      7721      7724      7727      7730
      7722      7721      7724      7725      7722      7721      7724      7726
      7722      7721      7724      7727      7723      7721      7724      7725
      7723      7721      7724      7726      7723      7721      7724      7727
      7724      7727      7730      7731      7724      7727      7730      7732
      7724      7727      7730      7733      7725      7724      7727      7728
      7725      7724      7727      7729      7725      7724      7727      7730
      7726      7724      7727      7728      7726      7724      7727      7729
      7726      7724      7727      7730      7727      7730      7733      7734
      7727      7730      7733      7735      7727      7730      7733      7736
      7728      7727      7730      7731      7728      7727      7730      7732
      7728      7727      7730      7733      7729      7727      7730      7731
      7729      7727      7730      7732      7729      7727      7730      7733
      7730      7733      7736      7737      7730      7733      7736      7738
      7730      7733      7736      7739      7731      7730      7733      7734
      7731      7730      7733      7735      7731      7730      7733      7736
      7732      7730      7733      7734      7732      7730      7733      7735
      7732      7730      7733      7736      7733      7736      7739      7740
      7733      7736      7739      7741      7734      7733      7736      7737
      7734      7733      7736      7738      7734      7733      7736      7739
      7735      7733      7736      7737      7735      7733      7736      7738
      7735      7733      7736      7739      7736      7739      7741      7742
      7736      7739      7741      7743      7737      7736      7739      7740
      7737      7736      7739      7741      7738      7736      7739      7740
      7738      7736      7739      7741      7739      7741      7743      7744
      7739      7741      7743      7745      7739      7741      7743      7746
      7740      7739      7741      7742      7740      7739      7741      7743
      7741      7743      7746      7747      7741      7743      7746      7748
      7741      7743      7746      7749      7742      7741      7743      7744
      7742      7741      7743      7745      7742      7741      7743      7746
      7743      7746      7749      7750      7743      7746      7749      7751
      7743      7746      7749      7752      7744      7743      7746      7747
      7744      7743      7746      7748      7744      7743      7746      7749
      7745      7743      7746      7747      7745      7743      7746      7748
      7745      7743      7746      7749      7746      7749      7752      7753
      7746      7749      7752      7754      7746      7749      7752      7755
      7747      7746      7749      7750      7747      7746      7749      7751
      7747      7746      7749      7752      7748      7746      7749      7750
      7748      7746      7749      7751      7748      7746      7749      7752
      7749      7752      7755      7756      7749      7752      7755      7757
      7749      7752      7755      7758      7750      7749      7752      7753
      7750      7749      7752      7754      7750      7749      7752      7755
      7751      7749      7752      7753      7751      7749      7752      7754
      7751      7749      7752      7755      7752      7755      7758      7759
      7752      7755      7758      7760      7752      7755      7758      7761
      7753      7752      7755      7756      7753      7752      7755      7757
      7753      7752      7755      7758      7754      7752      7755      7756
      7754      7752      7755      7757      7754      7752      7755      7758
      7755      7758      7761      7762      7755      7758      7761      7763
      7755      7758      7761      7764      7756      7755      7758      7759
      7756      7755      7758      7760      7756      7755      7758      7761
      7757      7755      7758      7759      7757      7755      7758      7760
      7757      7755      7758      7761      7758      7761      7764      7765
      7758      7761      7764      7766      7758      7761      7764      7767
      7759      7758      7761      7762      7759      7758      7761      7763
      7759      7758      7761      7764      7760      7758      7761      7762
      7760      7758      7761      7763      7760      7758      7761      7764
      7762      7761      7764      7765      7762      7761      7764      7766
      7762      7761      7764      7767      7763      7761      7764      7765
      7763      7761      7764      7766      7763      7761      7764      7767
      7768      7771      7774      7775      7768      7771      7774      7776
      7768      7771      7774      7777      7769      7768      7771      7772
      7769      7768      7771      7773      7769      7768      7771      7774
      7770      7768      7771      7772      7770      7768      7771      7773
      7770      7768      7771      7774      7771      7774      7777      7778
      7771      7774      7777      7779      7771      7774      7777      7780
      7772      7771      7774      7775      7772      7771      7774      7776
      7772      7771      7774      7777      7773      7771      7774      7775
      7773      7771      7774      7776      7773      7771      7774      7777
      7774      7777      7780      7781      7774      7777      7780      7782
      7774      7777      7780      7783      7775      7774      7777      7778
      7775      7774      7777      7779      7775      7774      7777      7780
      7776      7774      7777      7778      7776      7774      7777      7779
      7776      7774      7777      7780      7777      7780      7783      7784
      7777      7780      7783      7785      7777      7780      7783      7786
      7778      7777      7780      7781      7778      7777      7780      7782
      7778      7777      7780      7783      7779      7777      7780      7781
      7779      7777      7780      7782      7779      7777      7780      7783
      7780      7783      7786      7787      7780      7783      7786      7788
      7781      7780      7783      7784      7781      7780      7783      7785
      7781      7780      7783      7786      7782      7780      7783      7784
      7782      7780      7783      7785      7782      7780      7783      7786
      7783      7786      7788      7789      7783      7786      7788      7790
      7784      7783      7786      7787      7784      7783      7786      7788
      7785      7783      7786      7787      7785      7783      7786      7788
      7786      7788      7790      7791      7786      7788      7790      7792
      7786      7788      7790      7793      7787      7786      7788      7789
      7787      7786      7788      7790      7788      7790      7793      7794
      7788      7790      7793      7795      7788      7790      7793      7796
      7789      7788      7790      7791      7789      7788      7790      7792
      7789      7788      7790      7793      7790      7793      7796      7797
      7790      7793      7796      7798      7790      7793      7796      7799
      7791      7790      7793      7794      7791      7790      7793      7795
      7791      7790      7793      7796      7792      7790      7793      7794
      7792      7790      7793      7795      7792      7790      7793      7796
      7793      7796      7799      7800      7793      7796      7799      7801
      7793      7796      7799      7802      7794      7793      7796      7797
      7794      7793      7796      7798      7794      7793      7796      7799
      7795      7793      7796      7797      7795      7793      7796      7798
      7795      7793      7796      7799      7796      7799      7802      7803
      7796      7799      7802      7804      7796      7799      7802      7805
      7797      7796      7799      7800      7797      7796      7799      7801
      7797      7796      7799      7802      7798      7796      7799      7800
      7798      7796      7799      7801      7798      7796      7799      7802
      7799      7802      7805      7806      7799      7802      7805      7807
      7799      7802      7805      7808      7800      7799      7802      7803
      7800      7799      7802      7804      7800      7799      7802      7805
      7801      7799      7802      7803      7801      7799      7802      7804
      7801      7799      7802      7805      7802      7805      7808      7809
      7802      7805      7808      7810      7802      7805      7808      7811
      7803      7802      7805      7806      7803      7802      7805      7807
      7803      7802      7805      7808      7804      7802      7805      7806
      7804      7802      7805      7807      7804      7802      7805      7808
      7805      7808      7811      7812      7805      7808      7811      7813
      7805      7808      7811      7814      7806      7805      7808      7809
      7806      7805      7808      7810      7806      7805      7808      7811
      7807      7805      7808      7809      7807      7805      7808      7810
      7807      7805      7808      7811      7809      7808      7811      7812
      7809      7808      7811      7813      7809      7808      7811      7814
      7810      7808      7811      7812      7810      7808      7811      7813
      7810      7808      7811      7814      7815      7816      7831      7832
      7815      7816      7831      7833      7815      7816      7831      7837
      7816      7815      7819      7820      7816      7815      7819      7821
      7816      7815      7819      7822      7816      7815      7823      7824
      7816      7815      7823      7825      7816      7815      7823      7826
      7816      7815      7827      7828      7816      7815      7827      7829
      7816      7815      7827      7830      7816      7831      7837      7834
      7817      7816      7815      7819      7817      7816      7815      7823
      7817      7816      7815      7827      7817      7816      7831      7832
      7817      7816      7831      7833      7817      7816      7831      7837
      7818      7816      7815      7819      7818      7816      7815      7823
      7818      7816      7815      7827      7818      7816      7831      7832
      7818      7816      7831      7833      7818      7816      7831      7837
      7819      7815      7816      7831      7819      7815      7823      7824
      7819      7815      7823      7825      7819      7815      7823      7826
      7819      7815      7827      7828      7819      7815      7827      7829
      7819      7815      7827      7830      7820      7819      7815      7823
      7820      7819      7815      7827      7821      7819      7815      7823
      7821      7819      7815      7827      7822      7819      7815      7823
      7822      7819      7815      7827      7823      7815      7816      7831
      7823      7815      7827      7828      7823      7815      7827      7829
      7823      7815      7827      7830      7824      7823      7815      7827
      7825      7823      7815      7827      7826      7823      7815      7827
      7827      7815      7816      7831      7831      7837      7834      7835
      7831      7837      7834      7836      7831      7837      7834      7838
      7832      7831      7837      7834      7833      7831      7837      7834
      7834      7838      7839      7840      7834      7838      7839      7841
      7834      7838      7839      7842      7835      7834      7838      7839
      7836      7834      7838      7839      7837      7834      7838      7839
      7838      7839      7842      7843      7838      7839      7842      7844
      7838      7839      7842      7850      7839      7842      7844      7845
      7839      7842      7850      7851      7839      7842      7850      7852
      7839      7842      7850      7853      7840      7839      7842      7843
      7840      7839      7842      7844      7840      7839      7842      7850
      7841      7839      7842      7843      7841      7839      7842      7844
      7841      7839      7842      7850      7842      7844      7845      7846
      7842      7844      7845      7847      7842      7850      7853      7854
      7843      7842      7844      7845      7843      7842      7850      7851
      7843      7842      7850      7852      7843      7842      7850      7853
      7844      7842      7850      7851      7844      7842      7850      7852
      7844      7842      7850      7853      7844      7845      7847      7848
      7844      7845      7847      7849      7844      7845      7847      7859
      7845      7844      7842      7850      7845      7847      7859      7860
      7845      7847      7859      7861      7845      7847      7859      7862
      7846      7845      7847      7848      7846      7845      7847      7849
      7846      7845      7847      7859      7847      7859      7862      7863
      7847      7859      7862      7864      7847      7859      7862      7865
      7848      7847      7859      7860      7848      7847      7859      7861
      7848      7847      7859      7862      7849      7847      7859      7860
      7849      7847      7859      7861      7849      7847      7859      7862
      7850      7853      7854      7855      7850      7853      7854      7856
      7851      7850      7853      7854      7852      7850      7853      7854
      7853      7854      7856      7857      7853      7854      7856      7858
      7853      7854      7856      7906      7854      7856      7906      7907
      7854      7856      7906      7908      7854      7856      7906      7909
      7855      7854      7856      7857      7855      7854      7856      7858
      7855      7854      7856      7906      7856      7906      7909      7910
      7856      7906      7909      7911      7856      7906      7909      7912
      7857      7856      7906      7907      7857      7856      7906      7908
      7857      7856      7906      7909      7858      7856      7906      7907
      7858      7856      7906      7908      7858      7856      7906      7909
      7859      7862      7865      7866      7859      7862      7865      7867
      7859      7862      7865      7868      7860      7859      7862      7863
      7860      7859      7862      7864      7860      7859      7862      7865
      7861      7859      7862      7863      7861      7859      7862      7864
      7861      7859      7862      7865      7862      7865      7868      7869
      7862      7865      7868      7870      7862      7865      7868      7871
      7863      7862      7865      7866      7863      7862      7865      7867
      7863      7862      7865      7868      7864      7862      7865      7866
      7864      7862      7865      7867      7864      7862      7865      7868
      7865      7868      7871      7872      7865      7868      7871      7873
      7865      7868      7871      7874      7866      7865      7868      7869
      7866      7865      7868      7870      7866      7865      7868      7871
      7867      7865      7868      7869      7867      7865      7868      7870
      7867      7865      7868      7871      7868      7871      7874      7875
      7868      7871      7874      7876      7868      7871      7874      7877
      7869      7868      7871      7872      7869      7868      7871      7873
      7869      7868      7871      7874      7870      7868      7871      7872
      7870      7868      7871      7873      7870      7868      7871      7874
      7871      7874      7877      7878      7871      7874      7877      7879
      7872      7871      7874      7875      7872      7871      7874      7876
      7872      7871      7874      7877      7873      7871      7874      7875
      7873      7871      7874      7876      7873      7871      7874      7877
      7874      7877      7879      7880      7874      7877      7879      7881
      7875      7874      7877      7878      7875      7874      7877      7879
      7876      7874      7877      7878      7876      7874      7877      7879
      7877      7879      7881      7882      7877      7879      7881      7883
      7877      7879      7881      7884      7878      7877      7879      7880
      7878      7877      7879      7881      7879      7881      7884      7885
      7879      7881      7884      7886      7879      7881      7884      7887
      7880      7879      7881      7882      7880      7879      7881      7883
      7880      7879      7881      7884      7881      7884      7887      7888
      7881      7884      7887      7889      7881      7884      7887      7890
      7882      7881      7884      7885      7882      7881      7884      7886
      7882      7881      7884      7887      7883      7881      7884      7885
      7883      7881      7884      7886      7883      7881      7884      7887
      7884      7887      7890      7891      7884      7887      7890      7892
      7884      7887      7890      7893      7885      7884      7887      7888
      7885      7884      7887      7889      7885      7884      7887      7890
      7886      7884      7887      7888      7886      7884      7887      7889
      7886      7884      7887      7890      7887      7890      7893      7894
      7887      7890      7893      7895      7887      7890      7893      7896
      7888      7887      7890      7891      7888      7887      7890      7892
      7888      7887      7890      7893      7889      7887      7890      7891
      7889      7887      7890      7892      7889      7887      7890      7893
      7890      7893      7896      7897      7890      7893      7896      7898
      7890      7893      7896      7899      7891      7890      7893      7894
      7891      7890      7893      7895      7891      7890      7893      7896
      7892      7890      7893      7894      7892      7890      7893      7895
      7892      7890      7893      7896      7893      7896      7899      7900
      7893      7896      7899      7901      7893      7896      7899      7902
      7894      7893      7896      7897      7894      7893      7896      7898
      7894      7893      7896      7899      7895      7893      7896      7897
      7895      7893      7896      7898      7895      7893      7896      7899
      7896      7899      7902      7903      7896      7899      7902      7904
      7896      7899      7902      7905      7897      7896      7899      7900
      7897      7896      7899      7901      7897      7896      7899      7902
      7898      7896      7899      7900      7898      7896      7899      7901
      7898      7896      7899      7902      7900      7899      7902      7903
      7900      7899      7902      7904      7900      7899      7902      7905
      7901      7899      7902      7903      7901      7899      7902      7904
      7901      7899      7902      7905      7906      7909      7912      7913
      7906      7909      7912      7914      7906      7909      7912      7915
      7907      7906      7909      7910      7907      7906      7909      7911
      7907      7906      7909      7912      7908      7906      7909      7910
      7908      7906      7909      7911      7908      7906      7909      7912
      7909      7912      7915      7916      7909      7912      7915      7917
      7909      7912      7915      7918      7910      7909      7912      7913
      7910      7909      7912      7914      7910      7909      7912      7915
      7911      7909      7912      7913      7911      7909      7912      7914
      7911      7909      7912      7915      7912      7915      7918      7919
      7912      7915      7918      7920      7912      7915      7918      7921
      7913      7912      7915      7916      7913      7912      7915      7917
      7913      7912      7915      7918      7914      7912      7915      7916
      7914      7912      7915      7917      7914      7912      7915      7918
      7915      7918      7921      7922      7915      7918      7921      7923
      7915      7918      7921      7924      7916      7915      7918      7919
      7916      7915      7918      7920      7916      7915      7918      7921
      7917      7915      7918      7919      7917      7915      7918      7920
      7917      7915      7918      7921      7918      7921      7924      7925
      7918      7921      7924      7926      7919      7918      7921      7922
      7919      7918      7921      7923      7919      7918      7921      7924
      7920      7918      7921      7922      7920      7918      7921      7923
      7920      7918      7921      7924      7921      7924      7926      7927
      7921      7924      7926      7928      7922      7921      7924      7925
      7922      7921      7924      7926      7923      7921      7924      7925
      7923      7921      7924      7926      7924      7926      7928      7929
      7924      7926      7928      7930      7924      7926      7928      7931
      7925      7924      7926      7927      7925      7924      7926      7928
      7926      7928      7931      7932      7926      7928      7931      7933
      7926      7928      7931      7934      7927      7926      7928      7929
      7927      7926      7928      7930      7927      7926      7928      7931
      7928      7931      7934      7935      7928      7931      7934      7936
      7928      7931      7934      7937      7929      7928      7931      7932
      7929      7928      7931      7933      7929      7928      7931      7934
      7930      7928      7931      7932      7930      7928      7931      7933
      7930      7928      7931      7934      7931      7934      7937      7938
      7931      7934      7937      7939      7931      7934      7937      7940
      7932      7931      7934      7935      7932      7931      7934      7936
      7932      7931      7934      7937      7933      7931      7934      7935
      7933      7931      7934      7936      7933      7931      7934      7937
      7934      7937      7940      7941      7934      7937      7940      7942
      7934      7937      7940      7943      7935      7934      7937      7938
      7935      7934      7937      7939      7935      7934      7937      7940
      7936      7934      7937      7938      7936      7934      7937      7939
      7936      7934      7937      7940      7937      7940      7943      7944
      7937      7940      7943      7945      7937      7940      7943      7946
      7938      7937      7940      7941      7938      7937      7940      7942
      7938      7937      7940      7943      7939      7937      7940      7941
      7939      7937      7940      7942      7939      7937      7940      7943
      7940      7943      7946      7947      7940      7943      7946      7948
      7940      7943      7946      7949      7941      7940      7943      7944
      7941      7940      7943      7945      7941      7940      7943      7946
      7942      7940      7943      7944      7942      7940      7943      7945
      7942      7940      7943      7946      7943      7946      7949      7950
      7943      7946      7949      7951      7943      7946      7949      7952
      7944      7943      7946      7947      7944      7943      7946      7948
      7944      7943      7946      7949      7945      7943      7946      7947
      7945      7943      7946      7948      7945      7943      7946      7949
      7947      7946      7949      7950      7947      7946      7949      7951
      7947      7946      7949      7952      7948      7946      7949      7950
      7948      7946      7949      7951      7948      7946      7949      7952
      7953      7954      7969      7970      7953      7954      7969      7971
      7953      7954      7969      7975      7954      7953      7957      7958
      7954      7953      7957      7959      7954      7953      7957      7960
      7954      7953      7961      7962      7954      7953      7961      7963
      7954      7953      7961      7964      7954      7953      7965      7966
      7954      7953      7965      7967      7954      7953      7965      7968
      7954      7969      7975      7972      7955      7954      7953      7957
      7955      7954      7953      7961      7955      7954      7953      7965
      7955      7954      7969      7970      7955      7954      7969      7971
      7955      7954      7969      7975      7956      7954      7953      7957
      7956      7954      7953      7961      7956      7954      7953      7965
      7956      7954      7969      7970      7956      7954      7969      7971
      7956      7954      7969      7975      7957      7953      7954      7969
      7957      7953      7961      7962      7957      7953      7961      7963
      7957      7953      7961      7964      7957      7953      7965      7966
      7957      7953      7965      7967      7957      7953      7965      7968
      7958      7957      7953      7961      7958      7957      7953      7965
      7959      7957      7953      7961      7959      7957      7953      7965
      7960      7957      7953      7961      7960      7957      7953      7965
      7961      7953      7954      7969      7961      7953      7965      7966
      7961      7953      7965      7967      7961      7953      7965      7968
      7962      7961      7953      7965      7963      7961      7953      7965
      7964      7961      7953      7965      7965      7953      7954      7969
      7969      7975      7972      7973      7969      7975      7972      7974
      7969      7975      7972      7976      7970      7969      7975      7972
      7971      7969      7975      7972      7972      7976      7977      7978
      7972      7976      7977      7979      7972      7976      7977      7980
      7973      7972      7976      7977      7974      7972      7976      7977
      7975      7972      7976      7977      7976      7977      7980      7981
      7976      7977      7980      7982      7976      7977      7980      7988
      7977      7980      7982      7983      7977      7980      7988      7989
      7977      7980      7988      7990      7977      7980      7988      7991
      7978      7977      7980      7981      7978      7977      7980      7982
      7978      7977      7980      7988      7979      7977      7980      7981
      7979      7977      7980      7982      7979      7977      7980      7988
      7980      7982      7983      7984      7980      7982      7983      7985
      7980      7988      7991      7992      7981      7980      7982      7983
      7981      7980      7988      7989      7981      7980      7988      7990
      7981      7980      7988      7991      7982      7980      7988      7989
      7982      7980      7988      7990      7982      7980      7988      7991
      7982      7983      7985      7986      7982      7983      7985      7987
      7982      7983      7985      7997      7983      7982      7980      7988
      7983      7985      7997      7998      7983      7985      7997      7999
      7983      7985      7997      8000      7984      7983      7985      7986
      7984      7983      7985      7987      7984      7983      7985      7997
      7985      7997      8000      8001      7985      7997      8000      8002
      7985      7997      8000      8003      7986      7985      7997      7998
      7986      7985      7997      7999      7986      7985      7997      8000
      7987      7985      7997      7998      7987      7985      7997      7999
      7987      7985      7997      8000      7988      7991      7992      7993
      7988      7991      7992      7994      7989      7988      7991      7992
      7990      7988      7991      7992      7991      7992      7994      7995
      7991      7992      7994      7996      7991      7992      7994      8044
      7992      7994      8044      8045      7992      7994      8044      8046
      7992      7994      8044      8047      7993      7992      7994      7995
      7993      7992      7994      7996      7993      7992      7994      8044
      7994      8044      8047      8048      7994      8044      8047      8049
      7994      8044      8047      8050      7995      7994      8044      8045
      7995      7994      8044      8046      7995      7994      8044      8047
      7996      7994      8044      8045      7996      7994      8044      8046
      7996      7994      8044      8047      7997      8000      8003      8004
      7997      8000      8003      8005      7997      8000      8003      8006
      7998      7997      8000      8001      7998      7997      8000      8002
      7998      7997      8000      8003      7999      7997      8000      8001
      7999      7997      8000      8002      7999      7997      8000      8003
      8000      8003      8006      8007      8000      8003      8006      8008
      8000      8003      8006      8009      8001      8000      8003      8004
      8001      8000      8003      8005      8001      8000      8003      8006
      8002      8000      8003      8004      8002      8000      8003      8005
      8002      8000      8003      8006      8003      8006      8009      8010
      8003      8006      8009      8011      8003      8006      8009      8012
      8004      8003      8006      8007      8004      8003      8006      8008
      8004      8003      8006      8009      8005      8003      8006      8007
      8005      8003      8006      8008      8005      8003      8006      8009
      8006      8009      8012      8013      8006      8009      8012      8014
      8006      8009      8012      8015      8007      8006      8009      8010
      8007      8006      8009      8011      8007      8006      8009      8012
      8008      8006      8009      8010      8008      8006      8009      8011
      8008      8006      8009      8012      8009      8012      8015      8016
      8009      8012      8015      8017      8010      8009      8012      8013
      8010      8009      8012      8014      8010      8009      8012      8015
      8011      8009      8012      8013      8011      8009      8012      8014
      8011      8009      8012      8015      8012      8015      8017      8018
      8012      8015      8017      8019      8013      8012      8015      8016
      8013      8012      8015      8017      8014      8012      8015      8016
      8014      8012      8015      8017      8015      8017      8019      8020
      8015      8017      8019      8021      8015      8017      8019      8022
      8016      8015      8017      8018      8016      8015      8017      8019
      8017      8019      8022      8023      8017      8019      8022      8024
      8017      8019      8022      8025      8018      8017      8019      8020
      8018      8017      8019      8021      8018      8017      8019      8022
      8019      8022      8025      8026      8019      8022      8025      8027
      8019      8022      8025      8028      8020      8019      8022      8023
      8020      8019      8022      8024      8020      8019      8022      8025
      8021      8019      8022      8023      8021      8019      8022      8024
      8021      8019      8022      8025      8022      8025      8028      8029
      8022      8025      8028      8030      8022      8025      8028      8031
      8023      8022      8025      8026      8023      8022      8025      8027
      8023      8022      8025      8028      8024      8022      8025      8026
      8024      8022      8025      8027      8024      8022      8025      8028
      8025      8028      8031      8032      8025      8028      8031      8033
      8025      8028      8031      8034      8026      8025      8028      8029
      8026      8025      8028      8030      8026      8025      8028      8031
      8027      8025      8028      8029      8027      8025      8028      8030
      8027      8025      8028      8031      8028      8031      8034      8035
      8028      8031      8034      8036      8028      8031      8034      8037
      8029      8028      8031      8032      8029      8028      8031      8033
      8029      8028      8031      8034      8030      8028      8031      8032
      8030      8028      8031      8033      8030      8028      8031      8034
      8031      8034      8037      8038      8031      8034      8037      8039
      8031      8034      8037      8040      8032      8031      8034      8035
      8032      8031      8034      8036      8032      8031      8034      8037
      8033      8031      8034      8035      8033      8031      8034      8036
      8033      8031      8034      8037      8034      8037      8040      8041
      8034      8037      8040      8042      8034      8037      8040      8043
      8035      8034      8037      8038      8035      8034      8037      8039
      8035      8034      8037      8040      8036      8034      8037      8038
      8036      8034      8037      8039      8036      8034      8037      8040
      8038      8037      8040      8041      8038      8037      8040      8042
      8038      8037      8040      8043      8039      8037      8040      8041
      8039      8037      8040      8042      8039      8037      8040      8043
      8044      8047      8050      8051      8044      8047      8050      8052
      8044      8047      8050      8053      8045      8044      8047      8048
      8045      8044      8047      8049      8045      8044      8047      8050
      8046      8044      8047      8048      8046      8044      8047      8049
      8046      8044      8047      8050      8047      8050      8053      8054
      8047      8050      8053      8055      8047      8050      8053      8056
      8048      8047      8050      8051      8048      8047      8050      8052
      8048      8047      8050      8053      8049      8047      8050      8051
      8049      8047      8050      8052      8049      8047      8050      8053
      8050      8053      8056      8057      8050      8053      8056      8058
      8050      8053      8056      8059      8051      8050      8053      8054
      8051      8050      8053      8055      8051      8050      8053      8056
      8052      8050      8053      8054      8052      8050      8053      8055
      8052      8050      8053      8056      8053      8056      8059      8060
      8053      8056      8059      8061      8053      8056      8059      8062
      8054      8053      8056      8057      8054      8053      8056      8058
      8054      8053      8056      8059      8055      8053      8056      8057
      8055      8053      8056      8058      8055      8053      8056      8059
      8056      8059      8062      8063      8056      8059      8062      8064
      8057      8056      8059      8060      8057      8056      8059      8061
      8057      8056      8059      8062      8058      8056      8059      8060
      8058      8056      8059      8061      8058      8056      8059      8062
      8059      8062      8064      8065      8059      8062      8064      8066
      8060      8059      8062      8063      8060      8059      8062      8064
      8061      8059      8062      8063      8061      8059      8062      8064
      8062      8064      8066      8067      8062      8064      8066      8068
      8062      8064      8066      8069      8063      8062      8064      8065
      8063      8062      8064      8066      8064      8066      8069      8070
      8064      8066      8069      8071      8064      8066      8069      8072
      8065      8064      8066      8067      8065      8064      8066      8068
      8065      8064      8066      8069      8066      8069      8072      8073
      8066      8069      8072      8074      8066      8069      8072      8075
      8067      8066      8069      8070      8067      8066      8069      8071
      8067      8066      8069      8072      8068      8066      8069      8070
      8068      8066      8069      8071      8068      8066      8069      8072
      8069      8072      8075      8076      8069      8072      8075      8077
      8069      8072      8075      8078      8070      8069      8072      8073
      8070      8069      8072      8074      8070      8069      8072      8075
      8071      8069      8072      8073      8071      8069      8072      8074
      8071      8069      8072      8075      8072      8075      8078      8079
      8072      8075      8078      8080      8072      8075      8078      8081
      8073      8072      8075      8076      8073      8072      8075      8077
      8073      8072      8075      8078      8074      8072      8075      8076
      8074      8072      8075      8077      8074      8072      8075      8078
      8075      8078      8081      8082      8075      8078      8081      8083
      8075      8078      8081      8084      8076      8075      8078      8079
      8076      8075      8078      8080      8076      8075      8078      8081
      8077      8075      8078      8079      8077      8075      8078      8080
      8077      8075      8078      8081      8078      8081      8084      8085
      8078      8081      8084      8086      8078      8081      8084      8087
      8079      8078      8081      8082      8079      8078      8081      8083
      8079      8078      8081      8084      8080      8078      8081      8082
      8080      8078      8081      8083      8080      8078      8081      8084
      8081      8084      8087      8088      8081      8084      8087      8089
      8081      8084      8087      8090      8082      8081      8084      8085
      8082      8081      8084      8086      8082      8081      8084      8087
      8083      8081      8084      8085      8083      8081      8084      8086
      8083      8081      8084      8087      8085      8084      8087      8088
      8085      8084      8087      8089      8085      8084      8087      8090
      8086      8084      8087      8088      8086      8084      8087      8089
      8086      8084      8087      8090      8091      8092      8107      8108
      8091      8092      8107      8109      8091      8092      8107      8113
      8092      8091      8095      8096      8092      8091      8095      8097
      8092      8091      8095      8098      8092      8091      8099      8100
      8092      8091      8099      8101      8092      8091      8099      8102
      8092      8091      8103      8104      8092      8091      8103      8105
      8092      8091      8103      8106      8092      8107      8113      8110
      8093      8092      8091      8095      8093      8092      8091      8099
      8093      8092      8091      8103      8093      8092      8107      8108
      8093      8092      8107      8109      8093      8092      8107      8113
      8094      8092      8091      8095      8094      8092      8091      8099
      8094      8092      8091      8103      8094      8092      8107      8108
      8094      8092      8107      8109      8094      8092      8107      8113
      8095      8091      8092      8107      8095      8091      8099      8100
      8095      8091      8099      8101      8095      8091      8099      8102
      8095      8091      8103      8104      8095      8091      8103      8105
      8095      8091      8103      8106      8096      8095      8091      8099
      8096      8095      8091      8103      8097      8095      8091      8099
      8097      8095      8091      8103      8098      8095      8091      8099
      8098      8095      8091      8103      8099      8091      8092      8107
      8099      8091      8103      8104      8099      8091      8103      8105
      8099      8091      8103      8106      8100      8099      8091      8103
      8101      8099      8091      8103      8102      8099      8091      8103
      8103      8091      8092      8107      8107      8113      8110      8111
      8107      8113      8110      8112      8107      8113      8110      8114
      8108      8107      8113      8110      8109      8107      8113      8110
      8110      8114      8115      8116      8110      8114      8115      8117
      8110      8114      8115      8118      8111      8110      8114      8115
      8112      8110      8114      8115      8113      8110      8114      8115
      8114      8115      8118      8119      8114      8115      8118      8120
      8114      8115      8118      8126      8115      8118      8120      8121
      8115      8118      8126      8127      8115      8118      8126      8128
      8115      8118      8126      8129      8116      8115      8118      8119
      8116      8115      8118      8120      8116      8115      8118      8126
      8117      8115      8118      8119      8117      8115      8118      8120
      8117      8115      8118      8126      8118      8120      8121      8122
      8118      8120      8121      8123      8118      8126      8129      8130
      8119      8118      8120      8121      8119      8118      8126      8127
      8119      8118      8126      8128      8119      8118      8126      8129
      8120      8118      8126      8127      8120      8118      8126      8128
      8120      8118      8126      8129      8120      8121      8123      8124
      8120      8121      8123      8125      8120      8121      8123      8135
      8121      8120      8118      8126      8121      8123      8135      8136
      8121      8123      8135      8137      8121      8123      8135      8138
      8122      8121      8123      8124      8122      8121      8123      8125
      8122      8121      8123      8135      8123      8135      8138      8139
      8123      8135      8138      8140      8123      8135      8138      8141
      8124      8123      8135      8136      8124      8123      8135      8137
      8124      8123      8135      8138      8125      8123      8135      8136
      8125      8123      8135      8137      8125      8123      8135      8138
      8126      8129      8130      8131      8126      8129      8130      8132
      8127      8126      8129      8130      8128      8126      8129      8130
      8129      8130      8132      8133      8129      8130      8132      8134
      8129      8130      8132      8182      8130      8132      8182      8183
      8130      8132      8182      8184      8130      8132      8182      8185
      8131      8130      8132      8133      8131      8130      8132      8134
      8131      8130      8132      8182      8132      8182      8185      8186
      8132      8182      8185      8187      8132      8182      8185      8188
      8133      8132      8182      8183      8133      8132      8182      8184
      8133      8132      8182      8185      8134      8132      8182      8183
      8134      8132      8182      8184      8134      8132      8182      8185
      8135      8138      8141      8142      8135      8138      8141      8143
      8135      8138      8141      8144      8136      8135      8138      8139
      8136      8135      8138      8140      8136      8135      8138      8141
      8137      8135      8138      8139      8137      8135      8138      8140
      8137      8135      8138      8141      8138      8141      8144      8145
      8138      8141      8144      8146      8138      8141      8144      8147
      8139      8138      8141      8142      8139      8138      8141      8143
      8139      8138      8141      8144      8140      8138      8141      8142
      8140      8138      8141      8143      8140      8138      8141      8144
      8141      8144      8147      8148      8141      8144      8147      8149
      8141      8144      8147      8150      8142      8141      8144      8145
      8142      8141      8144      8146      8142      8141      8144      8147
      8143      8141      8144      8145      8143      8141      8144      8146
      8143      8141      8144      8147      8144      8147      8150      8151
      8144      8147      8150      8152      8144      8147      8150      8153
      8145      8144      8147      8148      8145      8144      8147      8149
      8145      8144      8147      8150      8146      8144      8147      8148
      8146      8144      8147      8149      8146      8144      8147      8150
      8147      8150      8153      8154      8147      8150      8153      8155
      8148      8147      8150      8151      8148      8147      8150      8152
      8148      8147      8150      8153      8149      8147      8150      8151
      8149      8147      8150      8152      8149      8147      8150      8153
      8150      8153      8155      8156      8150      8153      8155      8157
      8151      8150      8153      8154      8151      8150      8153      8155
      8152      8150      8153      8154      8152      8150      8153      8155
      8153      8155      8157      8158      8153      8155      8157      8159
      8153      8155      8157      8160      8154      8153      8155      8156
      8154      8153      8155      8157      8155      8157      8160      8161
      8155      8157      8160      8162      8155      8157      8160      8163
      8156      8155      8157      8158      8156      8155      8157      8159
      8156      8155      8157      8160      8157      8160      8163      8164
      8157      8160      8163      8165      8157      8160      8163      8166
      8158      8157      8160      8161      8158      8157      8160      8162
      8158      8157      8160      8163      8159      8157      8160      8161
      8159      8157      8160      8162      8159      8157      8160      8163
      8160      8163      8166      8167      8160      8163      8166      8168
      8160      8163      8166      8169      8161      8160      8163      8164
      8161      8160      8163      8165      8161      8160      8163      8166
      8162      8160      8163      8164      8162      8160      8163      8165
      8162      8160      8163      8166      8163      8166      8169      8170
      8163      8166      8169      8171      8163      8166      8169      8172
      8164      8163      8166      8167      8164      8163      8166      8168
      8164      8163      8166      8169      8165      8163      8166      8167
      8165      8163      8166      8168      8165      8163      8166      8169
      8166      8169      8172      8173      8166      8169      8172      8174
      8166      8169      8172      8175      8167      8166      8169      8170
      8167      8166      8169      8171      8167      8166      8169      8172
      8168      8166      8169      8170      8168      8166      8169      8171
      8168      8166      8169      8172      8169      8172      8175      8176
      8169      8172      8175      8177      8169      8172      8175      8178
      8170      8169      8172      8173      8170      8169      8172      8174
      8170      8169      8172      8175      8171      8169      8172      8173
      8171      8169      8172      8174      8171      8169      8172      8175
      8172      8175      8178      8179      8172      8175      8178      8180
      8172      8175      8178      8181      8173      8172      8175      8176
      8173      8172      8175      8177      8173      8172      8175      8178
      8174      8172      8175      8176      8174      8172      8175      8177
      8174      8172      8175      8178      8176      8175      8178      8179
      8176      8175      8178      8180      8176      8175      8178      8181
      8177      8175      8178      8179      8177      8175      8178      8180
      8177      8175      8178      8181      8182      8185      8188      8189
      8182      8185      8188      8190      8182      8185      8188      8191
      8183      8182      8185      8186      8183      8182      8185      8187
      8183      8182      8185      8188      8184      8182      8185      8186
      8184      8182      8185      8187      8184      8182      8185      8188
      8185      8188      8191      8192      8185      8188      8191      8193
      8185      8188      8191      8194      8186      8185      8188      8189
      8186      8185      8188      8190      8186      8185      8188      8191
      8187      8185      8188      8189      8187      8185      8188      8190
      8187      8185      8188      8191      8188      8191      8194      8195
      8188      8191      8194      8196      8188      8191      8194      8197
      8189      8188      8191      8192      8189      8188      8191      8193
      8189      8188      8191      8194      8190      8188      8191      8192
      8190      8188      8191      8193      8190      8188      8191      8194
      8191      8194      8197      8198      8191      8194      8197      8199
      8191      8194      8197      8200      8192      8191      8194      8195
      8192      8191      8194      8196      8192      8191      8194      8197
      8193      8191      8194      8195      8193      8191      8194      8196
      8193      8191      8194      8197      8194      8197      8200      8201
      8194      8197      8200      8202      8195      8194      8197      8198
      8195      8194      8197      8199      8195      8194      8197      8200
      8196      8194      8197      8198      8196      8194      8197      8199
      8196      8194      8197      8200      8197      8200      8202      8203
      8197      8200      8202      8204      8198      8197      8200      8201
      8198      8197      8200      8202      8199      8197      8200      8201
      8199      8197      8200      8202      8200      8202      8204      8205
      8200      8202      8204      8206      8200      8202      8204      8207
      8201      8200      8202      8203      8201      8200      8202      8204
      8202      8204      8207      8208      8202      8204      8207      8209
      8202      8204      8207      8210      8203      8202      8204      8205
      8203      8202      8204      8206      8203      8202      8204      8207
      8204      8207      8210      8211      8204      8207      8210      8212
      8204      8207      8210      8213      8205      8204      8207      8208
      8205      8204      8207      8209      8205      8204      8207      8210
      8206      8204      8207      8208      8206      8204      8207      8209
      8206      8204      8207      8210      8207      8210      8213      8214
      8207      8210      8213      8215      8207      8210      8213      8216
      8208      8207      8210      8211      8208      8207      8210      8212
      8208      8207      8210      8213      8209      8207      8210      8211
      8209      8207      8210      8212      8209      8207      8210      8213
      8210      8213      8216      8217      8210      8213      8216      8218
      8210      8213      8216      8219      8211      8210      8213      8214
      8211      8210      8213      8215      8211      8210      8213      8216
      8212      8210      8213      8214      8212      8210      8213      8215
      8212      8210      8213      8216      8213      8216      8219      8220
      8213      8216      8219      8221      8213      8216      8219      8222
      8214      8213      8216      8217      8214      8213      8216      8218
      8214      8213      8216      8219      8215      8213      8216      8217
      8215      8213      8216      8218      8215      8213      8216      8219
      8216      8219      8222      8223      8216      8219      8222      8224
      8216      8219      8222      8225      8217      8216      8219      8220
      8217      8216      8219      8221      8217      8216      8219      8222
      8218      8216      8219      8220      8218      8216      8219      8221
      8218      8216      8219      8222      8219      8222      8225      8226
      8219      8222      8225      8227      8219      8222      8225      8228
      8220      8219      8222      8223      8220      8219      8222      8224
      8220      8219      8222      8225      8221      8219      8222      8223
      8221      8219      8222      8224      8221      8219      8222      8225
      8223      8222      8225      8226      8223      8222      8225      8227
      8223      8222      8225      8228      8224      8222      8225      8226
      8224      8222      8225      8227      8224      8222      8225      8228
      8229      8230      8245      8246      8229      8230      8245      8247
      8229      8230      8245      8251      8230      8229      8233      8234
      8230      8229      8233      8235      8230      8229      8233      8236
      8230      8229      8237      8238      8230      8229      8237      8239
      8230      8229      8237      8240      8230      8229      8241      8242
      8230      8229      8241      8243      8230      8229      8241      8244
      8230      8245      8251      8248      8231      8230      8229      8233
      8231      8230      8229      8237      8231      8230      8229      8241
      8231      8230      8245      8246      8231      8230      8245      8247
      8231      8230      8245      8251      8232      8230      8229      8233
      8232      8230      8229      8237      8232      8230      8229      8241
      8232      8230      8245      8246      8232      8230      8245      8247
      8232      8230      8245      8251      8233      8229      8230      8245
      8233      8229      8237      8238      8233      8229      8237      8239
      8233      8229      8237      8240      8233      8229      8241      8242
      8233      8229      8241      8243      8233      8229      8241      8244
      8234      8233      8229      8237      8234      8233      8229      8241
      8235      8233      8229      8237      8235      8233      8229      8241
      8236      8233      8229      8237      8236      8233      8229      8241
      8237      8229      8230      8245      8237      8229      8241      8242
      8237      8229      8241      8243      8237      8229      8241      8244
      8238      8237      8229      8241      8239      8237      8229      8241
      8240      8237      8229      8241      8241      8229      8230      8245
      8245      8251      8248      8249      8245      8251      8248      8250
      8245      8251      8248      8252      8246      8245      8251      8248
      8247      8245      8251      8248      8248      8252      8253      8254
      8248      8252      8253      8255      8248      8252      8253      8256
      8249      8248      8252      8253      8250      8248      8252      8253
      8251      8248      8252      8253      8252      8253      8256      8257
      8252      8253      8256      8258      8252      8253      8256      8264
      8253      8256      8258      8259      8253      8256      8264      8265
      8253      8256      8264      8266      8253      8256      8264      8267
      8254      8253      8256      8257      8254      8253      8256      8258
      8254      8253      8256      8264      8255      8253      8256      8257
      8255      8253      8256      8258      8255      8253      8256      8264
      8256      8258      8259      8260      8256      8258      8259      8261
      8256      8264      8267      8268      8257      8256      8258      8259
      8257      8256      8264      8265      8257      8256      8264      8266
      8257      8256      8264      8267      8258      8256      8264      8265
      8258      8256      8264      8266      8258      8256      8264      8267
      8258      8259      8261      8262      8258      8259      8261      8263
      8258      8259      8261      8273      8259      8258      8256      8264
      8259      8261      8273      8274      8259      8261      8273      8275
      8259      8261      8273      8276      8260      8259      8261      8262
      8260      8259      8261      8263      8260      8259      8261      8273
      8261      8273      8276      8277      8261      8273      8276      8278
      8261      8273      8276      8279      8262      8261      8273      8274
      8262      8261      8273      8275      8262      8261      8273      8276
      8263      8261      8273      8274      8263      8261      8273      8275
      8263      8261      8273      8276      8264      8267      8268      8269
      8264      8267      8268      8270      8265      8264      8267      8268
      8266      8264      8267      8268      8267      8268      8270      8271
      8267      8268      8270      8272      8267      8268      8270      8320
      8268      8270      8320      8321      8268      8270      8320      8322
      8268      8270      8320      8323      8269      8268      8270      8271
      8269      8268      8270      8272      8269      8268      8270      8320
      8270      8320      8323      8324      8270      8320      8323      8325
      8270      8320      8323      8326      8271      8270      8320      8321
      8271      8270      8320      8322      8271      8270      8320      8323
      8272      8270      8320      8321      8272      8270      8320      8322
      8272      8270      8320      8323      8273      8276      8279      8280
      8273      8276      8279      8281      8273      8276      8279      8282
      8274      8273      8276      8277      8274      8273      8276      8278
      8274      8273      8276      8279      8275      8273      8276      8277
      8275      8273      8276      8278      8275      8273      8276      8279
      8276      8279      8282      8283      8276      8279      8282      8284
      8276      8279      8282      8285      8277      8276      8279      8280
      8277      8276      8279      8281      8277      8276      8279      8282
      8278      8276      8279      8280      8278      8276      8279      8281
      8278      8276      8279      8282      8279      8282      8285      8286
      8279      8282      8285      8287      8279      8282      8285      8288
      8280      8279      8282      8283      8280      8279      8282      8284
      8280      8279      8282      8285      8281      8279      8282      8283
      8281      8279      8282      8284      8281      8279      8282      8285
      8282      8285      8288      8289      8282      8285      8288      8290
      8282      8285      8288      8291      8283      8282      8285      8286
      8283      8282      8285      8287      8283      8282      8285      8288
      8284      8282      8285      8286      8284      8282      8285      8287
      8284      8282      8285      8288      8285      8288      8291      8292
      8285      8288      8291      8293      8286      8285      8288      8289
      8286      8285      8288      8290      8286      8285      8288      8291
      8287      8285      8288      8289      8287      8285      8288      8290
      8287      8285      8288      8291      8288      8291      8293      8294
      8288      8291      8293      8295      8289      8288      8291      8292
      8289      8288      8291      8293      8290      8288      8291      8292
      8290      8288      8291      8293      8291      8293      8295      8296
      8291      8293      8295      8297      8291      8293      8295      8298
      8292      8291      8293      8294      8292      8291      8293      8295
      8293      8295      8298      8299      8293      8295      8298      8300
      8293      8295      8298      8301      8294      8293      8295      8296
      8294      8293      8295      8297      8294      8293      8295      8298
      8295      8298      8301      8302      8295      8298      8301      8303
      8295      8298      8301      8304      8296      8295      8298      8299
      8296      8295      8298      8300      8296      8295      8298      8301
      8297      8295      8298      8299      8297      8295      8298      8300
      8297      8295      8298      8301      8298      8301      8304      8305
      8298      8301      8304      8306      8298      8301      8304      8307
      8299      8298      8301      8302      8299      8298      8301      8303
      8299      8298      8301      8304      8300      8298      8301      8302
      8300      8298      8301      8303      8300      8298      8301      8304
      8301      8304      8307      8308      8301      8304      8307      8309
      8301      8304      8307      8310      8302      8301      8304      8305
      8302      8301      8304      8306      8302      8301      8304      8307
      8303      8301      8304      8305      8303      8301      8304      8306
      8303      8301      8304      8307      8304      8307      8310      8311
      8304      8307      8310      8312      8304      8307      8310      8313
      8305      8304      8307      8308      8305      8304      8307      8309
      8305      8304      8307      8310      8306      8304      8307      8308
      8306      8304      8307      8309      8306      8304      8307      8310
      8307      8310      8313      8314      8307      8310      8313      8315
      8307      8310      8313      8316      8308      8307      8310      8311
      8308      8307      8310      8312      8308      8307      8310      8313
      8309      8307      8310      8311      8309      8307      8310      8312
      8309      8307      8310      8313      8310      8313      8316      8317
      8310      8313      8316      8318      8310      8313      8316      8319
      8311      8310      8313      8314      8311      8310      8313      8315
      8311      8310      8313      8316      8312      8310      8313      8314
      8312      8310      8313      8315      8312      8310      8313      8316
      8314      8313      8316      8317      8314      8313      8316      8318
      8314      8313      8316      8319      8315      8313      8316      8317
      8315      8313      8316      8318      8315      8313      8316      8319
      8320      8323      8326      8327      8320      8323      8326      8328
      8320      8323      8326      8329      8321      8320      8323      8324
      8321      8320      8323      8325      8321      8320      8323      8326
      8322      8320      8323      8324      8322      8320      8323      8325
      8322      8320      8323      8326      8323      8326      8329      8330
      8323      8326      8329      8331      8323      8326      8329      8332
      8324      8323      8326      8327      8324      8323      8326      8328
      8324      8323      8326      8329      8325      8323      8326      8327
      8325      8323      8326      8328      8325      8323      8326      8329
      8326      8329      8332      8333      8326      8329      8332      8334
      8326      8329      8332      8335      8327      8326      8329      8330
      8327      8326      8329      8331      8327      8326      8329      8332
      8328      8326      8329      8330      8328      8326      8329      8331
      8328      8326      8329      8332      8329      8332      8335      8336
      8329      8332      8335      8337      8329      8332      8335      8338
      8330      8329      8332      8333      8330      8329      8332      8334
      8330      8329      8332      8335      8331      8329      8332      8333
      8331      8329      8332      8334      8331      8329      8332      8335
      8332      8335      8338      8339      8332      8335      8338      8340
      8333      8332      8335      8336      8333      8332      8335      8337
      8333      8332      8335      8338      8334      8332      8335      8336
      8334      8332      8335      8337      8334      8332      8335      8338
      8335      8338      8340      8341      8335      8338      8340      8342
      8336      8335      8338      8339      8336      8335      8338      8340
      8337      8335      8338      8339      8337      8335      8338      8340
      8338      8340      8342      8343      8338      8340      8342      8344
      8338      8340      8342      8345      8339      8338      8340      8341
      8339      8338      8340      8342      8340      8342      8345      8346
      8340      8342      8345      8347      8340      8342      8345      8348
      8341      8340      8342      8343      8341      8340      8342      8344
      8341      8340      8342      8345      8342      8345      8348      8349
      8342      8345      8348      8350      8342      8345      8348      8351
      8343      8342      8345      8346      8343      8342      8345      8347
      8343      8342      8345      8348      8344      8342      8345      8346
      8344      8342      8345      8347      8344      8342      8345      8348
      8345      8348      8351      8352      8345      8348      8351      8353
      8345      8348      8351      8354      8346      8345      8348      8349
      8346      8345      8348      8350      8346      8345      8348      8351
      8347      8345      8348      8349      8347      8345      8348      8350
      8347      8345      8348      8351      8348      8351      8354      8355
      8348      8351      8354      8356      8348      8351      8354      8357
      8349      8348      8351      8352      8349      8348      8351      8353
      8349      8348      8351      8354      8350      8348      8351      8352
      8350      8348      8351      8353      8350      8348      8351      8354
      8351      8354      8357      8358      8351      8354      8357      8359
      8351      8354      8357      8360      8352      8351      8354      8355
      8352      8351      8354      8356      8352      8351      8354      8357
      8353      8351      8354      8355      8353      8351      8354      8356
      8353      8351      8354      8357      8354      8357      8360      8361
      8354      8357      8360      8362      8354      8357      8360      8363
      8355      8354      8357      8358      8355      8354      8357      8359
      8355      8354      8357      8360      8356      8354      8357      8358
      8356      8354      8357      8359      8356      8354      8357      8360
      8357      8360      8363      8364      8357      8360      8363      8365
      8357      8360      8363      8366      8358      8357      8360      8361
      8358      8357      8360      8362      8358      8357      8360      8363
      8359      8357      8360      8361      8359      8357      8360      8362
      8359      8357      8360      8363      8361      8360      8363      8364
      8361      8360      8363      8365      8361      8360      8363      8366
      8362      8360      8363      8364      8362      8360      8363      8365
      8362      8360      8363      8366      8367      8368      8383      8384
      8367      8368      8383      8385      8367      8368      8383      8389
      8368      8367      8371      8372      8368      8367      8371      8373
      8368      8367      8371      8374      8368      8367      8375      8376
      8368      8367      8375      8377      8368      8367      8375      8378
      8368      8367      8379      8380      8368      8367      8379      8381
      8368      8367      8379      8382      8368      8383      8389      8386
      8369      8368      8367      8371      8369      8368      8367      8375
      8369      8368      8367      8379      8369      8368      8383      8384
      8369      8368      8383      8385      8369      8368      8383      8389
      8370      8368      8367      8371      8370      8368      8367      8375
      8370      8368      8367      8379      8370      8368      8383      8384
      8370      8368      8383      8385      8370      8368      8383      8389
      8371      8367      8368      8383      8371      8367      8375      8376
      8371      8367      8375      8377      8371      8367      8375      8378
      8371      8367      8379      8380      8371      8367      8379      8381
      8371      8367      8379      8382      8372      8371      8367      8375
      8372      8371      8367      8379      8373      8371      8367      8375
      8373      8371      8367      8379      8374      8371      8367      8375
      8374      8371      8367      8379      8375      8367      8368      8383
      8375      8367      8379      8380      8375      8367      8379      8381
      8375      8367      8379      8382      8376      8375      8367      8379
      8377      8375      8367      8379      8378      8375      8367      8379
      8379      8367      8368      8383      8383      8389      8386      8387
      8383      8389      8386      8388      8383      8389      8386      8390
      8384      8383      8389      8386      8385      8383      8389      8386
      8386      8390      8391      8392      8386      8390      8391      8393
      8386      8390      8391      8394      8387      8386      8390      8391
      8388      8386      8390      8391      8389      8386      8390      8391
      8390      8391      8394      8395      8390      8391      8394      8396
      8390      8391      8394      8402      8391      8394      8396      8397
      8391      8394      8402      8403      8391      8394      8402      8404
      8391      8394      8402      8405      8392      8391      8394      8395
      8392      8391      8394      8396      8392      8391      8394      8402
      8393      8391      8394      8395      8393      8391      8394      8396
      8393      8391      8394      8402      8394      8396      8397      8398
      8394      8396      8397      8399      8394      8402      8405      8406
      8395      8394      8396      8397      8395      8394      8402      8403
      8395      8394      8402      8404      8395      8394      8402      8405
      8396      8394      8402      8403      8396      8394      8402      8404
      8396      8394      8402      8405      8396      8397      8399      8400
      8396      8397      8399      8401      8396      8397      8399      8411
      8397      8396      8394      8402      8397      8399      8411      8412
      8397      8399      8411      8413      8397      8399      8411      8414
      8398      8397      8399      8400      8398      8397      8399      8401
      8398      8397      8399      8411      8399      8411      8414      8415
      8399      8411      8414      8416      8399      8411      8414      8417
      8400      8399      8411      8412      8400      8399      8411      8413
      8400      8399      8411      8414      8401      8399      8411      8412
      8401      8399      8411      8413      8401      8399      8411      8414
      8402      8405      8406      8407      8402      8405      8406      8408
      8403      8402      8405      8406      8404      8402      8405      8406
      8405      8406      8408      8409      8405      8406      8408      8410
      8405      8406      8408      8458      8406      8408      8458      8459
      8406      8408      8458      8460      8406      8408      8458      8461
      8407      8406      8408      8409      8407      8406      8408      8410
      8407      8406      8408      8458      8408      8458      8461      8462
      8408      8458      8461      8463      8408      8458      8461      8464
      8409      8408      8458      8459      8409      8408      8458      8460
      8409      8408      8458      8461      8410      8408      8458      8459
      8410      8408      8458      8460      8410      8408      8458      8461
      8411      8414      8417      8418      8411      8414      8417      8419
      8411      8414      8417      8420      8412      8411      8414      8415
      8412      8411      8414      8416      8412      8411      8414      8417
      8413      8411      8414      8415      8413      8411      8414      8416
      8413      8411      8414      8417      8414      8417      8420      8421
      8414      8417      8420      8422      8414      8417      8420      8423
      8415      8414      8417      8418      8415      8414      8417      8419
      8415      8414      8417      8420      8416      8414      8417      8418
      8416      8414      8417      8419      8416      8414      8417      8420
      8417      8420      8423      8424      8417      8420      8423      8425
      8417      8420      8423      8426      8418      8417      8420      8421
      8418      8417      8420      8422      8418      8417      8420      8423
      8419      8417      8420      8421      8419      8417      8420      8422
      8419      8417      8420      8423      8420      8423      8426      8427
      8420      8423      8426      8428      8420      8423      8426      8429
      8421      8420      8423      8424      8421      8420      8423      8425
      8421      8420      8423      8426      8422      8420      8423      8424
      8422      8420      8423      8425      8422      8420      8423      8426
      8423      8426      8429      8430      8423      8426      8429      8431
      8424      8423      8426      8427      8424      8423      8426      8428
      8424      8423      8426      8429      8425      8423      8426      8427
      8425      8423      8426      8428      8425      8423      8426      8429
      8426      8429      8431      8432      8426      8429      8431      8433
      8427      8426      8429      8430      8427      8426      8429      8431
      8428      8426      8429      8430      8428      8426      8429      8431
      8429      8431      8433      8434      8429      8431      8433      8435
      8429      8431      8433      8436      8430      8429      8431      8432
      8430      8429      8431      8433      8431      8433      8436      8437
      8431      8433      8436      8438      8431      8433      8436      8439
      8432      8431      8433      8434      8432      8431      8433      8435
      8432      8431      8433      8436      8433      8436      8439      8440
      8433      8436      8439      8441      8433      8436      8439      8442
      8434      8433      8436      8437      8434      8433      8436      8438
      8434      8433      8436      8439      8435      8433      8436      8437
      8435      8433      8436      8438      8435      8433      8436      8439
      8436      8439      8442      8443      8436      8439      8442      8444
      8436      8439      8442      8445      8437      8436      8439      8440
      8437      8436      8439      8441      8437      8436      8439      8442
      8438      8436      8439      8440      8438      8436      8439      8441
      8438      8436      8439      8442      8439      8442      8445      8446
      8439      8442      8445      8447      8439      8442      8445      8448
      8440      8439      8442      8443      8440      8439      8442      8444
      8440      8439      8442      8445      8441      8439      8442      8443
      8441      8439      8442      8444      8441      8439      8442      8445
      8442      8445      8448      8449      8442      8445      8448      8450
      8442      8445      8448      8451      8443      8442      8445      8446
      8443      8442      8445      8447      8443      8442      8445      8448
      8444      8442      8445      8446      8444      8442      8445      8447
      8444      8442      8445      8448      8445      8448      8451      8452
      8445      8448      8451      8453      8445      8448      8451      8454
      8446      8445      8448      8449      8446      8445      8448      8450
      8446      8445      8448      8451      8447      8445      8448      8449
      8447      8445      8448      8450      8447      8445      8448      8451
      8448      8451      8454      8455      8448      8451      8454      8456
      8448      8451      8454      8457      8449      8448      8451      8452
      8449      8448      8451      8453      8449      8448      8451      8454
      8450      8448      8451      8452      8450      8448      8451      8453
      8450      8448      8451      8454      8452      8451      8454      8455
      8452      8451      8454      8456      8452      8451      8454      8457
      8453      8451      8454      8455      8453      8451      8454      8456
      8453      8451      8454      8457      8458      8461      8464      8465
      8458      8461      8464      8466      8458      8461      8464      8467
      8459      8458      8461      8462      8459      8458      8461      8463
      8459      8458      8461      8464      8460      8458      8461      8462
      8460      8458      8461      8463      8460      8458      8461      8464
      8461      8464      8467      8468      8461      8464      8467      8469
      8461      8464      8467      8470      8462      8461      8464      8465
      8462      8461      8464      8466      8462      8461      8464      8467
      8463      8461      8464      8465      8463      8461      8464      8466
      8463      8461      8464      8467      8464      8467      8470      8471
      8464      8467      8470      8472      8464      8467      8470      8473
      8465      8464      8467      8468      8465      8464      8467      8469
      8465      8464      8467      8470      8466      8464      8467      8468
      8466      8464      8467      8469      8466      8464      8467      8470
      8467      8470      8473      8474      8467      8470      8473      8475
      8467      8470      8473      8476      8468      8467      8470      8471
      8468      8467      8470      8472      8468      8467      8470      8473
      8469      8467      8470      8471      8469      8467      8470      8472
      8469      8467      8470      8473      8470      8473      8476      8477
      8470      8473      8476      8478      8471      8470      8473      8474
      8471      8470      8473      8475      8471      8470      8473      8476
      8472      8470      8473      8474      8472      8470      8473      8475
      8472      8470      8473      8476      8473      8476      8478      8479
      8473      8476      8478      8480      8474      8473      8476      8477
      8474      8473      8476      8478      8475      8473      8476      8477
      8475      8473      8476      8478      8476      8478      8480      8481
      8476      8478      8480      8482      8476      8478      8480      8483
      8477      8476      8478      8479      8477      8476      8478      8480
      8478      8480      8483      8484      8478      8480      8483      8485
      8478      8480      8483      8486      8479      8478      8480      8481
      8479      8478      8480      8482      8479      8478      8480      8483
      8480      8483      8486      8487      8480      8483      8486      8488
      8480      8483      8486      8489      8481      8480      8483      8484
      8481      8480      8483      8485      8481      8480      8483      8486
      8482      8480      8483      8484      8482      8480      8483      8485
      8482      8480      8483      8486      8483      8486      8489      8490
      8483      8486      8489      8491      8483      8486      8489      8492
      8484      8483      8486      8487      8484      8483      8486      8488
      8484      8483      8486      8489      8485      8483      8486      8487
      8485      8483      8486      8488      8485      8483      8486      8489
      8486      8489      8492      8493      8486      8489      8492      8494
      8486      8489      8492      8495      8487      8486      8489      8490
      8487      8486      8489      8491      8487      8486      8489      8492
      8488      8486      8489      8490      8488      8486      8489      8491
      8488      8486      8489      8492      8489      8492      8495      8496
      8489      8492      8495      8497      8489      8492      8495      8498
      8490      8489      8492      8493      8490      8489      8492      8494
      8490      8489      8492      8495      8491      8489      8492      8493
      8491      8489      8492      8494      8491      8489      8492      8495
      8492      8495      8498      8499      8492      8495      8498      8500
      8492      8495      8498      8501      8493      8492      8495      8496
      8493      8492      8495      8497      8493      8492      8495      8498
      8494      8492      8495      8496      8494      8492      8495      8497
      8494      8492      8495      8498      8495      8498      8501      8502
      8495      8498      8501      8503      8495      8498      8501      8504
      8496      8495      8498      8499      8496      8495      8498      8500
      8496      8495      8498      8501      8497      8495      8498      8499
      8497      8495      8498      8500      8497      8495      8498      8501
      8499      8498      8501      8502      8499      8498      8501      8503
      8499      8498      8501      8504      8500      8498      8501      8502
      8500      8498      8501      8503      8500      8498      8501      8504
      8505      8506      8521      8522      8505      8506      8521      8523
      8505      8506      8521      8527      8506      8505      8509      8510
      8506      8505      8509      8511      8506      8505      8509      8512
      8506      8505      8513      8514      8506      8505      8513      8515
      8506      8505      8513      8516      8506      8505      8517      8518
      8506      8505      8517      8519      8506      8505      8517      8520
      8506      8521      8527      8524      8507      8506      8505      8509
      8507      8506      8505      8513      8507      8506      8505      8517
      8507      8506      8521      8522      8507      8506      8521      8523
      8507      8506      8521      8527      8508      8506      8505      8509
      8508      8506      8505      8513      8508      8506      8505      8517
      8508      8506      8521      8522      8508      8506      8521      8523
      8508      8506      8521      8527      8509      8505      8506      8521
      8509      8505      8513      8514      8509      8505      8513      8515
      8509      8505      8513      8516      8509      8505      8517      8518
      8509      8505      8517      8519      8509      8505      8517      8520
      8510      8509      8505      8513      8510      8509      8505      8517
      8511      8509      8505      8513      8511      8509      8505      8517
      8512      8509      8505      8513      8512      8509      8505      8517
      8513      8505      8506      8521      8513      8505      8517      8518
      8513      8505      8517      8519      8513      8505      8517      8520
      8514      8513      8505      8517      8515      8513      8505      8517
      8516      8513      8505      8517      8517      8505      8506      8521
      8521      8527      8524      8525      8521      8527      8524      8526
      8521      8527      8524      8528      8522      8521      8527      8524
      8523      8521      8527      8524      8524      8528      8529      8530
      8524      8528      8529      8531      8524      8528      8529      8532
      8525      8524      8528      8529      8526      8524      8528      8529
      8527      8524      8528      8529      8528      8529      8532      8533
      8528      8529      8532      8534      8528      8529      8532      8540
      8529      8532      8534      8535      8529      8532      8540      8541
      8529      8532      8540      8542      8529      8532      8540      8543
      8530      8529      8532      8533      8530      8529      8532      8534
      8530      8529      8532      8540      8531      8529      8532      8533
      8531      8529      8532      8534      8531      8529      8532      8540
      8532      8534      8535      8536      8532      8534      8535      8537
      8532      8540      8543      8544      8533      8532      8534      8535
      8533      8532      8540      8541      8533      8532      8540      8542
      8533      8532      8540      8543      8534      8532      8540      8541
      8534      8532      8540      8542      8534      8532      8540      8543
      8534      8535      8537      8538      8534      8535      8537      8539
      8534      8535      8537      8549      8535      8534      8532      8540
      8535      8537      8549      8550      8535      8537      8549      8551
      8535      8537      8549      8552      8536      8535      8537      8538
      8536      8535      8537      8539      8536      8535      8537      8549
      8537      8549      8552      8553      8537      8549      8552      8554
      8537      8549      8552      8555      8538      8537      8549      8550
      8538      8537      8549      8551      8538      8537      8549      8552
      8539      8537      8549      8550      8539      8537      8549      8551
      8539      8537      8549      8552      8540      8543      8544      8545
      8540      8543      8544      8546      8541      8540      8543      8544
      8542      8540      8543      8544      8543      8544      8546      8547
      8543      8544      8546      8548      8543      8544      8546      8596
      8544      8546      8596      8597      8544      8546      8596      8598
      8544      8546      8596      8599      8545      8544      8546      8547
      8545      8544      8546      8548      8545      8544      8546      8596
      8546      8596      8599      8600      8546      8596      8599      8601
      8546      8596      8599      8602      8547      8546      8596      8597
      8547      8546      8596      8598      8547      8546      8596      8599
      8548      8546      8596      8597      8548      8546      8596      8598
      8548      8546      8596      8599      8549      8552      8555      8556
      8549      8552      8555      8557      8549      8552      8555      8558
      8550      8549      8552      8553      8550      8549      8552      8554
      8550      8549      8552      8555      8551      8549      8552      8553
      8551      8549      8552      8554      8551      8549      8552      8555
      8552      8555      8558      8559      8552      8555      8558      8560
      8552      8555      8558      8561      8553      8552      8555      8556
      8553      8552      8555      8557      8553      8552      8555      8558
      8554      8552      8555      8556      8554      8552      8555      8557
      8554      8552      8555      8558      8555      8558      8561      8562
      8555      8558      8561      8563      8555      8558      8561      8564
      8556      8555      8558      8559      8556      8555      8558      8560
      8556      8555      8558      8561      8557      8555      8558      8559
      8557      8555      8558      8560      8557      8555      8558      8561
      8558      8561      8564      8565      8558      8561      8564      8566
      8558      8561      8564      8567      8559      8558      8561      8562
      8559      8558      8561      8563      8559      8558      8561      8564
      8560      8558      8561      8562      8560      8558      8561      8563
      8560      8558      8561      8564      8561      8564      8567      8568
      8561      8564      8567      8569      8562      8561      8564      8565
      8562      8561      8564      8566      8562      8561      8564      8567
      8563      8561      8564      8565      8563      8561      8564      8566
      8563      8561      8564      8567      8564      8567      8569      8570
      8564      8567      8569      8571      8565      8564      8567      8568
      8565      8564      8567      8569      8566      8564      8567      8568
      8566      8564      8567      8569      8567      8569      8571      8572
      8567      8569      8571      8573      8567      8569      8571      8574
      8568      8567      8569      8570      8568      8567      8569      8571
      8569      8571      8574      8575      8569      8571      8574      8576
      8569      8571      8574      8577      8570      8569      8571      8572
      8570      8569      8571      8573      8570      8569      8571      8574
      8571      8574      8577      8578      8571      8574      8577      8579
      8571      8574      8577      8580      8572      8571      8574      8575
      8572      8571      8574      8576      8572      8571      8574      8577
      8573      8571      8574      8575      8573      8571      8574      8576
      8573      8571      8574      8577      8574      8577      8580      8581
      8574      8577      8580      8582      8574      8577      8580      8583
      8575      8574      8577      8578      8575      8574      8577      8579
      8575      8574      8577      8580      8576      8574      8577      8578
      8576      8574      8577      8579      8576      8574      8577      8580
      8577      8580      8583      8584      8577      8580      8583      8585
      8577      8580      8583      8586      8578      8577      8580      8581
      8578      8577      8580      8582      8578      8577      8580      8583
      8579      8577      8580      8581      8579      8577      8580      8582
      8579      8577      8580      8583      8580      8583      8586      8587
      8580      8583      8586      8588      8580      8583      8586      8589
      8581      8580      8583      8584      8581      8580      8583      8585
      8581      8580      8583      8586      8582      8580      8583      8584
      8582      8580      8583      8585      8582      8580      8583      8586
      8583      8586      8589      8590      8583      8586      8589      8591
      8583      8586      8589      8592      8584      8583      8586      8587
      8584      8583      8586      8588      8584      8583      8586      8589
      8585      8583      8586      8587      8585      8583      8586      8588
      8585      8583      8586      8589      8586      8589      8592      8593
      8586      8589      8592      8594      8586      8589      8592      8595
      8587      8586      8589      8590      8587      8586      8589      8591
      8587      8586      8589      8592      8588      8586      8589      8590
      8588      8586      8589      8591      8588      8586      8589      8592
      8590      8589      8592      8593      8590      8589      8592      8594
      8590      8589      8592      8595      8591      8589      8592      8593
      8591      8589      8592      8594      8591      8589      8592      8595
      8596      8599      8602      8603      8596      8599      8602      8604
      8596      8599      8602      8605      8597      8596      8599      8600
      8597      8596      8599      8601      8597      8596      8599      8602
      8598      8596      8599      8600      8598      8596      8599      8601
      8598      8596      8599      8602      8599      8602      8605      8606
      8599      8602      8605      8607      8599      8602      8605      8608
      8600      8599      8602      8603      8600      8599      8602      8604
      8600      8599      8602      8605      8601      8599      8602      8603
      8601      8599      8602      8604      8601      8599      8602      8605
      8602      8605      8608      8609      8602      8605      8608      8610
      8602      8605      8608      8611      8603      8602      8605      8606
      8603      8602      8605      8607      8603      8602      8605      8608
      8604      8602      8605      8606      8604      8602      8605      8607
      8604      8602      8605      8608      8605      8608      8611      8612
      8605      8608      8611      8613      8605      8608      8611      8614
      8606      8605      8608      8609      8606      8605      8608      8610
      8606      8605      8608      8611      8607      8605      8608      8609
      8607      8605      8608      8610      8607      8605      8608      8611
      8608      8611      8614      8615      8608      8611      8614      8616
      8609      8608      8611      8612      8609      8608      8611      8613
      8609      8608      8611      8614      8610      8608      8611      8612
      8610      8608      8611      8613      8610      8608      8611      8614
      8611      8614      8616      8617      8611      8614      8616      8618
      8612      8611      8614      8615      8612      8611      8614      8616
      8613      8611      8614      8615      8613      8611      8614      8616
      8614      8616      8618      8619      8614      8616      8618      8620
      8614      8616      8618      8621      8615      8614      8616      8617
      8615      8614      8616      8618      8616      8618      8621      8622
      8616      8618      8621      8623      8616      8618      8621      8624
      8617      8616      8618      8619      8617      8616      8618      8620
      8617      8616      8618      8621      8618      8621      8624      8625
      8618      8621      8624      8626      8618      8621      8624      8627
      8619      8618      8621      8622      8619      8618      8621      8623
      8619      8618      8621      8624      8620      8618      8621      8622
      8620      8618      8621      8623      8620      8618      8621      8624
      8621      8624      8627      8628      8621      8624      8627      8629
      8621      8624      8627      8630      8622      8621      8624      8625
      8622      8621      8624      8626      8622      8621      8624      8627
      8623      8621      8624      8625      8623      8621      8624      8626
      8623      8621      8624      8627      8624      8627      8630      8631
      8624      8627      8630      8632      8624      8627      8630      8633
      8625      8624      8627      8628      8625      8624      8627      8629
      8625      8624      8627      8630      8626      8624      8627      8628
      8626      8624      8627      8629      8626      8624      8627      8630
      8627      8630      8633      8634      8627      8630      8633      8635
      8627      8630      8633      8636      8628      8627      8630      8631
      8628      8627      8630      8632      8628      8627      8630      8633
      8629      8627      8630      8631      8629      8627      8630      8632
      8629      8627      8630      8633      8630      8633      8636      8637
      8630      8633      8636      8638      8630      8633      8636      8639
      8631      8630      8633      8634      8631      8630      8633      8635
      8631      8630      8633      8636      8632      8630      8633      8634
      8632      8630      8633      8635      8632      8630      8633      8636
      8633      8636      8639      8640      8633      8636      8639      8641
      8633      8636      8639      8642      8634      8633      8636      8637
      8634      8633      8636      8638      8634      8633      8636      8639
      8635      8633      8636      8637      8635      8633      8636      8638
      8635      8633      8636      8639      8637      8636      8639      8640
      8637      8636      8639      8641      8637      8636      8639      8642
      8638      8636      8639      8640      8638      8636      8639      8641
      8638      8636      8639      8642      8643      8644      8659      8660
      8643      8644      8659      8661      8643      8644      8659      8665
      8644      8643      8647      8648      8644      8643      8647      8649
      8644      8643      8647      8650      8644      8643      8651      8652
      8644      8643      8651      8653      8644      8643      8651      8654
      8644      8643      8655      8656      8644      8643      8655      8657
      8644      8643      8655      8658      8644      8659      8665      8662
      8645      8644      8643      8647      8645      8644      8643      8651
      8645      8644      8643      8655      8645      8644      8659      8660
      8645      8644      8659      8661      8645      8644      8659      8665
      8646      8644      8643      8647      8646      8644      8643      8651
      8646      8644      8643      8655      8646      8644      8659      8660
      8646      8644      8659      8661      8646      8644      8659      8665
      8647      8643      8644      8659      8647      8643      8651      8652
      8647      8643      8651      8653      8647      8643      8651      8654
      8647      8643      8655      8656      8647      8643      8655      8657
      8647      8643      8655      8658      8648      8647      8643      8651
      8648      8647      8643      8655      8649      8647      8643      8651
      8649      8647      8643      8655      8650      8647      8643      8651
      8650      8647      8643      8655      8651      8643      8644      8659
      8651      8643      8655      8656      8651      8643      8655      8657
      8651      8643      8655      8658      8652      8651      8643      8655
      8653      8651      8643      8655      8654      8651      8643      8655
      8655      8643      8644      8659      8659      8665      8662      8663
      8659      8665      8662      8664      8659      8665      8662      8666
      8660      8659      8665      8662      8661      8659      8665      8662
      8662      8666      8667      8668      8662      8666      8667      8669
      8662      8666      8667      8670      8663      8662      8666      8667
      8664      8662      8666      8667      8665      8662      8666      8667
      8666      8667      8670      8671      8666      8667      8670      8672
      8666      8667      8670      8678      8667      8670      8672      8673
      8667      8670      8678      8679      8667      8670      8678      8680
      8667      8670      8678      8681      8668      8667      8670      8671
      8668      8667      8670      8672      8668      8667      8670      8678
      8669      8667      8670      8671      8669      8667      8670      8672
      8669      8667      8670      8678      8670      8672      8673      8674
      8670      8672      8673      8675      8670      8678      8681      8682
      8671      8670      8672      8673      8671      8670      8678      8679
      8671      8670      8678      8680      8671      8670      8678      8681
      8672      8670      8678      8679      8672      8670      8678      8680
      8672      8670      8678      8681      8672      8673      8675      8676
      8672      8673      8675      8677      8672      8673      8675      8687
      8673      8672      8670      8678      8673      8675      8687      8688
      8673      8675      8687      8689      8673      8675      8687      8690
      8674      8673      8675      8676      8674      8673      8675      8677
      8674      8673      8675      8687      8675      8687      8690      8691
      8675      8687      8690      8692      8675      8687      8690      8693
      8676      8675      8687      8688      8676      8675      8687      8689
      8676      8675      8687      8690      8677      8675      8687      8688
      8677      8675      8687      8689      8677      8675      8687      8690
      8678      8681      8682      8683      8678      8681      8682      8684
      8679      8678      8681      8682      8680      8678      8681      8682
      8681      8682      8684      8685      8681      8682      8684      8686
      8681      8682      8684      8734      8682      8684      8734      8735
      8682      8684      8734      8736      8682      8684      8734      8737
      8683      8682      8684      8685      8683      8682      8684      8686
      8683      8682      8684      8734      8684      8734      8737      8738
      8684      8734      8737      8739      8684      8734      8737      8740
      8685      8684      8734      8735      8685      8684      8734      8736
      8685      8684      8734      8737      8686      8684      8734      8735
      8686      8684      8734      8736      8686      8684      8734      8737
      8687      8690      8693      8694      8687      8690      8693      8695
      8687      8690      8693      8696      8688      8687      8690      8691
      8688      8687      8690      8692      8688      8687      8690      8693
      8689      8687      8690      8691      8689      8687      8690      8692
      8689      8687      8690      8693      8690      8693      8696      8697
      8690      8693      8696      8698      8690      8693      8696      8699
      8691      8690      8693      8694      8691      8690      8693      8695
      8691      8690      8693      8696      8692      8690      8693      8694
      8692      8690      8693      8695      8692      8690      8693      8696
      8693      8696      8699      8700      8693      8696      8699      8701
      8693      8696      8699      8702      8694      8693      8696      8697
      8694      8693      8696      8698      8694      8693      8696      8699
      8695      8693      8696      8697      8695      8693      8696      8698
      8695      8693      8696      8699      8696      8699      8702      8703
      8696      8699      8702      8704      8696      8699      8702      8705
      8697      8696      8699      8700      8697      8696      8699      8701
      8697      8696      8699      8702      8698      8696      8699      8700
      8698      8696      8699      8701      8698      8696      8699      8702
      8699      8702      8705      8706      8699      8702      8705      8707
      8700      8699      8702      8703      8700      8699      8702      8704
      8700      8699      8702      8705      8701      8699      8702      8703
      8701      8699      8702      8704      8701      8699      8702      8705
      8702      8705      8707      8708      8702      8705      8707      8709
      8703      8702      8705      8706      8703      8702      8705      8707
      8704      8702      8705      8706      8704      8702      8705      8707
      8705      8707      8709      8710      8705      8707      8709      8711
      8705      8707      8709      8712      8706      8705      8707      8708
      8706      8705      8707      8709      8707      8709      8712      8713
      8707      8709      8712      8714      8707      8709      8712      8715
      8708      8707      8709      8710      8708      8707      8709      8711
      8708      8707      8709      8712      8709      8712      8715      8716
      8709      8712      8715      8717      8709      8712      8715      8718
      8710      8709      8712      8713      8710      8709      8712      8714
      8710      8709      8712      8715      8711      8709      8712      8713
      8711      8709      8712      8714      8711      8709      8712      8715
      8712      8715      8718      8719      8712      8715      8718      8720
      8712      8715      8718      8721      8713      8712      8715      8716
      8713      8712      8715      8717      8713      8712      8715      8718
      8714      8712      8715      8716      8714      8712      8715      8717
      8714      8712      8715      8718      8715      8718      8721      8722
      8715      8718      8721      8723      8715      8718      8721      8724
      8716      8715      8718      8719      8716      8715      8718      8720
      8716      8715      8718      8721      8717      8715      8718      8719
      8717      8715      8718      8720      8717      8715      8718      8721
      8718      8721      8724      8725      8718      8721      8724      8726
      8718      8721      8724      8727      8719      8718      8721      8722
      8719      8718      8721      8723      8719      8718      8721      8724
      8720      8718      8721      8722      8720      8718      8721      8723
      8720      8718      8721      8724      8721      8724      8727      8728
      8721      8724      8727      8729      8721      8724      8727      8730
      8722      8721      8724      8725      8722      8721      8724      8726
      8722      8721      8724      8727      8723      8721      8724      8725
      8723      8721      8724      8726      8723      8721      8724      8727
      8724      8727      8730      8731      8724      8727      8730      8732
      8724      8727      8730      8733      8725      8724      8727      8728
      8725      8724      8727      8729      8725      8724      8727      8730
      8726      8724      8727      8728      8726      8724      8727      8729
      8726      8724      8727      8730      8728      8727      8730      8731
      8728      8727      8730      8732      8728      8727      8730      8733
      8729      8727      8730      8731      8729      8727      8730      8732
      8729      8727      8730      8733      8734      8737      8740      8741
      8734      8737      8740      8742      8734      8737      8740      8743
      8735      8734      8737      8738      8735      8734      8737      8739
      8735      8734      8737      8740      8736      8734      8737      8738
      8736      8734      8737      8739      8736      8734      8737      8740
      8737      8740      8743      8744      8737      8740      8743      8745
      8737      8740      8743      8746      8738      8737      8740      8741
      8738      8737      8740      8742      8738      8737      8740      8743
      8739      8737      8740      8741      8739      8737      8740      8742
      8739      8737      8740      8743      8740      8743      8746      8747
      8740      8743      8746      8748      8740      8743      8746      8749
      8741      8740      8743      8744      8741      8740      8743      8745
      8741      8740      8743      8746      8742      8740      8743      8744
      8742      8740      8743      8745      8742      8740      8743      8746
      8743      8746      8749      8750      8743      8746      8749      8751
      8743      8746      8749      8752      8744      8743      8746      8747
      8744      8743      8746      8748      8744      8743      8746      8749
      8745      8743      8746      8747      8745      8743      8746      8748
      8745      8743      8746      8749      8746      8749      8752      8753
      8746      8749      8752      8754      8747      8746      8749      8750
      8747      8746      8749      8751      8747      8746      8749      8752
      8748      8746      8749      8750      8748      8746      8749      8751
      8748      8746      8749      8752      8749      8752      8754      8755
      8749      8752      8754      8756      8750      8749      8752      8753
      8750      8749      8752      8754      8751      8749      8752      8753
      8751      8749      8752      8754      8752      8754      8756      8757
      8752      8754      8756      8758      8752      8754      8756      8759
      8753      8752      8754      8755      8753      8752      8754      8756
      8754      8756      8759      8760      8754      8756      8759      8761
      8754      8756      8759      8762      8755      8754      8756      8757
      8755      8754      8756      8758      8755      8754      8756      8759
      8756      8759      8762      8763      8756      8759      8762      8764
      8756      8759      8762      8765      8757      8756      8759      8760
      8757      8756      8759      8761      8757      8756      8759      8762
      8758      8756      8759      8760      8758      8756      8759      8761
      8758      8756      8759      8762      8759      8762      8765      8766
      8759      8762      8765      8767      8759      8762      8765      8768
      8760      8759      8762      8763      8760      8759      8762      8764
      8760      8759      8762      8765      8761      8759      8762      8763
      8761      8759      8762      8764      8761      8759      8762      8765
      8762      8765      8768      8769      8762      8765      8768      8770
      8762      8765      8768      8771      8763      8762      8765      8766
      8763      8762      8765      8767      8763      8762      8765      8768
      8764      8762      8765      8766      8764      8762      8765      8767
      8764      8762      8765      8768      8765      8768      8771      8772
      8765      8768      8771      8773      8765      8768      8771      8774
      8766      8765      8768      8769      8766      8765      8768      8770
      8766      8765      8768      8771      8767      8765      8768      8769
      8767      8765      8768      8770      8767      8765      8768      8771
      8768      8771      8774      8775      8768      8771      8774      8776
      8768      8771      8774      8777      8769      8768      8771      8772
      8769      8768      8771      8773      8769      8768      8771      8774
      8770      8768      8771      8772      8770      8768      8771      8773
      8770      8768      8771      8774      8771      8774      8777      8778
      8771      8774      8777      8779      8771      8774      8777      8780
      8772      8771      8774      8775      8772      8771      8774      8776
      8772      8771      8774      8777      8773      8771      8774      8775
      8773      8771      8774      8776      8773      8771      8774      8777
      8775      8774      8777      8778      8775      8774      8777      8779
      8775      8774      8777      8780      8776      8774      8777      8778
      8776      8774      8777      8779      8776      8774      8777      8780
      8781      8782      8797      8798      8781      8782      8797      8799
      8781      8782      8797      8803      8782      8781      8785      8786
      8782      8781      8785      8787      8782      8781      8785      8788
      8782      8781      8789      8790      8782      8781      8789      8791
      8782      8781      8789      8792      8782      8781      8793      8794
      8782      8781      8793      8795      8782      8781      8793      8796
      8782      8797      8803      8800      8783      8782      8781      8785
      8783      8782      8781      8789      8783      8782      8781      8793
      8783      8782      8797      8798      8783      8782      8797      8799
      8783      8782      8797      8803      8784      8782      8781      8785
      8784      8782      8781      8789      8784      8782      8781      8793
      8784      8782      8797      8798      8784      8782      8797      8799
      8784      8782      8797      8803      8785      8781      8782      8797
      8785      8781      8789      8790      8785      8781      8789      8791
      8785      8781      8789      8792      8785      8781      8793      8794
      8785      8781      8793      8795      8785      8781      8793      8796
      8786      8785      8781      8789      8786      8785      8781      8793
      8787      8785      8781      8789      8787      8785      8781      8793
      8788      8785      8781      8789      8788      8785      8781      8793
      8789      8781      8782      8797      8789      8781      8793      8794
      8789      8781      8793      8795      8789      8781      8793      8796
      8790      8789      8781      8793      8791      8789      8781      8793
      8792      8789      8781      8793      8793      8781      8782      8797
      8797      8803      8800      8801      8797      8803      8800      8802
      8797      8803      8800      8804      8798      8797      8803      8800
      8799      8797      8803      8800      8800      8804      8805      8806
      8800      8804      8805      8807      8800      8804      8805      8808
      8801      8800      8804      8805      8802      8800      8804      8805
      8803      8800      8804      8805      8804      8805      8808      8809
      8804      8805      8808      8810      8804      8805      8808      8816
      8805      8808      8810      8811      8805      8808      8816      8817
      8805      8808      8816      8818      8805      8808      8816      8819
      8806      8805      8808      8809      8806      8805      8808      8810
      8806      8805      8808      8816      8807      8805      8808      8809
      8807      8805      8808      8810      8807      8805      8808      8816
      8808      8810      8811      8812      8808      8810      8811      8813
      8808      8816      8819      8820      8809      8808      8810      8811
      8809      8808      8816      8817      8809      8808      8816      8818
      8809      8808      8816      8819      8810      8808      8816      8817
      8810      8808      8816      8818      8810      8808      8816      8819
      8810      8811      8813      8814      8810      8811      8813      8815
      8810      8811      8813      8825      8811      8810      8808      8816
      8811      8813      8825      8826      8811      8813      8825      8827
      8811      8813      8825      8828      8812      8811      8813      8814
      8812      8811      8813      8815      8812      8811      8813      8825
      8813      8825      8828      8829      8813      8825      8828      8830
      8813      8825      8828      8831      8814      8813      8825      8826
      8814      8813      8825      8827      8814      8813      8825      8828
      8815      8813      8825      8826      8815      8813      8825      8827
      8815      8813      8825      8828      8816      8819      8820      8821
      8816      8819      8820      8822      8817      8816      8819      8820
      8818      8816      8819      8820      8819      8820      8822      8823
      8819      8820      8822      8824      8819      8820      8822      8872
      8820      8822      8872      8873      8820      8822      8872      8874
      8820      8822      8872      8875      8821      8820      8822      8823
      8821      8820      8822      8824      8821      8820      8822      8872
      8822      8872      8875      8876      8822      8872      8875      8877
      8822      8872      8875      8878      8823      8822      8872      8873
      8823      8822      8872      8874      8823      8822      8872      8875
      8824      8822      8872      8873      8824      8822      8872      8874
      8824      8822      8872      8875      8825      8828      8831      8832
      8825      8828      8831      8833      8825      8828      8831      8834
      8826      8825      8828      8829      8826      8825      8828      8830
      8826      8825      8828      8831      8827      8825      8828      8829
      8827      8825      8828      8830      8827      8825      8828      8831
      8828      8831      8834      8835      8828      8831      8834      8836
      8828      8831      8834      8837      8829      8828      8831      8832
      8829      8828      8831      8833      8829      8828      8831      8834
      8830      8828      8831      8832      8830      8828      8831      8833
      8830      8828      8831      8834      8831      8834      8837      8838
      8831      8834      8837      8839      8831      8834      8837      8840
      8832      8831      8834      8835      8832      8831      8834      8836
      8832      8831      8834      8837      8833      8831      8834      8835
      8833      8831      8834      8836      8833      8831      8834      8837
      8834      8837      8840      8841      8834      8837      8840      8842
      8834      8837      8840      8843      8835      8834      8837      8838
      8835      8834      8837      8839      8835      8834      8837      8840
      8836      8834      8837      8838      8836      8834      8837      8839
      8836      8834      8837      8840      8837      8840      8843      8844
      8837      8840      8843      8845      8838      8837      8840      8841
      8838      8837      8840      8842      8838      8837      8840      8843
      8839      8837      8840      8841      8839      8837      8840      8842
      8839      8837      8840      8843      8840      8843      8845      8846
      8840      8843      8845      8847      8841      8840      8843      8844
      8841      8840      8843      8845      8842      8840      8843      8844
      8842      8840      8843      8845      8843      8845      8847      8848
      8843      8845      8847      8849      8843      8845      8847      8850
      8844      8843      8845      8846      8844      8843      8845      8847
      8845      8847      8850      8851      8845      8847      8850      8852
      8845      8847      8850      8853      8846      8845      8847      8848
      8846      8845      8847      8849      8846      8845      8847      8850
      8847      8850      8853      8854      8847      8850      8853      8855
      8847      8850      8853      8856      8848      8847      8850      8851
      8848      8847      8850      8852      8848      8847      8850      8853
      8849      8847      8850      8851      8849      8847      8850      8852
      8849      8847      8850      8853      8850      8853      8856      8857
      8850      8853      8856      8858      8850      8853      8856      8859
      8851      8850      8853      8854      8851      8850      8853      8855
      8851      8850      8853      8856      8852      8850      8853      8854
      8852      8850      8853      8855      8852      8850      8853      8856
      8853      8856      8859      8860      8853      8856      8859      8861
      8853      8856      8859      8862      8854      8853      8856      8857
      8854      8853      8856      8858      8854      8853      8856      8859
      8855      8853      8856      8857      8855      8853      8856      8858
      8855      8853      8856      8859      8856      8859      8862      8863
      8856      8859      8862      8864      8856      8859      8862      8865
      8857      8856      8859      8860      8857      8856      8859      8861
      8857      8856      8859      8862      8858      8856      8859      8860
      8858      8856      8859      8861      8858      8856      8859      8862
      8859      8862      8865      8866      8859      8862      8865      8867
      8859      8862      8865      8868      8860      8859      8862      8863
      8860      8859      8862      8864      8860      8859      8862      8865
      8861      8859      8862      8863      8861      8859      8862      8864
      8861      8859      8862      8865      8862      8865      8868      8869
      8862      8865      8868      8870      8862      8865      8868      8871
      8863      8862      8865      8866      8863      8862      8865      8867
      8863      8862      8865      8868      8864      8862      8865      8866
      8864      8862      8865      8867      8864      8862      8865      8868
      8866      8865      8868      8869      8866      8865      8868      8870
      8866      8865      8868      8871      8867      8865      8868      8869
      8867      8865      8868      8870      8867      8865      8868      8871
      8872      8875      8878      8879      8872      8875      8878      8880
      8872      8875      8878      8881      8873      8872      8875      8876
      8873      8872      8875      8877      8873      8872      8875      8878
      8874      8872      8875      8876      8874      8872      8875      8877
      8874      8872      8875      8878      8875      8878      8881      8882
      8875      8878      8881      8883      8875      8878      8881      8884
      8876      8875      8878      8879      8876      8875      8878      8880
      8876      8875      8878      8881      8877      8875      8878      8879
      8877      8875      8878      8880      8877      8875      8878      8881
      8878      8881      8884      8885      8878      8881      8884      8886
      8878      8881      8884      8887      8879      8878      8881      8882
      8879      8878      8881      8883      8879      8878      8881      8884
      8880      8878      8881      8882      8880      8878      8881      8883
      8880      8878      8881      8884      8881      8884      8887      8888
      8881      8884      8887      8889      8881      8884      8887      8890
      8882      8881      8884      8885      8882      8881      8884      8886
      8882      8881      8884      8887      8883      8881      8884      8885
      8883      8881      8884      8886      8883      8881      8884      8887
      8884      8887      8890      8891      8884      8887      8890      8892
      8885      8884      8887      8888      8885      8884      8887      8889
      8885      8884      8887      8890      8886      8884      8887      8888
      8886      8884      8887      8889      8886      8884      8887      8890
      8887      8890      8892      8893      8887      8890      8892      8894
      8888      8887      8890      8891      8888      8887      8890      8892
      8889      8887      8890      8891      8889      8887      8890      8892
      8890      8892      8894      8895      8890      8892      8894      8896
      8890      8892      8894      8897      8891      8890      8892      8893
      8891      8890      8892      8894      8892      8894      8897      8898
      8892      8894      8897      8899      8892      8894      8897      8900
      8893      8892      8894      8895      8893      8892      8894      8896
      8893      8892      8894      8897      8894      8897      8900      8901
      8894      8897      8900      8902      8894      8897      8900      8903
      8895      8894      8897      8898      8895      8894      8897      8899
      8895      8894      8897      8900      8896      8894      8897      8898
      8896      8894      8897      8899      8896      8894      8897      8900
      8897      8900      8903      8904      8897      8900      8903      8905
      8897      8900      8903      8906      8898      8897      8900      8901
      8898      8897      8900      8902      8898      8897      8900      8903
      8899      8897      8900      8901      8899      8897      8900      8902
      8899      8897      8900      8903      8900      8903      8906      8907
      8900      8903      8906      8908      8900      8903      8906      8909
      8901      8900      8903      8904      8901      8900      8903      8905
      8901      8900      8903      8906      8902      8900      8903      8904
      8902      8900      8903      8905      8902      8900      8903      8906
      8903      8906      8909      8910      8903      8906      8909      8911
      8903      8906      8909      8912      8904      8903      8906      8907
      8904      8903      8906      8908      8904      8903      8906      8909
      8905      8903      8906      8907      8905      8903      8906      8908
      8905      8903      8906      8909      8906      8909      8912      8913
      8906      8909      8912      8914      8906      8909      8912      8915
      8907      8906      8909      8910      8907      8906      8909      8911
      8907      8906      8909      8912      8908      8906      8909      8910
      8908      8906      8909      8911      8908      8906      8909      8912
      8909      8912      8915      8916      8909      8912      8915      8917
      8909      8912      8915      8918      8910      8909      8912      8913
      8910      8909      8912      8914      8910      8909      8912      8915
      8911      8909      8912      8913      8911      8909      8912      8914
      8911      8909      8912      8915      8913      8912      8915      8916
      8913      8912      8915      8917      8913      8912      8915      8918
      8914      8912      8915      8916      8914      8912      8915      8917
      8914      8912      8915      8918      8919      8920      8935      8936
      8919      8920      8935      8937      8919      8920      8935      8941
      8920      8919      8923      8924      8920      8919      8923      8925
      8920      8919      8923      8926      8920      8919      8927      8928
      8920      8919      8927      8929      8920      8919      8927      8930
      8920      8919      8931      8932      8920      8919      8931      8933
      8920      8919      8931      8934      8920      8935      8941      8938
      8921      8920      8919      8923      8921      8920      8919      8927
      8921      8920      8919      8931      8921      8920      8935      8936
      8921      8920      8935      8937      8921      8920      8935      8941
      8922      8920      8919      8923      8922      8920      8919      8927
      8922      8920      8919      8931      8922      8920      8935      8936
      8922      8920      8935      8937      8922      8920      8935      8941
      8923      8919      8920      8935      8923      8919      8927      8928
      8923      8919      8927      8929      8923      8919      8927      8930
      8923      8919      8931      8932      8923      8919      8931      8933
      8923      8919      8931      8934      8924      8923      8919      8927
      8924      8923      8919      8931      8925      8923      8919      8927
      8925      8923      8919      8931      8926      8923      8919      8927
      8926      8923      8919      8931      8927      8919      8920      8935
      8927      8919      8931      8932      8927      8919      8931      8933
      8927      8919      8931      8934      8928      8927      8919      8931
      8929      8927      8919      8931      8930      8927      8919      8931
      8931      8919      8920      8935      8935      8941      8938      8939
      8935      8941      8938      8940      8935      8941      8938      8942
      8936      8935      8941      8938      8937      8935      8941      8938
      8938      8942      8943      8944      8938      8942      8943      8945
      8938      8942      8943      8946      8939      8938      8942      8943
      8940      8938      8942      8943      8941      8938      8942      8943
      8942      8943      8946      8947      8942      8943      8946      8948
      8942      8943      8946      8954      8943      8946      8948      8949
      8943      8946      8954      8955      8943      8946      8954      8956
      8943      8946      8954      8957      8944      8943      8946      8947
      8944      8943      8946      8948      8944      8943      8946      8954
      8945      8943      8946      8947      8945      8943      8946      8948
      8945      8943      8946      8954      8946      8948      8949      8950
      8946      8948      8949      8951      8946      8954      8957      8958
      8947      8946      8948      8949      8947      8946      8954      8955
      8947      8946      8954      8956      8947      8946      8954      8957
      8948      8946      8954      8955      8948      8946      8954      8956
      8948      8946      8954      8957      8948      8949      8951      8952
      8948      8949      8951      8953      8948      8949      8951      8963
      8949      8948      8946      8954      8949      8951      8963      8964
      8949      8951      8963      8965      8949      8951      8963      8966
      8950      8949      8951      8952      8950      8949      8951      8953
      8950      8949      8951      8963      8951      8963      8966      8967
      8951      8963      8966      8968      8951      8963      8966      8969
      8952      8951      8963      8964      8952      8951      8963      8965
      8952      8951      8963      8966      8953      8951      8963      8964
      8953      8951      8963      8965      8953      8951      8963      8966
      8954      8957      8958      8959      8954      8957      8958      8960
      8955      8954      8957      8958      8956      8954      8957      8958
      8957      8958      8960      8961      8957      8958      8960      8962
      8957      8958      8960      9010      8958      8960      9010      9011
      8958      8960      9010      9012      8958      8960      9010      9013
      8959      8958      8960      8961      8959      8958      8960      8962
      8959      8958      8960      9010      8960      9010      9013      9014
      8960      9010      9013      9015      8960      9010      9013      9016
      8961      8960      9010      9011      8961      8960      9010      9012
      8961      8960      9010      9013      8962      8960      9010      9011
      8962      8960      9010      9012      8962      8960      9010      9013
      8963      8966      8969      8970      8963      8966      8969      8971
      8963      8966      8969      8972      8964      8963      8966      8967
      8964      8963      8966      8968      8964      8963      8966      8969
      8965      8963      8966      8967      8965      8963      8966      8968
      8965      8963      8966      8969      8966      8969      8972      8973
      8966      8969      8972      8974      8966      8969      8972      8975
      8967      8966      8969      8970      8967      8966      8969      8971
      8967      8966      8969      8972      8968      8966      8969      8970
      8968      8966      8969      8971      8968      8966      8969      8972
      8969      8972      8975      8976      8969      8972      8975      8977
      8969      8972      8975      8978      8970      8969      8972      8973
      8970      8969      8972      8974      8970      8969      8972      8975
      8971      8969      8972      8973      8971      8969      8972      8974
      8971      8969      8972      8975      8972      8975      8978      8979
      8972      8975      8978      8980      8972      8975      8978      8981
      8973      8972      8975      8976      8973      8972      8975      8977
      8973      8972      8975      8978      8974      8972      8975      8976
      8974      8972      8975      8977      8974      8972      8975      8978
      8975      8978      8981      8982      8975      8978      8981      8983
      8976      8975      8978      8979      8976      8975      8978      8980
      8976      8975      8978      8981      8977      8975      8978      8979
      8977      8975      8978      8980      8977      8975      8978      8981
      8978      8981      8983      8984      8978      8981      8983      8985
      8979      8978      8981      8982      8979      8978      8981      8983
      8980      8978      8981      8982      8980      8978      8981      8983
      8981      8983      8985      8986      8981      8983      8985      8987
      8981      8983      8985      8988      8982      8981      8983      8984
      8982      8981      8983      8985      8983      8985      8988      8989
      8983      8985      8988      8990      8983      8985      8988      8991
      8984      8983      8985      8986      8984      8983      8985      8987
      8984      8983      8985      8988      8985      8988      8991      8992
      8985      8988      8991      8993      8985      8988      8991      8994
      8986      8985      8988      8989      8986      8985      8988      8990
      8986      8985      8988      8991      8987      8985      8988      8989
      8987      8985      8988      8990      8987      8985      8988      8991
      8988      8991      8994      8995      8988      8991      8994      8996
      8988      8991      8994      8997      8989      8988      8991      8992
      8989      8988      8991      8993      8989      8988      8991      8994
      8990      8988      8991      8992      8990      8988      8991      8993
      8990      8988      8991      8994      8991      8994      8997      8998
      8991      8994      8997      8999      8991      8994      8997      9000
      8992      8991      8994      8995      8992      8991      8994      8996
      8992      8991      8994      8997      8993      8991      8994      8995
      8993      8991      8994      8996      8993      8991      8994      8997
      8994      8997      9000      9001      8994      8997      9000      9002
      8994      8997      9000      9003      8995      8994      8997      8998
      8995      8994      8997      8999      8995      8994      8997      9000
      8996      8994      8997      8998      8996      8994      8997      8999
      8996      8994      8997      9000      8997      9000      9003      9004
      8997      9000      9003      9005      8997      9000      9003      9006
      8998      8997      9000      9001      8998      8997      9000      9002
      8998      8997      9000      9003      8999      8997      9000      9001
      8999      8997      9000      9002      8999      8997      9000      9003
      9000      9003      9006      9007      9000      9003      9006      9008
      9000      9003      9006      9009      9001      9000      9003      9004
      9001      9000      9003      9005      9001      9000      9003      9006
      9002      9000      9003      9004      9002      9000      9003      9005
      9002      9000      9003      9006      9004      9003      9006      9007
      9004      9003      9006      9008      9004      9003      9006      9009
      9005      9003      9006      9007      9005      9003      9006      9008
      9005      9003      9006      9009      9010      9013      9016      9017
      9010      9013      9016      9018      9010      9013      9016      9019
      9011      9010      9013      9014      9011      9010      9013      9015
      9011      9010      9013      9016      9012      9010      9013      9014
      9012      9010      9013      9015      9012      9010      9013      9016
      9013      9016      9019      9020      9013      9016      9019      9021
      9013      9016      9019      9022      9014      9013      9016      9017
      9014      9013      9016      9018      9014      9013      9016      9019
      9015      9013      9016      9017      9015      9013      9016      9018
      9015      9013      9016      9019      9016      9019      9022      9023
      9016      9019      9022      9024      9016      9019      9022      9025
      9017      9016      9019      9020      9017      9016      9019      9021
      9017      9016      9019      9022      9018      9016      9019      9020
      9018      9016      9019      9021      9018      9016      9019      9022
      9019      9022      9025      9026      9019      9022      9025      9027
      9019      9022      9025      9028      9020      9019      9022      9023
      9020      9019      9022      9024      9020      9019      9022      9025
      9021      9019      9022      9023      9021      9019      9022      9024
      9021      9019      9022      9025      9022      9025      9028      9029
      9022      9025      9028      9030      9023      9022      9025      9026
      9023      9022      9025      9027      9023      9022      9025      9028
      9024      9022      9025      9026      9024      9022      9025      9027
      9024      9022      9025      9028      9025      9028      9030      9031
      9025      9028      9030      9032      9026      9025      9028      9029
      9026      9025      9028      9030      9027      9025      9028      9029
      9027      9025      9028      9030      9028      9030      9032      9033
      9028      9030      9032      9034      9028      9030      9032      9035
      9029      9028      9030      9031      9029      9028      9030      9032
      9030      9032      9035      9036      9030      9032      9035      9037
      9030      9032      9035      9038      9031      9030      9032      9033
      9031      9030      9032      9034      9031      9030      9032      9035
      9032      9035      9038      9039      9032      9035      9038      9040
      9032      9035      9038      9041      9033      9032      9035      9036
      9033      9032      9035      9037      9033      9032      9035      9038
      9034      9032      9035      9036      9034      9032      9035      9037
      9034      9032      9035      9038      9035      9038      9041      9042
      9035      9038      9041      9043      9035      9038      9041      9044
      9036      9035      9038      9039      9036      9035      9038      9040
      9036      9035      9038      9041      9037      9035      9038      9039
      9037      9035      9038      9040      9037      9035      9038      9041
      9038      9041      9044      9045      9038      9041      9044      9046
      9038      9041      9044      9047      9039      9038      9041      9042
      9039      9038      9041      9043      9039      9038      9041      9044
      9040      9038      9041      9042      9040      9038      9041      9043
      9040      9038      9041      9044      9041      9044      9047      9048
      9041      9044      9047      9049      9041      9044      9047      9050
      9042      9041      9044      9045      9042      9041      9044      9046
      9042      9041      9044      9047      9043      9041      9044      9045
      9043      9041      9044      9046      9043      9041      9044      9047
      9044      9047      9050      9051      9044      9047      9050      9052
      9044      9047      9050      9053      9045      9044      9047      9048
      9045      9044      9047      9049      9045      9044      9047      9050
      9046      9044      9047      9048      9046      9044      9047      9049
      9046      9044      9047      9050      9047      9050      9053      9054
      9047      9050      9053      9055      9047      9050      9053      9056
      9048      9047      9050      9051      9048      9047      9050      9052
      9048      9047      9050      9053      9049      9047      9050      9051
      9049      9047      9050      9052      9049      9047      9050      9053
      9051      9050      9053      9054      9051      9050      9053      9055
      9051      9050      9053      9056      9052      9050      9053      9054
      9052      9050      9053      9055      9052      9050      9053      9056
      9057      9058      9073      9074      9057      9058      9073      9075
      9057      9058      9073      9079      9058      9057      9061      9062
      9058      9057      9061      9063      9058      9057      9061      9064
      9058      9057      9065      9066      9058      9057      9065      9067
      9058      9057      9065      9068      9058      9057      9069      9070
      9058      9057      9069      9071      9058      9057      9069      9072
      9058      9073      9079      9076      9059      9058      9057      9061
      9059      9058      9057      9065      9059      9058      9057      9069
      9059      9058      9073      9074      9059      9058      9073      9075
      9059      9058      9073      9079      9060      9058      9057      9061
      9060      9058      9057      9065      9060      9058      9057      9069
      9060      9058      9073      9074      9060      9058      9073      9075
      9060      9058      9073      9079      9061      9057      9058      9073
      9061      9057      9065      9066      9061      9057      9065      9067
      9061      9057      9065      9068      9061      9057      9069      9070
      9061      9057      9069      9071      9061      9057      9069      9072
      9062      9061      9057      9065      9062      9061      9057      9069
      9063      9061      9057      9065      9063      9061      9057      9069
      9064      9061      9057      9065      9064      9061      9057      9069
      9065      9057      9058      9073      9065      9057      9069      9070
      9065      9057      9069      9071      9065      9057      9069      9072
      9066      9065      9057      9069      9067      9065      9057      9069
      9068      9065      9057      9069      9069      9057      9058      9073
      9073      9079      9076      9077      9073      9079      9076      9078
      9073      9079      9076      9080      9074      9073      9079      9076
      9075      9073      9079      9076      9076      9080      9081      9082
      9076      9080      9081      9083      9076      9080      9081      9084
      9077      9076      9080      9081      9078      9076      9080      9081
      9079      9076      9080      9081      9080      9081      9084      9085
      9080      9081      9084      9086      9080      9081      9084      9092
      9081      9084      9086      9087      9081      9084      9092      9093
      9081      9084      9092      9094      9081      9084      9092      9095
      9082      9081      9084      9085      9082      9081      9084      9086
      9082      9081      9084      9092      9083      9081      9084      9085
      9083      9081      9084      9086      9083      9081      9084      9092
      9084      9086      9087      9088      9084      9086      9087      9089
      9084      9092      9095      9096      9085      9084      9086      9087
      9085      9084      9092      9093      9085      9084      9092      9094
      9085      9084      9092      9095      9086      9084      9092      9093
      9086      9084      9092      9094      9086      9084      9092      9095
      9086      9087      9089      9090      9086      9087      9089      9091
      9086      9087      9089      9101      9087      9086      9084      9092
      9087      9089      9101      9102      9087      9089      9101      9103
      9087      9089      9101      9104      9088      9087      9089      9090
      9088      9087      9089      9091      9088      9087      9089      9101
      9089      9101      9104      9105      9089      9101      9104      9106
      9089      9101      9104      9107      9090      9089      9101      9102
      9090      9089      9101      9103      9090      9089      9101      9104
      9091      9089      9101      9102      9091      9089      9101      9103
      9091      9089      9101      9104      9092      9095      9096      9097
      9092      9095      9096      9098      9093      9092      9095      9096
      9094      9092      9095      9096      9095      9096      9098      9099
      9095      9096      9098      9100      9095      9096      9098      9148
      9096      9098      9148      9149      9096      9098      9148      9150
      9096      9098      9148      9151      9097      9096      9098      9099
      9097      9096      9098      9100      9097      9096      9098      9148
      9098      9148      9151      9152      9098      9148      9151      9153
      9098      9148      9151      9154      9099      9098      9148      9149
      9099      9098      9148      9150      9099      9098      9148      9151
      9100      9098      9148      9149      9100      9098      9148      9150
      9100      9098      9148      9151      9101      9104      9107      9108
      9101      9104      9107      9109      9101      9104      9107      9110
      9102      9101      9104      9105      9102      9101      9104      9106
      9102      9101      9104      9107      9103      9101      9104      9105
      9103      9101      9104      9106      9103      9101      9104      9107
      9104      9107      9110      9111      9104      9107      9110      9112
      9104      9107      9110      9113      9105      9104      9107      9108
      9105      9104      9107      9109      9105      9104      9107      9110
      9106      9104      9107      9108      9106      9104      9107      9109
      9106      9104      9107      9110      9107      9110      9113      9114
      9107      9110      9113      9115      9107      9110      9113      9116
      9108      9107      9110      9111      9108      9107      9110      9112
      9108      9107      9110      9113      9109      9107      9110      9111
      9109      9107      9110      9112      9109      9107      9110      9113
      9110      9113      9116      9117      9110      9113      9116      9118
      9110      9113      9116      9119      9111      9110      9113      9114
      9111      9110      9113      9115      9111      9110      9113      9116
      9112      9110      9113      9114      9112      9110      9113      9115
      9112      9110      9113      9116      9113      9116      9119      9120
      9113      9116      9119      9121      9114      9113      9116      9117
      9114      9113      9116      9118      9114      9113      9116      9119
      9115      9113      9116      9117      9115      9113      9116      9118
      9115      9113      9116      9119      9116      9119      9121      9122
      9116      9119      9121      9123      9117      9116      9119      9120
      9117      9116      9119      9121      9118      9116      9119      9120
      9118      9116      9119      9121      9119      9121      9123      9124
      9119      9121      9123      9125      9119      9121      9123      9126
      9120      9119      9121      9122      9120      9119      9121      9123
      9121      9123      9126      9127      9121      9123      9126      9128
      9121      9123      9126      9129      9122      9121      9123      9124
      9122      9121      9123      9125      9122      9121      9123      9126
      9123      9126      9129      9130      9123      9126      9129      9131
      9123      9126      9129      9132      9124      9123      9126      9127
      9124      9123      9126      9128      9124      9123      9126      9129
      9125      9123      9126      9127      9125      9123      9126      9128
      9125      9123      9126      9129      9126      9129      9132      9133
      9126      9129      9132      9134      9126      9129      9132      9135
      9127      9126      9129      9130      9127      9126      9129      9131
      9127      9126      9129      9132      9128      9126      9129      9130
      9128      9126      9129      9131      9128      9126      9129      9132
      9129      9132      9135      9136      9129      9132      9135      9137
      9129      9132      9135      9138      9130      9129      9132      9133
      9130      9129      9132      9134      9130      9129      9132      9135
      9131      9129      9132      9133      9131      9129      9132      9134
      9131      9129      9132      9135      9132      9135      9138      9139
      9132      9135      9138      9140      9132      9135      9138      9141
      9133      9132      9135      9136      9133      9132      9135      9137
      9133      9132      9135      9138      9134      9132      9135      9136
      9134      9132      9135      9137      9134      9132      9135      9138
      9135      9138      9141      9142      9135      9138      9141      9143
      9135      9138      9141      9144      9136      9135      9138      9139
      9136      9135      9138      9140      9136      9135      9138      9141
      9137      9135      9138      9139      9137      9135      9138      9140
      9137      9135      9138      9141      9138      9141      9144      9145
      9138      9141      9144      9146      9138      9141      9144      9147
      9139      9138      9141      9142      9139      9138      9141      9143
      9139      9138      9141      9144      9140      9138      9141      9142
      9140      9138      9141      9143      9140      9138      9141      9144
      9142      9141      9144      9145      9142      9141      9144      9146
      9142      9141      9144      9147      9143      9141      9144      9145
      9143      9141      9144      9146      9143      9141      9144      9147
      9148      9151      9154      9155      9148      9151      9154      9156
      9148      9151      9154      9157      9149      9148      9151      9152
      9149      9148      9151      9153      9149      9148      9151      9154
      9150      9148      9151      9152      9150      9148      9151      9153
      9150      9148      9151      9154      9151      9154      9157      9158
      9151      9154      9157      9159      9151      9154      9157      9160
      9152      9151      9154      9155      9152      9151      9154      9156
      9152      9151      9154      9157      9153      9151      9154      9155
      9153      9151      9154      9156      9153      9151      9154      9157
      9154      9157      9160      9161      9154      9157      9160      9162
      9154      9157      9160      9163      9155      9154      9157      9158
      9155      9154      9157      9159      9155      9154      9157      9160
      9156      9154      9157      9158      9156      9154      9157      9159
      9156      9154      9157      9160      9157      9160      9163      9164
      9157      9160      9163      9165      9157      9160      9163      9166
      9158      9157      9160      9161      9158      9157      9160      9162
      9158      9157      9160      9163      9159      9157      9160      9161
      9159      9157      9160      9162      9159      9157      9160      9163
      9160      9163      9166      9167      9160      9163      9166      9168
      9161      9160      9163      9164      9161      9160      9163      9165
      9161      9160      9163      9166      9162      9160      9163      9164
      9162      9160      9163      9165      9162      9160      9163      9166
      9163      9166      9168      9169      9163      9166      9168      9170
      9164      9163      9166      9167      9164      9163      9166      9168
      9165      9163      9166      9167      9165      9163      9166      9168
      9166      9168      9170      9171      9166      9168      9170      9172
      9166      9168      9170      9173      9167      9166      9168      9169
      9167      9166      9168      9170      9168      9170      9173      9174
      9168      9170      9173      9175      9168      9170      9173      9176
      9169      9168      9170      9171      9169      9168      9170      9172
      9169      9168      9170      9173      9170      9173      9176      9177
      9170      9173      9176      9178      9170      9173      9176      9179
      9171      9170      9173      9174      9171      9170      9173      9175
      9171      9170      9173      9176      9172      9170      9173      9174
      9172      9170      9173      9175      9172      9170      9173      9176
      9173      9176      9179      9180      9173      9176      9179      9181
      9173      9176      9179      9182      9174      9173      9176      9177
      9174      9173      9176      9178      9174      9173      9176      9179
      9175      9173      9176      9177      9175      9173      9176      9178
      9175      9173      9176      9179      9176      9179      9182      9183
      9176      9179      9182      9184      9176      9179      9182      9185
      9177      9176      9179      9180      9177      9176      9179      9181
      9177      9176      9179      9182      9178      9176      9179      9180
      9178      9176      9179      9181      9178      9176      9179      9182
      9179      9182      9185      9186      9179      9182      9185      9187
      9179      9182      9185      9188      9180      9179      9182      9183
      9180      9179      9182      9184      9180      9179      9182      9185
      9181      9179      9182      9183      9181      9179      9182      9184
      9181      9179      9182      9185      9182      9185      9188      9189
      9182      9185      9188      9190      9182      9185      9188      9191
      9183      9182      9185      9186      9183      9182      9185      9187
      9183      9182      9185      9188      9184      9182      9185      9186
      9184      9182      9185      9187      9184      9182      9185      9188
      9185      9188      9191      9192      9185      9188      9191      9193
      9185      9188      9191      9194      9186      9185      9188      9189
      9186      9185      9188      9190      9186      9185      9188      9191
      9187      9185      9188      9189      9187      9185      9188      9190
      9187      9185      9188      9191      9189      9188      9191      9192
      9189      9188      9191      9193      9189      9188      9191      9194
      9190      9188      9191      9192      9190      9188      9191      9193
      9190      9188      9191      9194      9195      9196      9211      9212
      9195      9196      9211      9213      9195      9196      9211      9217
      9196      9195      9199      9200      9196      9195      9199      9201
      9196      9195      9199      9202      9196      9195      9203      9204
      9196      9195      9203      9205      9196      9195      9203      9206
      9196      9195      9207      9208      9196      9195      9207      9209
      9196      9195      9207      9210      9196      9211      9217      9214
      9197      9196      9195      9199      9197      9196      9195      9203
      9197      9196      9195      9207      9197      9196      9211      9212
      9197      9196      9211      9213      9197      9196      9211      9217
      9198      9196      9195      9199      9198      9196      9195      9203
      9198      9196      9195      9207      9198      9196      9211      9212
      9198      9196      9211      9213      9198      9196      9211      9217
      9199      9195      9196      9211      9199      9195      9203      9204
      9199      9195      9203      9205      9199      9195      9203      9206
      9199      9195      9207      9208      9199      9195      9207      9209
      9199      9195      9207      9210      9200      9199      9195      9203
      9200      9199      9195      9207      9201      9199      9195      9203
      9201      9199      9195      9207      9202      9199      9195      9203
      9202      9199      9195      9207      9203      9195      9196      9211
      9203      9195      9207      9208      9203      9195      9207      9209
      9203      9195      9207      9210      9204      9203      9195      9207
      9205      9203      9195      9207      9206      9203      9195      9207
      9207      9195      9196      9211      9211      9217      9214      9215
      9211      9217      9214      9216      9211      9217      9214      9218
      9212      9211      9217      9214      9213      9211      9217      9214
      9214      9218      9219      9220      9214      9218      9219      9221
      9214      9218      9219      9222      9215      9214      9218      9219
      9216      9214      9218      9219      9217      9214      9218      9219
      9218      9219      9222      9223      9218      9219      9222      9224
      9218      9219      9222      9230      9219      9222      9224      9225
      9219      9222      9230      9231      9219      9222      9230      9232
      9219      9222      9230      9233      9220      9219      9222      9223
      9220      9219      9222      9224      9220      9219      9222      9230
      9221      9219      9222      9223      9221      9219      9222      9224
      9221      9219      9222      9230      9222      9224      9225      9226
      9222      9224      9225      9227      9222      9230      9233      9234
      9223      9222      9224      9225      9223      9222      9230      9231
      9223      9222      9230      9232      9223      9222      9230      9233
      9224      9222      9230      9231      9224      9222      9230      9232
      9224      9222      9230      9233      9224      9225      9227      9228
      9224      9225      9227      9229      9224      9225      9227      9239
      9225      9224      9222      9230      9225      9227      9239      9240
      9225      9227      9239      9241      9225      9227      9239      9242
      9226      9225      9227      9228      9226      9225      9227      9229
      9226      9225      9227      9239      9227      9239      9242      9243
      9227      9239      9242      9244      9227      9239      9242      9245
      9228      9227      9239      9240      9228      9227      9239      9241
      9228      9227      9239      9242      9229      9227      9239      9240
      9229      9227      9239      9241      9229      9227      9239      9242
      9230      9233      9234      9235      9230      9233      9234      9236
      9231      9230      9233      9234      9232      9230      9233      9234
      9233      9234      9236      9237      9233      9234      9236      9238
      9233      9234      9236      9286      9234      9236      9286      9287
      9234      9236      9286      9288      9234      9236      9286      9289
      9235      9234      9236      9237      9235      9234      9236      9238
      9235      9234      9236      9286      9236      9286      9289      9290
      9236      9286      9289      9291      9236      9286      9289      9292
      9237      9236      9286      9287      9237      9236      9286      9288
      9237      9236      9286      9289      9238      9236      9286      9287
      9238      9236      9286      9288      9238      9236      9286      9289
      9239      9242      9245      9246      9239      9242      9245      9247
      9239      9242      9245      9248      9240      9239      9242      9243
      9240      9239      9242      9244      9240      9239      9242      9245
      9241      9239      9242      9243      9241      9239      9242      9244
      9241      9239      9242      9245      9242      9245      9248      9249
      9242      9245      9248      9250      9242      9245      9248      9251
      9243      9242      9245      9246      9243      9242      9245      9247
      9243      9242      9245      9248      9244      9242      9245      9246
      9244      9242      9245      9247      9244      9242      9245      9248
      9245      9248      9251      9252      9245      9248      9251      9253
      9245      9248      9251      9254      9246      9245      9248      9249
      9246      9245      9248      9250      9246      9245      9248      9251
      9247      9245      9248      9249      9247      9245      9248      9250
      9247      9245      9248      9251      9248      9251      9254      9255
      9248      9251      9254      9256      9248      9251      9254      9257
      9249      9248      9251      9252      9249      9248      9251      9253
      9249      9248      9251      9254      9250      9248      9251      9252
      9250      9248      9251      9253      9250      9248      9251      9254
      9251      9254      9257      9258      9251      9254      9257      9259
      9252      9251      9254      9255      9252      9251      9254      9256
      9252      9251      9254      9257      9253      9251      9254      9255
      9253      9251      9254      9256      9253      9251      9254      9257
      9254      9257      9259      9260      9254      9257      9259      9261
      9255      9254      9257      9258      9255      9254      9257      9259
      9256      9254      9257      9258      9256      9254      9257      9259
      9257      9259      9261      9262      9257      9259      9261      9263
      9257      9259      9261      9264      9258      9257      9259      9260
      9258      9257      9259      9261      9259      9261      9264      9265
      9259      9261      9264      9266      9259      9261      9264      9267
      9260      9259      9261      9262      9260      9259      9261      9263
      9260      9259      9261      9264      9261      9264      9267      9268
      9261      9264      9267      9269      9261      9264      9267      9270
      9262      9261      9264      9265      9262      9261      9264      9266
      9262      9261      9264      9267      9263      9261      9264      9265
      9263      9261      9264      9266      9263      9261      9264      9267
      9264      9267      9270      9271      9264      9267      9270      9272
      9264      9267      9270      9273      9265      9264      9267      9268
      9265      9264      9267      9269      9265      9264      9267      9270
      9266      9264      9267      9268      9266      9264      9267      9269
      9266      9264      9267      9270      9267      9270      9273      9274
      9267      9270      9273      9275      9267      9270      9273      9276
      9268      9267      9270      9271      9268      9267      9270      9272
      9268      9267      9270      9273      9269      9267      9270      9271
      9269      9267      9270      9272      9269      9267      9270      9273
      9270      9273      9276      9277      9270      9273      9276      9278
      9270      9273      9276      9279      9271      9270      9273      9274
      9271      9270      9273      9275      9271      9270      9273      9276
      9272      9270      9273      9274      9272      9270      9273      9275
      9272      9270      9273      9276      9273      9276      9279      9280
      9273      9276      9279      9281      9273      9276      9279      9282
      9274      9273      9276      9277      9274      9273      9276      9278
      9274      9273      9276      9279      9275      9273      9276      9277
      9275      9273      9276      9278      9275      9273      9276      9279
      9276      9279      9282      9283      9276      9279      9282      9284
      9276      9279      9282      9285      9277      9276      9279      9280
      9277      9276      9279      9281      9277      9276      9279      9282
      9278      9276      9279      9280      9278      9276      9279      9281
      9278      9276      9279      9282      9280      9279      9282      9283
      9280      9279      9282      9284      9280      9279      9282      9285
      9281      9279      9282      9283      9281      9279      9282      9284
      9281      9279      9282      9285      9286      9289      9292      9293
      9286      9289      9292      9294      9286      9289      9292      9295
      9287      9286      9289      9290      9287      9286      9289      9291
      9287      9286      9289      9292      9288      9286      9289      9290
      9288      9286      9289      9291      9288      9286      9289      9292
      9289      9292      9295      9296      9289      9292      9295      9297
      9289      9292      9295      9298      9290      9289      9292      9293
      9290      9289      9292      9294      9290      9289      9292      9295
      9291      9289      9292      9293      9291      9289      9292      9294
      9291      9289      9292      9295      9292      9295      9298      9299
      9292      9295      9298      9300      9292      9295      9298      9301
      9293      9292      9295      9296      9293      9292      9295      9297
      9293      9292      9295      9298      9294      9292      9295      9296
      9294      9292      9295      9297      9294      9292      9295      9298
      9295      9298      9301      9302      9295      9298      9301      9303
      9295      9298      9301      9304      9296      9295      9298      9299
      9296      9295      9298      9300      9296      9295      9298      9301
      9297      9295      9298      9299      9297      9295      9298      9300
      9297      9295      9298      9301      9298      9301      9304      9305
      9298      9301      9304      9306      9299      9298      9301      9302
      9299      9298      9301      9303      9299      9298      9301      9304
      9300      9298      9301      9302      9300      9298      9301      9303
      9300      9298      9301      9304      9301      9304      9306      9307
      9301      9304      9306      9308      9302      9301      9304      9305
      9302      9301      9304      9306      9303      9301      9304      9305
      9303      9301      9304      9306      9304      9306      9308      9309
      9304      9306      9308      9310      9304      9306      9308      9311
      9305      9304      9306      9307      9305      9304      9306      9308
      9306      9308      9311      9312      9306      9308      9311      9313
      9306      9308      9311      9314      9307      9306      9308      9309
      9307      9306      9308      9310      9307      9306      9308      9311
      9308      9311      9314      9315      9308      9311      9314      9316
      9308      9311      9314      9317      9309      9308      9311      9312
      9309      9308      9311      9313      9309      9308      9311      9314
      9310      9308      9311      9312      9310      9308      9311      9313
      9310      9308      9311      9314      9311      9314      9317      9318
      9311      9314      9317      9319      9311      9314      9317      9320
      9312      9311      9314      9315      9312      9311      9314      9316
      9312      9311      9314      9317      9313      9311      9314      9315
      9313      9311      9314      9316      9313      9311      9314      9317
      9314      9317      9320      9321      9314      9317      9320      9322
      9314      9317      9320      9323      9315      9314      9317      9318
      9315      9314      9317      9319      9315      9314      9317      9320
      9316      9314      9317      9318      9316      9314      9317      9319
      9316      9314      9317      9320      9317      9320      9323      9324
      9317      9320      9323      9325      9317      9320      9323      9326
      9318      9317      9320      9321      9318      9317      9320      9322
      9318      9317      9320      9323      9319      9317      9320      9321
      9319      9317      9320      9322      9319      9317      9320      9323
      9320      9323      9326      9327      9320      9323      9326      9328
      9320      9323      9326      9329      9321      9320      9323      9324
      9321      9320      9323      9325      9321      9320      9323      9326
      9322      9320      9323      9324      9322      9320      9323      9325
      9322      9320      9323      9326      9323      9326      9329      9330
      9323      9326      9329      9331      9323      9326      9329      9332
      9324      9323      9326      9327      9324      9323      9326      9328
      9324      9323      9326      9329      9325      9323      9326      9327
      9325      9323      9326      9328      9325      9323      9326      9329
      9327      9326      9329      9330      9327      9326      9329      9331
      9327      9326      9329      9332      9328      9326      9329      9330
      9328      9326      9329      9331      9328      9326      9329      9332
      9333      9334      9349      9350      9333      9334      9349      9351
      9333      9334      9349      9355      9334      9333      9337      9338
      9334      9333      9337      9339      9334      9333      9337      9340
      9334      9333      9341      9342      9334      9333      9341      9343
      9334      9333      9341      9344      9334      9333      9345      9346
      9334      9333      9345      9347      9334      9333      9345      9348
      9334      9349      9355      9352      9335      9334      9333      9337
      9335      9334      9333      9341      9335      9334      9333      9345
      9335      9334      9349      9350      9335      9334      9349      9351
      9335      9334      9349      9355      9336      9334      9333      9337
      9336      9334      9333      9341      9336      9334      9333      9345
      9336      9334      9349      9350      9336      9334      9349      9351
      9336      9334      9349      9355      9337      9333      9334      9349
      9337      9333      9341      9342      9337      9333      9341      9343
      9337      9333      9341      9344      9337      9333      9345      9346
      9337      9333      9345      9347      9337      9333      9345      9348
      9338      9337      9333      9341      9338      9337      9333      9345
      9339      9337      9333      9341      9339      9337      9333      9345
      9340      9337      9333      9341      9340      9337      9333      9345
      9341      9333      9334      9349      9341      9333      9345      9346
      9341      9333      9345      9347      9341      9333      9345      9348
      9342      9341      9333      9345      9343      9341      9333      9345
      9344      9341      9333      9345      9345      9333      9334      9349
      9349      9355      9352      9353      9349      9355      9352      9354
      9349      9355      9352      9356      9350      9349      9355      9352
      9351      9349      9355      9352      9352      9356      9357      9358
      9352      9356      9357      9359      9352      9356      9357      9360
      9353      9352      9356      9357      9354      9352      9356      9357
      9355      9352      9356      9357      9356      9357      9360      9361
      9356      9357      9360      9362      9356      9357      9360      9368
      9357      9360      9362      9363      9357      9360      9368      9369
      9357      9360      9368      9370      9357      9360      9368      9371
      9358      9357      9360      9361      9358      9357      9360      9362
      9358      9357      9360      9368      9359      9357      9360      9361
      9359      9357      9360      9362      9359      9357      9360      9368
      9360      9362      9363      9364      9360      9362      9363      9365
      9360      9368      9371      9372      9361      9360      9362      9363
      9361      9360      9368      9369      9361      9360      9368      9370
      9361      9360      9368      9371      9362      9360      9368      9369
      9362      9360      9368      9370      9362      9360      9368      9371
      9362      9363      9365      9366      9362      9363      9365      9367
      9362      9363      9365      9377      9363      9362      9360      9368
      9363      9365      9377      9378      9363      9365      9377      9379
      9363      9365      9377      9380      9364      9363      9365      9366
      9364      9363      9365      9367      9364      9363      9365      9377
      9365      9377      9380      9381      9365      9377      9380      9382
      9365      9377      9380      9383      9366      9365      9377      9378
      9366      9365      9377      9379      9366      9365      9377      9380
      9367      9365      9377      9378      9367      9365      9377      9379
      9367      9365      9377      9380      9368      9371      9372      9373
      9368      9371      9372      9374      9369      9368      9371      9372
      9370      9368      9371      9372      9371      9372      9374      9375
      9371      9372      9374      9376      9371      9372      9374      9424
      9372      9374      9424      9425      9372      9374      9424      9426
      9372      9374      9424      9427      9373      9372      9374      9375
      9373      9372      9374      9376      9373      9372      9374      9424
      9374      9424      9427      9428      9374      9424      9427      9429
      9374      9424      9427      9430      9375      9374      9424      9425
      9375      9374      9424      9426      9375      9374      9424      9427
      9376      9374      9424      9425      9376      9374      9424      9426
      9376      9374      9424      9427      9377      9380      9383      9384
      9377      9380      9383      9385      9377      9380      9383      9386
      9378      9377      9380      9381      9378      9377      9380      9382
      9378      9377      9380      9383      9379      9377      9380      9381
      9379      9377      9380      9382      9379      9377      9380      9383
      9380      9383      9386      9387      9380      9383      9386      9388
      9380      9383      9386      9389      9381      9380      9383      9384
      9381      9380      9383      9385      9381      9380      9383      9386
      9382      9380      9383      9384      9382      9380      9383      9385
      9382      9380      9383      9386      9383      9386      9389      9390
      9383      9386      9389      9391      9383      9386      9389      9392
      9384      9383      9386      9387      9384      9383      9386      9388
      9384      9383      9386      9389      9385      9383      9386      9387
      9385      9383      9386      9388      9385      9383      9386      9389
      9386      9389      9392      9393      9386      9389      9392      9394
      9386      9389      9392      9395      9387      9386      9389      9390
      9387      9386      9389      9391      9387      9386      9389      9392
      9388      9386      9389      9390      9388      9386      9389      9391
      9388      9386      9389      9392      9389      9392      9395      9396
      9389      9392      9395      9397      9390      9389      9392      9393
      9390      9389      9392      9394      9390      9389      9392      9395
      9391      9389      9392      9393      9391      9389      9392      9394
      9391      9389      9392      9395      9392      9395      9397      9398
      9392      9395      9397      9399      9393      9392      9395      9396
      9393      9392      9395      9397      9394      9392      9395      9396
      9394      9392      9395      9397      9395      9397      9399      9400
      9395      9397      9399      9401      9395      9397      9399      9402
      9396      9395      9397      9398      9396      9395      9397      9399
      9397      9399      9402      9403      9397      9399      9402      9404
      9397      9399      9402      9405      9398      9397      9399      9400
      9398      9397      9399      9401      9398      9397      9399      9402
      9399      9402      9405      9406      9399      9402      9405      9407
      9399      9402      9405      9408      9400      9399      9402      9403
      9400      9399      9402      9404      9400      9399      9402      9405
      9401      9399      9402      9403      9401      9399      9402      9404
      9401      9399      9402      9405      9402      9405      9408      9409
      9402      9405      9408      9410      9402      9405      9408      9411
      9403      9402      9405      9406      9403      9402      9405      9407
      9403      9402      9405      9408      9404      9402      9405      9406
      9404      9402      9405      9407      9404      9402      9405      9408
      9405      9408      9411      9412      9405      9408      9411      9413
      9405      9408      9411      9414      9406      9405      9408      9409
      9406      9405      9408      9410      9406      9405      9408      9411
      9407      9405      9408      9409      9407      9405      9408      9410
      9407      9405      9408      9411      9408      9411      9414      9415
      9408      9411      9414      9416      9408      9411      9414      9417
      9409      9408      9411      9412      9409      9408      9411      9413
      9409      9408      9411      9414      9410      9408      9411      9412
      9410      9408      9411      9413      9410      9408      9411      9414
      9411      9414      9417      9418      9411      9414      9417      9419
      9411      9414      9417      9420      9412      9411      9414      9415
      9412      9411      9414      9416      9412      9411      9414      9417
      9413      9411      9414      9415      9413      9411      9414      9416
      9413      9411      9414      9417      9414      9417      9420      9421
      9414      9417      9420      9422      9414      9417      9420      9423
      9415      9414      9417      9418      9415      9414      9417      9419
      9415      9414      9417      9420      9416      9414      9417      9418
      9416      9414      9417      9419      9416      9414      9417      9420
      9418      9417      9420      9421      9418      9417      9420      9422
      9418      9417      9420      9423      9419      9417      9420      9421
      9419      9417      9420      9422      9419      9417      9420      9423
      9424      9427      9430      9431      9424      9427      9430      9432
      9424      9427      9430      9433      9425      9424      9427      9428
      9425      9424      9427      9429      9425      9424      9427      9430
      9426      9424      9427      9428      9426      9424      9427      9429
      9426      9424      9427      9430      9427      9430      9433      9434
      9427      9430      9433      9435      9427      9430      9433      9436
      9428      9427      9430      9431      9428      9427      9430      9432
      9428      9427      9430      9433      9429      9427      9430      9431
      9429      9427      9430      9432      9429      9427      9430      9433
      9430      9433      9436      9437      9430      9433      9436      9438
      9430      9433      9436      9439      9431      9430      9433      9434
      9431      9430      9433      9435      9431      9430      9433      9436
      9432      9430      9433      9434      9432      9430      9433      9435
      9432      9430      9433      9436      9433      9436      9439      9440
      9433      9436      9439      9441      9433      9436      9439      9442
      9434      9433      9436      9437      9434      9433      9436      9438
      9434      9433      9436      9439      9435      9433      9436      9437
      9435      9433      9436      9438      9435      9433      9436      9439
      9436      9439      9442      9443      9436      9439      9442      9444
      9437      9436      9439      9440      9437      9436      9439      9441
      9437      9436      9439      9442      9438      9436      9439      9440
      9438      9436      9439      9441      9438      9436      9439      9442
      9439      9442      9444      9445      9439      9442      9444      9446
      9440      9439      9442      9443      9440      9439      9442      9444
      9441      9439      9442      9443      9441      9439      9442      9444
      9442      9444      9446      9447      9442      9444      9446      9448
      9442      9444      9446      9449      9443      9442      9444      9445
      9443      9442      9444      9446      9444      9446      9449      9450
      9444      9446      9449      9451      9444      9446      9449      9452
      9445      9444      9446      9447      9445      9444      9446      9448
      9445      9444      9446      9449      9446      9449      9452      9453
      9446      9449      9452      9454      9446      9449      9452      9455
      9447      9446      9449      9450      9447      9446      9449      9451
      9447      9446      9449      9452      9448      9446      9449      9450
      9448      9446      9449      9451      9448      9446      9449      9452
      9449      9452      9455      9456      9449      9452      9455      9457
      9449      9452      9455      9458      9450      9449      9452      9453
      9450      9449      9452      9454      9450      9449      9452      9455
      9451      9449      9452      9453      9451      9449      9452      9454
      9451      9449      9452      9455      9452      9455      9458      9459
      9452      9455      9458      9460      9452      9455      9458      9461
      9453      9452      9455      9456      9453      9452      9455      9457
      9453      9452      9455      9458      9454      9452      9455      9456
      9454      9452      9455      9457      9454      9452      9455      9458
      9455      9458      9461      9462      9455      9458      9461      9463
      9455      9458      9461      9464      9456      9455      9458      9459
      9456      9455      9458      9460      9456      9455      9458      9461
      9457      9455      9458      9459      9457      9455      9458      9460
      9457      9455      9458      9461      9458      9461      9464      9465
      9458      9461      9464      9466      9458      9461      9464      9467
      9459      9458      9461      9462      9459      9458      9461      9463
      9459      9458      9461      9464      9460      9458      9461      9462
      9460      9458      9461      9463      9460      9458      9461      9464
      9461      9464      9467      9468      9461      9464      9467      9469
      9461      9464      9467      9470      9462      9461      9464      9465
      9462      9461      9464      9466      9462      9461      9464      9467
      9463      9461      9464      9465      9463      9461      9464      9466
      9463      9461      9464      9467      9465      9464      9467      9468
      9465      9464      9467      9469      9465      9464      9467      9470
      9466      9464      9467      9468      9466      9464      9467      9469
      9466      9464      9467      9470      9471      9472      9487      9488
      9471      9472      9487      9489      9471      9472      9487      9493
      9472      9471      9475      9476      9472      9471      9475      9477
      9472      9471      9475      9478      9472      9471      9479      9480
      9472      9471      9479      9481      9472      9471      9479      9482
      9472      9471      9483      9484      9472      9471      9483      9485
      9472      9471      9483      9486      9472      9487      9493      9490
      9473      9472      9471      9475      9473      9472      9471      9479
      9473      9472      9471      9483      9473      9472      9487      9488
      9473      9472      9487      9489      9473      9472      9487      9493
      9474      9472      9471      9475      9474      9472      9471      9479
      9474      9472      9471      9483      9474      9472      9487      9488
      9474      9472      9487      9489      9474      9472      9487      9493
      9475      9471      9472      9487      9475      9471      9479      9480
      9475      9471      9479      9481      9475      9471      9479      9482
      9475      9471      9483      9484      9475      9471      9483      9485
      9475      9471      9483      9486      9476      9475      9471      9479
      9476      9475      9471      9483      9477      9475      9471      9479
      9477      9475      9471      9483      9478      9475      9471      9479
      9478      9475      9471      9483      9479      9471      9472      9487
      9479      9471      9483      9484      9479      9471      9483      9485
      9479      9471      9483      9486      9480      9479      9471      9483
      9481      9479      9471      9483      9482      9479      9471      9483
      9483      9471      9472      9487      9487      9493      9490      9491
      9487      9493      9490      9492      9487      9493      9490      9494
      9488      9487      9493      9490      9489      9487      9493      9490
      9490      9494      9495      9496      9490      9494      9495      9497
      9490      9494      9495      9498      9491      9490      9494      9495
      9492      9490      9494      9495      9493      9490      9494      9495
      9494      9495      9498      9499      9494      9495      9498      9500
      9494      9495      9498      9506      9495      9498      9500      9501
      9495      9498      9506      9507      9495      9498      9506      9508
      9495      9498      9506      9509      9496      9495      9498      9499
      9496      9495      9498      9500      9496      9495      9498      9506
      9497      9495      9498      9499      9497      9495      9498      9500
      9497      9495      9498      9506      9498      9500      9501      9502
      9498      9500      9501      9503      9498      9506      9509      9510
      9499      9498      9500      9501      9499      9498      9506      9507
      9499      9498      9506      9508      9499      9498      9506      9509
      9500      9498      9506      9507      9500      9498      9506      9508
      9500      9498      9506      9509      9500      9501      9503      9504
      9500      9501      9503      9505      9500      9501      9503      9515
      9501      9500      9498      9506      9501      9503      9515      9516
      9501      9503      9515      9517      9501      9503      9515      9518
      9502      9501      9503      9504      9502      9501      9503      9505
      9502      9501      9503      9515      9503      9515      9518      9519
      9503      9515      9518      9520      9503      9515      9518      9521
      9504      9503      9515      9516      9504      9503      9515      9517
      9504      9503      9515      9518      9505      9503      9515      9516
      9505      9503      9515      9517      9505      9503      9515      9518
      9506      9509      9510      9511      9506      9509      9510      9512
      9507      9506      9509      9510      9508      9506      9509      9510
      9509      9510      9512      9513      9509      9510      9512      9514
      9509      9510      9512      9562      9510      9512      9562      9563
      9510      9512      9562      9564      9510      9512      9562      9565
      9511      9510      9512      9513      9511      9510      9512      9514
      9511      9510      9512      9562      9512      9562      9565      9566
      9512      9562      9565      9567      9512      9562      9565      9568
      9513      9512      9562      9563      9513      9512      9562      9564
      9513      9512      9562      9565      9514      9512      9562      9563
      9514      9512      9562      9564      9514      9512      9562      9565
      9515      9518      9521      9522      9515      9518      9521      9523
      9515      9518      9521      9524      9516      9515      9518      9519
      9516      9515      9518      9520      9516      9515      9518      9521
      9517      9515      9518      9519      9517      9515      9518      9520
      9517      9515      9518      9521      9518      9521      9524      9525
      9518      9521      9524      9526      9518      9521      9524      9527
      9519      9518      9521      9522      9519      9518      9521      9523
      9519      9518      9521      9524      9520      9518      9521      9522
      9520      9518      9521      9523      9520      9518      9521      9524
      9521      9524      9527      9528      9521      9524      9527      9529
      9521      9524      9527      9530      9522      9521      9524      9525
      9522      9521      9524      9526      9522      9521      9524      9527
      9523      9521      9524      9525      9523      9521      9524      9526
      9523      9521      9524      9527      9524      9527      9530      9531
      9524      9527      9530      9532      9524      9527      9530      9533
      9525      9524      9527      9528      9525      9524      9527      9529
      9525      9524      9527      9530      9526      9524      9527      9528
      9526      9524      9527      9529      9526      9524      9527      9530
      9527      9530      9533      9534      9527      9530      9533      9535
      9528      9527      9530      9531      9528      9527      9530      9532
      9528      9527      9530      9533      9529      9527      9530      9531
      9529      9527      9530      9532      9529      9527      9530      9533
      9530      9533      9535      9536      9530      9533      9535      9537
      9531      9530      9533      9534      9531      9530      9533      9535
      9532      9530      9533      9534      9532      9530      9533      9535
      9533      9535      9537      9538      9533      9535      9537      9539
      9533      9535      9537      9540      9534      9533      9535      9536
      9534      9533      9535      9537      9535      9537      9540      9541
      9535      9537      9540      9542      9535      9537      9540      9543
      9536      9535      9537      9538      9536      9535      9537      9539
      9536      9535      9537      9540      9537      9540      9543      9544
      9537      9540      9543      9545      9537      9540      9543      9546
      9538      9537      9540      9541      9538      9537      9540      9542
      9538      9537      9540      9543      9539      9537      9540      9541
      9539      9537      9540      9542      9539      9537      9540      9543
      9540      9543      9546      9547      9540      9543      9546      9548
      9540      9543      9546      9549      9541      9540      9543      9544
      9541      9540      9543      9545      9541      9540      9543      9546
      9542      9540      9543      9544      9542      9540      9543      9545
      9542      9540      9543      9546      9543      9546      9549      9550
      9543      9546      9549      9551      9543      9546      9549      9552
      9544      9543      9546      9547      9544      9543      9546      9548
      9544      9543      9546      9549      9545      9543      9546      9547
      9545      9543      9546      9548      9545      9543      9546      9549
      9546      9549      9552      9553      9546      9549      9552      9554
      9546      9549      9552      9555      9547      9546      9549      9550
      9547      9546      9549      9551      9547      9546      9549      9552
      9548      9546      9549      9550      9548      9546      9549      9551
      9548      9546      9549      9552      9549      9552      9555      9556
      9549      9552      9555      9557      9549      9552      9555      9558
      9550      9549      9552      9553      9550      9549      9552      9554
      9550      9549      9552      9555      9551      9549      9552      9553
      9551      9549      9552      9554      9551      9549      9552      9555
      9552      9555      9558      9559      9552      9555      9558      9560
      9552      9555      9558      9561      9553      9552      9555      9556
      9553      9552      9555      9557      9553      9552      9555      9558
      9554      9552      9555      9556      9554      9552      9555      9557
      9554      9552      9555      9558      9556      9555      9558      9559
      9556      9555      9558      9560      9556      9555      9558      9561
      9557      9555      9558      9559      9557      9555      9558      9560
      9557      9555      9558      9561      9562      9565      9568      9569
      9562      9565      9568      9570      9562      9565      9568      9571
      9563      9562      9565      9566      9563      9562      9565      9567
      9563      9562      9565      9568      9564      9562      9565      9566
      9564      9562      9565      9567      9564      9562      9565      9568
      9565      9568      9571      9572      9565      9568      9571      9573
      9565      9568      9571      9574      9566      9565      9568      9569
      9566      9565      9568      9570      9566      9565      9568      9571
      9567      9565      9568      9569      9567      9565      9568      9570
      9567      9565      9568      9571      9568      9571      9574      9575
      9568      9571      9574      9576      9568      9571      9574      9577
      9569      9568      9571      9572      9569      9568      9571      9573
      9569      9568      9571      9574      9570      9568      9571      9572
      9570      9568      9571      9573      9570      9568      9571      9574
      9571      9574      9577      9578      9571      9574      9577      9579
      9571      9574      9577      9580      9572      9571      9574      9575
      9572      9571      9574      9576      9572      9571      9574      9577
      9573      9571      9574      9575      9573      9571      9574      9576
      9573      9571      9574      9577      9574      9577      9580      9581
      9574      9577      9580      9582      9575      9574      9577      9578
      9575      9574      9577      9579      9575      9574      9577      9580
      9576      9574      9577      9578      9576      9574      9577      9579
      9576      9574      9577      9580      9577      9580      9582      9583
      9577      9580      9582      9584      9578      9577      9580      9581
      9578      9577      9580      9582      9579      9577      9580      9581
      9579      9577      9580      9582      9580      9582      9584      9585
      9580      9582      9584      9586      9580      9582      9584      9587
      9581      9580      9582      9583      9581      9580      9582      9584
      9582      9584      9587      9588      9582      9584      9587      9589
      9582      9584      9587      9590      9583      9582      9584      9585
      9583      9582      9584      9586      9583      9582      9584      9587
      9584      9587      9590      9591      9584      9587      9590      9592
      9584      9587      9590      9593      9585      9584      9587      9588
      9585      9584      9587      9589      9585      9584      9587      9590
      9586      9584      9587      9588      9586      9584      9587      9589
      9586      9584      9587      9590      9587      9590      9593      9594
      9587      9590      9593      9595      9587      9590      9593      9596
      9588      9587      9590      9591      9588      9587      9590      9592
      9588      9587      9590      9593      9589      9587      9590      9591
      9589      9587      9590      9592      9589      9587      9590      9593
      9590      9593      9596      9597      9590      9593      9596      9598
      9590      9593      9596      9599      9591      9590      9593      9594
      9591      9590      9593      9595      9591      9590      9593      9596
      9592      9590      9593      9594      9592      9590      9593      9595
      9592      9590      9593      9596      9593      9596      9599      9600
      9593      9596      9599      9601      9593      9596      9599      9602
      9594      9593      9596      9597      9594      9593      9596      9598
      9594      9593      9596      9599      9595      9593      9596      9597
      9595      9593      9596      9598      9595      9593      9596      9599
      9596      9599      9602      9603      9596      9599      9602      9604
      9596      9599      9602      9605      9597      9596      9599      9600
      9597      9596      9599      9601      9597      9596      9599      9602
      9598      9596      9599      9600      9598      9596      9599      9601
      9598      9596      9599      9602      9599      9602      9605      9606
      9599      9602      9605      9607      9599      9602      9605      9608
      9600      9599      9602      9603      9600      9599      9602      9604
      9600      9599      9602      9605      9601      9599      9602      9603
      9601      9599      9602      9604      9601      9599      9602      9605
      9603      9602      9605      9606      9603      9602      9605      9607
      9603      9602      9605      9608      9604      9602      9605      9606
      9604      9602      9605      9607      9604      9602      9605      9608
      9609      9610      9625      9626      9609      9610      9625      9627
      9609      9610      9625      9631      9610      9609      9613      9614
      9610      9609      9613      9615      9610      9609      9613      9616
      9610      9609      9617      9618      9610      9609      9617      9619
      9610      9609      9617      9620      9610      9609      9621      9622
      9610      9609      9621      9623      9610      9609      9621      9624
      9610      9625      9631      9628      9611      9610      9609      9613
      9611      9610      9609      9617      9611      9610      9609      9621
      9611      9610      9625      9626      9611      9610      9625      9627
      9611      9610      9625      9631      9612      9610      9609      9613
      9612      9610      9609      9617      9612      9610      9609      9621
      9612      9610      9625      9626      9612      9610      9625      9627
      9612      9610      9625      9631      9613      9609      9610      9625
      9613      9609      9617      9618      9613      9609      9617      9619
      9613      9609      9617      9620      9613      9609      9621      9622
      9613      9609      9621      9623      9613      9609      9621      9624
      9614      9613      9609      9617      9614      9613      9609      9621
      9615      9613      9609      9617      9615      9613      9609      9621
      9616      9613      9609      9617      9616      9613      9609      9621
      9617      9609      9610      9625      9617      9609      9621      9622
      9617      9609      9621      9623      9617      9609      9621      9624
      9618      9617      9609      9621      9619      9617      9609      9621
      9620      9617      9609      9621      9621      9609      9610      9625
      9625      9631      9628      9629      9625      9631      9628      9630
      9625      9631      9628      9632      9626      9625      9631      9628
      9627      9625      9631      9628      9628      9632      9633      9634
      9628      9632      9633      9635      9628      9632      9633      9636
      9629      9628      9632      9633      9630      9628      9632      9633
      9631      9628      9632      9633      9632      9633      9636      9637
      9632      9633      9636      9638      9632      9633      9636      9644
      9633      9636      9638      9639      9633      9636      9644      9645
      9633      9636      9644      9646      9633      9636      9644      9647
      9634      9633      9636      9637      9634      9633      9636      9638
      9634      9633      9636      9644      9635      9633      9636      9637
      9635      9633      9636      9638      9635      9633      9636      9644
      9636      9638      9639      9640      9636      9638      9639      9641
      9636      9644      9647      9648      9637      9636      9638      9639
      9637      9636      9644      9645      9637      9636      9644      9646
      9637      9636      9644      9647      9638      9636      9644      9645
      9638      9636      9644      9646      9638      9636      9644      9647
      9638      9639      9641      9642      9638      9639      9641      9643
      9638      9639      9641      9653      9639      9638      9636      9644
      9639      9641      9653      9654      9639      9641      9653      9655
      9639      9641      9653      9656      9640      9639      9641      9642
      9640      9639      9641      9643      9640      9639      9641      9653
      9641      9653      9656      9657      9641      9653      9656      9658
      9641      9653      9656      9659      9642      9641      9653      9654
      9642      9641      9653      9655      9642      9641      9653      9656
      9643      9641      9653      9654      9643      9641      9653      9655
      9643      9641      9653      9656      9644      9647      9648      9649
      9644      9647      9648      9650      9645      9644      9647      9648
      9646      9644      9647      9648      9647      9648      9650      9651
      9647      9648      9650      9652      9647      9648      9650      9700
      9648      9650      9700      9701      9648      9650      9700      9702
      9648      9650      9700      9703      9649      9648      9650      9651
      9649      9648      9650      9652      9649      9648      9650      9700
      9650      9700      9703      9704      9650      9700      9703      9705
      9650      9700      9703      9706      9651      9650      9700      9701
      9651      9650      9700      9702      9651      9650      9700      9703
      9652      9650      9700      9701      9652      9650      9700      9702
      9652      9650      9700      9703      9653      9656      9659      9660
      9653      9656      9659      9661      9653      9656      9659      9662
      9654      9653      9656      9657      9654      9653      9656      9658
      9654      9653      9656      9659      9655      9653      9656      9657
      9655      9653      9656      9658      9655      9653      9656      9659
      9656      9659      9662      9663      9656      9659      9662      9664
      9656      9659      9662      9665      9657      9656      9659      9660
      9657      9656      9659      9661      9657      9656      9659      9662
      9658      9656      9659      9660      9658      9656      9659      9661
      9658      9656      9659      9662      9659      9662      9665      9666
      9659      9662      9665      9667      9659      9662      9665      9668
      9660      9659      9662      9663      9660      9659      9662      9664
      9660      9659      9662      9665      9661      9659      9662      9663
      9661      9659      9662      9664      9661      9659      9662      9665
      9662      9665      9668      9669      9662      9665      9668      9670
      9662      9665      9668      9671      9663      9662      9665      9666
      9663      9662      9665      9667      9663      9662      9665      9668
      9664      9662      9665      9666      9664      9662      9665      9667
      9664      9662      9665      9668      9665      9668      9671      9672
      9665      9668      9671      9673      9666      9665      9668      9669
      9666      9665      9668      9670      9666      9665      9668      9671
      9667      9665      9668      9669      9667      9665      9668      9670
      9667      9665      9668      9671      9668      9671      9673      9674
      9668      9671      9673      9675      9669      9668      9671      9672
      9669      9668      9671      9673      9670      9668      9671      9672
      9670      9668      9671      9673      9671      9673      9675      9676
      9671      9673      9675      9677      9671      9673      9675      9678
      9672      9671      9673      9674      9672      9671      9673      9675
      9673      9675      9678      9679      9673      9675      9678      9680
      9673      9675      9678      9681      9674      9673      9675      9676
      9674      9673      9675      9677      9674      9673      9675      9678
      9675      9678      9681      9682      9675      9678      9681      9683
      9675      9678      9681      9684      9676      9675      9678      9679
      9676      9675      9678      9680      9676      9675      9678      9681
      9677      9675      9678      9679      9677      9675      9678      9680
      9677      9675      9678      9681      9678      9681      9684      9685
      9678      9681      9684      9686      9678      9681      9684      9687
      9679      9678      9681      9682      9679      9678      9681      9683
      9679      9678      9681      9684      9680      9678      9681      9682
      9680      9678      9681      9683      9680      9678      9681      9684
      9681      9684      9687      9688      9681      9684      9687      9689
      9681      9684      9687      9690      9682      9681      9684      9685
      9682      9681      9684      9686      9682      9681      9684      9687
      9683      9681      9684      9685      9683      9681      9684      9686
      9683      9681      9684      9687      9684      9687      9690      9691
      9684      9687      9690      9692      9684      9687      9690      9693
      9685      9684      9687      9688      9685      9684      9687      9689
      9685      9684      9687      9690      9686      9684      9687      9688
      9686      9684      9687      9689      9686      9684      9687      9690
      9687      9690      9693      9694      9687      9690      9693      9695
      9687      9690      9693      9696      9688      9687      9690      9691
      9688      9687      9690      9692      9688      9687      9690      9693
      9689      9687      9690      9691      9689      9687      9690      9692
      9689      9687      9690      9693      9690      9693      9696      9697
      9690      9693      9696      9698      9690      9693      9696      9699
      9691      9690      9693      9694      9691      9690      9693      9695
      9691      9690      9693      9696      9692      9690      9693      9694
      9692      9690      9693      9695      9692      9690      9693      9696
      9694      9693      9696      9697      9694      9693      9696      9698
      9694      9693      9696      9699      9695      9693      9696      9697
      9695      9693      9696      9698      9695      9693      9696      9699
      9700      9703      9706      9707      9700      9703      9706      9708
      9700      9703      9706      9709      9701      9700      9703      9704
      9701      9700      9703      9705      9701      9700      9703      9706
      9702      9700      9703      9704      9702      9700      9703      9705
      9702      9700      9703      9706      9703      9706      9709      9710
      9703      9706      9709      9711      9703      9706      9709      9712
      9704      9703      9706      9707      9704      9703      9706      9708
      9704      9703      9706      9709      9705      9703      9706      9707
      9705      9703      9706      9708      9705      9703      9706      9709
      9706      9709      9712      9713      9706      9709      9712      9714
      9706      9709      9712      9715      9707      9706      9709      9710
      9707      9706      9709      9711      9707      9706      9709      9712
      9708      9706      9709      9710      9708      9706      9709      9711
      9708      9706      9709      9712      9709      9712      9715      9716
      9709      9712      9715      9717      9709      9712      9715      9718
      9710      9709      9712      9713      9710      9709      9712      9714
      9710      9709      9712      9715      9711      9709      9712      9713
      9711      9709      9712      9714      9711      9709      9712      9715
      9712      9715      9718      9719      9712      9715      9718      9720
      9713      9712      9715      9716      9713      9712      9715      9717
      9713      9712      9715      9718      9714      9712      9715      9716
      9714      9712      9715      9717      9714      9712      9715      9718
      9715      9718      9720      9721      9715      9718      9720      9722
      9716      9715      9718      9719      9716      9715      9718      9720
      9717      9715      9718      9719      9717      9715      9718      9720
      9718      9720      9722      9723      9718      9720      9722      9724
      9718      9720      9722      9725      9719      9718      9720      9721
      9719      9718      9720      9722      9720      9722      9725      9726
      9720      9722      9725      9727      9720      9722      9725      9728
      9721      9720      9722      9723      9721      9720      9722      9724
      9721      9720      9722      9725      9722      9725      9728      9729
      9722      9725      9728      9730      9722      9725      9728      9731
      9723      9722      9725      9726      9723      9722      9725      9727
      9723      9722      9725      9728      9724      9722      9725      9726
      9724      9722      9725      9727      9724      9722      9725      9728
      9725      9728      9731      9732      9725      9728      9731      9733
      9725      9728      9731      9734      9726      9725      9728      9729
      9726      9725      9728      9730      9726      9725      9728      9731
      9727      9725      9728      9729      9727      9725      9728      9730
      9727      9725      9728      9731      9728      9731      9734      9735
      9728      9731      9734      9736      9728      9731      9734      9737
      9729      9728      9731      9732      9729      9728      9731      9733
      9729      9728      9731      9734      9730      9728      9731      9732
      9730      9728      9731      9733      9730      9728      9731      9734
      9731      9734      9737      9738      9731      9734      9737      9739
      9731      9734      9737      9740      9732      9731      9734      9735
      9732      9731      9734      9736      9732      9731      9734      9737
      9733      9731      9734      9735      9733      9731      9734      9736
      9733      9731      9734      9737      9734      9737      9740      9741
      9734      9737      9740      9742      9734      9737      9740      9743
      9735      9734      9737      9738      9735      9734      9737      9739
      9735      9734      9737      9740      9736      9734      9737      9738
      9736      9734      9737      9739      9736      9734      9737      9740
      9737      9740      9743      9744      9737      9740      9743      9745
      9737      9740      9743      9746      9738      9737      9740      9741
      9738      9737      9740      9742      9738      9737      9740      9743
      9739      9737      9740      9741      9739      9737      9740      9742
      9739      9737      9740      9743      9741      9740      9743      9744
      9741      9740      9743      9745      9741      9740      9743      9746
      9742      9740      9743      9744      9742      9740      9743      9745
      9742      9740      9743      9746      9747      9748      9763      9764
      9747      9748      9763      9765      9747      9748      9763      9769
      9748      9747      9751      9752      9748      9747      9751      9753
      9748      9747      9751      9754      9748      9747      9755      9756
      9748      9747      9755      9757      9748      9747      9755      9758
      9748      9747      9759      9760      9748      9747      9759      9761
      9748      9747      9759      9762      9748      9763      9769      9766
      9749      9748      9747      9751      9749      9748      9747      9755
      9749      9748      9747      9759      9749      9748      9763      9764
      9749      9748      9763      9765      9749      9748      9763      9769
      9750      9748      9747      9751      9750      9748      9747      9755
      9750      9748      9747      9759      9750      9748      9763      9764
      9750      9748      9763      9765      9750      9748      9763      9769
      9751      9747      9748      9763      9751      9747      9755      9756
      9751      9747      9755      9757      9751      9747      9755      9758
      9751      9747      9759      9760      9751      9747      9759      9761
      9751      9747      9759      9762      9752      9751      9747      9755
      9752      9751      9747      9759      9753      9751      9747      9755
      9753      9751      9747      9759      9754      9751      9747      9755
      9754      9751      9747      9759      9755      9747      9748      9763
      9755      9747      9759      9760      9755      9747      9759      9761
      9755      9747      9759      9762      9756      9755      9747      9759
      9757      9755      9747      9759      9758      9755      9747      9759
      9759      9747      9748      9763      9763      9769      9766      9767
      9763      9769      9766      9768      9763      9769      9766      9770
      9764      9763      9769      9766      9765      9763      9769      9766
      9766      9770      9771      9772      9766      9770      9771      9773
      9766      9770      9771      9774      9767      9766      9770      9771
      9768      9766      9770      9771      9769      9766      9770      9771
      9770      9771      9774      9775      9770      9771      9774      9776
      9770      9771      9774      9782      9771      9774      9776      9777
      9771      9774      9782      9783      9771      9774      9782      9784
      9771      9774      9782      9785      9772      9771      9774      9775
      9772      9771      9774      9776      9772      9771      9774      9782
      9773      9771      9774      9775      9773      9771      9774      9776
      9773      9771      9774      9782      9774      9776      9777      9778
      9774      9776      9777      9779      9774      9782      9785      9786
      9775      9774      9776      9777      9775      9774      9782      9783
      9775      9774      9782      9784      9775      9774      9782      9785
      9776      9774      9782      9783      9776      9774      9782      9784
      9776      9774      9782      9785      9776      9777      9779      9780
      9776      9777      9779      9781      9776      9777      9779      9791
      9777      9776      9774      9782      9777      9779      9791      9792
      9777      9779      9791      9793      9777      9779      9791      9794
      9778      9777      9779      9780      9778      9777      9779      9781
      9778      9777      9779      9791      9779      9791      9794      9795
      9779      9791      9794      9796      9779      9791      9794      9797
      9780      9779      9791      9792      9780      9779      9791      9793
      9780      9779      9791      9794      9781      9779      9791      9792
      9781      9779      9791      9793      9781      9779      9791      9794
      9782      9785      9786      9787      9782      9785      9786      9788
      9783      9782      9785      9786      9784      9782      9785      9786
      9785      9786      9788      9789      9785      9786      9788      9790
      9785      9786      9788      9838      9786      9788      9838      9839
      9786      9788      9838      9840      9786      9788      9838      9841
      9787      9786      9788      9789      9787      9786      9788      9790
      9787      9786      9788      9838      9788      9838      9841      9842
      9788      9838      9841      9843      9788      9838      9841      9844
      9789      9788      9838      9839      9789      9788      9838      9840
      9789      9788      9838      9841      9790      9788      9838      9839
      9790      9788      9838      9840      9790      9788      9838      9841
      9791      9794      9797      9798      9791      9794      9797      9799
      9791      9794      9797      9800      9792      9791      9794      9795
      9792      9791      9794      9796      9792      9791      9794      9797
      9793      9791      9794      9795      9793      9791      9794      9796
      9793      9791      9794      9797      9794      9797      9800      9801
      9794      9797      9800      9802      9794      9797      9800      9803
      9795      9794      9797      9798      9795      9794      9797      9799
      9795      9794      9797      9800      9796      9794      9797      9798
      9796      9794      9797      9799      9796      9794      9797      9800
      9797      9800      9803      9804      9797      9800      9803      9805
      9797      9800      9803      9806      9798      9797      9800      9801
      9798      9797      9800      9802      9798      9797      9800      9803
      9799      9797      9800      9801      9799      9797      9800      9802
      9799      9797      9800      9803      9800      9803      9806      9807
      9800      9803      9806      9808      9800      9803      9806      9809
      9801      9800      9803      9804      9801      9800      9803      9805
      9801      9800      9803      9806      9802      9800      9803      9804
      9802      9800      9803      9805      9802      9800      9803      9806
      9803      9806      9809      9810      9803      9806      9809      9811
      9804      9803      9806      9807      9804      9803      9806      9808
      9804      9803      9806      9809      9805      9803      9806      9807
      9805      9803      9806      9808      9805      9803      9806      9809
      9806      9809      9811      9812      9806      9809      9811      9813
      9807      9806      9809      9810      9807      9806      9809      9811
      9808      9806      9809      9810      9808      9806      9809      9811
      9809      9811      9813      9814      9809      9811      9813      9815
      9809      9811      9813      9816      9810      9809      9811      9812
      9810      9809      9811      9813      9811      9813      9816      9817
      9811      9813      9816      9818      9811      9813      9816      9819
      9812      9811      9813      9814      9812      9811      9813      9815
      9812      9811      9813      9816      9813      9816      9819      9820
      9813      9816      9819      9821      9813      9816      9819      9822
      9814      9813      9816      9817      9814      9813      9816      9818
      9814      9813      9816      9819      9815      9813      9816      9817
      9815      9813      9816      9818      9815      9813      9816      9819
      9816      9819      9822      9823      9816      9819      9822      9824
      9816      9819      9822      9825      9817      9816      9819      9820
      9817      9816      9819      9821      9817      9816      9819      9822
      9818      9816      9819      9820      9818      9816      9819      9821
      9818      9816      9819      9822      9819      9822      9825      9826
      9819      9822      9825      9827      9819      9822      9825      9828
      9820      9819      9822      9823      9820      9819      9822      9824
      9820      9819      9822      9825      9821      9819      9822      9823
      9821      9819      9822      9824      9821      9819      9822      9825
      9822      9825      9828      9829      9822      9825      9828      9830
      9822      9825      9828      9831      9823      9822      9825      9826
      9823      9822      9825      9827      9823      9822      9825      9828
      9824      9822      9825      9826      9824      9822      9825      9827
      9824      9822      9825      9828      9825      9828      9831      9832
      9825      9828      9831      9833      9825      9828      9831      9834
      9826      9825      9828      9829      9826      9825      9828      9830
      9826      9825      9828      9831      9827      9825      9828      9829
      9827      9825      9828      9830      9827      9825      9828      9831
      9828      9831      9834      9835      9828      9831      9834      9836
      9828      9831      9834      9837      9829      9828      9831      9832
      9829      9828      9831      9833      9829      9828      9831      9834
      9830      9828      9831      9832      9830      9828      9831      9833
      9830      9828      9831      9834      9832      9831      9834      9835
      9832      9831      9834      9836      9832      9831      9834      9837
      9833      9831      9834      9835      9833      9831      9834      9836
      9833      9831      9834      9837      9838      9841      9844      9845
      9838      9841      9844      9846      9838      9841      9844      9847
      9839      9838      9841      9842      9839      9838      9841      9843
      9839      9838      9841      9844      9840      9838      9841      9842
      9840      9838      9841      9843      9840      9838      9841      9844
      9841      9844      9847      9848      9841      9844      9847      9849
      9841      9844      9847      9850      9842      9841      9844      9845
      9842      9841      9844      9846      9842      9841      9844      9847
      9843      9841      9844      9845      9843      9841      9844      9846
      9843      9841      9844      9847      9844      9847      9850      9851
      9844      9847      9850      9852      9844      9847      9850      9853
      9845      9844      9847      9848      9845      9844      9847      9849
      9845      9844      9847      9850      9846      9844      9847      9848
      9846      9844      9847      9849      9846      9844      9847      9850
      9847      9850      9853      9854      9847      9850      9853      9855
      9847      9850      9853      9856      9848      9847      9850      9851
      9848      9847      9850      9852      9848      9847      9850      9853
      9849      9847      9850      9851      9849      9847      9850      9852
      9849      9847      9850      9853      9850      9853      9856      9857
      9850      9853      9856      9858      9851      9850      9853      9854
      9851      9850      9853      9855      9851      9850      9853      9856
      9852      9850      9853      9854      9852      9850      9853      9855
      9852      9850      9853      9856      9853      9856      9858      9859
      9853      9856      9858      9860      9854      9853      9856      9857
      9854      9853      9856      9858      9855      9853      9856      9857
      9855      9853      9856      9858      9856      9858      9860      9861
      9856      9858      9860      9862      9856      9858      9860      9863
      9857      9856      9858      9859      9857      9856      9858      9860
      9858      9860      9863      9864      9858      9860      9863      9865
      9858      9860      9863      9866      9859      9858      9860      9861
      9859      9858      9860      9862      9859      9858      9860      9863
      9860      9863      9866      9867      9860      9863      9866      9868
      9860      9863      9866      9869      9861      9860      9863      9864
      9861      9860      9863      9865      9861      9860      9863      9866
      9862      9860      9863      9864      9862      9860      9863      9865
      9862      9860      9863      9866      9863      9866      9869      9870
      9863      9866      9869      9871      9863      9866      9869      9872
      9864      9863      9866      9867      9864      9863      9866      9868
      9864      9863      9866      9869      9865      9863      9866      9867
      9865      9863      9866      9868      9865      9863      9866      9869
      9866      9869      9872      9873      9866      9869      9872      9874
      9866      9869      9872      9875      9867      9866      9869      9870
      9867      9866      9869      9871      9867      9866      9869      9872
      9868      9866      9869      9870      9868      9866      9869      9871
      9868      9866      9869      9872      9869      9872      9875      9876
      9869      9872      9875      9877      9869      9872      9875      9878
      9870      9869      9872      9873      9870      9869      9872      9874
      9870      9869      9872      9875      9871      9869      9872      9873
      9871      9869      9872      9874      9871      9869      9872      9875
      9872      9875      9878      9879      9872      9875      9878      9880
      9872      9875      9878      9881      9873      9872      9875      9876
      9873      9872      9875      9877      9873      9872      9875      9878
      9874      9872      9875      9876      9874      9872      9875      9877
      9874      9872      9875      9878      9875      9878      9881      9882
      9875      9878      9881      9883      9875      9878      9881      9884
      9876      9875      9878      9879      9876      9875      9878      9880
      9876      9875      9878      9881      9877      9875      9878      9879
      9877      9875      9878      9880      9877      9875      9878      9881
      9879      9878      9881      9882      9879      9878      9881      9883
      9879      9878      9881      9884      9880      9878      9881      9882
      9880      9878      9881      9883      9880      9878      9881      9884
      9885      9886      9901      9902      9885      9886      9901      9903
      9885      9886      9901      9907      9886      9885      9889      9890
      9886      9885      9889      9891      9886      9885      9889      9892
      9886      9885      9893      9894      9886      9885      9893      9895
      9886      9885      9893      9896      9886      9885      9897      9898
      9886      9885      9897      9899      9886      9885      9897      9900
      9886      9901      9907      9904      9887      9886      9885      9889
      9887      9886      9885      9893      9887      9886      9885      9897
      9887      9886      9901      9902      9887      9886      9901      9903
      9887      9886      9901      9907      9888      9886      9885      9889
      9888      9886      9885      9893      9888      9886      9885      9897
      9888      9886      9901      9902      9888      9886      9901      9903
      9888      9886      9901      9907      9889      9885      9886      9901
      9889      9885      9893      9894      9889      9885      9893      9895
      9889      9885      9893      9896      9889      9885      9897      9898
      9889      9885      9897      9899      9889      9885      9897      9900
      9890      9889      9885      9893      9890      9889      9885      9897
      9891      9889      9885      9893      9891      9889      9885      9897
      9892      9889      9885      9893      9892      9889      9885      9897
      9893      9885      9886      9901      9893      9885      9897      9898
      9893      9885      9897      9899      9893      9885      9897      9900
      9894      9893      9885      9897      9895      9893      9885      9897
      9896      9893      9885      9897      9897      9885      9886      9901
      9901      9907      9904      9905      9901      9907      9904      9906
      9901      9907      9904      9908      9902      9901      9907      9904
      9903      9901      9907      9904      9904      9908      9909      9910
      9904      9908      9909      9911      9904      9908      9909      9912
      9905      9904      9908      9909      9906      9904      9908      9909
      9907      9904      9908      9909      9908      9909      9912      9913
      9908      9909      9912      9914      9908      9909      9912      9920
      9909      9912      9914      9915      9909      9912      9920      9921
      9909      9912      9920      9922      9909      9912      9920      9923
      9910      9909      9912      9913      9910      9909      9912      9914
      9910      9909      9912      9920      9911      9909      9912      9913
      9911      9909      9912      9914      9911      9909      9912      9920
      9912      9914      9915      9916      9912      9914      9915      9917
      9912      9920      9923      9924      9913      9912      9914      9915
      9913      9912      9920      9921      9913      9912      9920      9922
      9913      9912      9920      9923      9914      9912      9920      9921
      9914      9912      9920      9922      9914      9912      9920      9923
      9914      9915      9917      9918      9914      9915      9917      9919
      9914      9915      9917      9929      9915      9914      9912      9920
      9915      9917      9929      9930      9915      9917      9929      9931
      9915      9917      9929      9932      9916      9915      9917      9918
      9916      9915      9917      9919      9916      9915      9917      9929
      9917      9929      9932      9933      9917      9929      9932      9934
      9917      9929      9932      9935      9918      9917      9929      9930
      9918      9917      9929      9931      9918      9917      9929      9932
      9919      9917      9929      9930      9919      9917      9929      9931
      9919      9917      9929      9932      9920      9923      9924      9925
      9920      9923      9924      9926      9921      9920      9923      9924
      9922      9920      9923      9924      9923      9924      9926      9927
      9923      9924      9926      9928      9923      9924      9926      9976
      9924      9926      9976      9977      9924      9926      9976      9978
      9924      9926      9976      9979      9925      9924      9926      9927
      9925      9924      9926      9928      9925      9924      9926      9976
      9926      9976      9979      9980      9926      9976      9979      9981
      9926      9976      9979      9982      9927      9926      9976      9977
      9927      9926      9976      9978      9927      9926      9976      9979
      9928      9926      9976      9977      9928      9926      9976      9978
      9928      9926      9976      9979      9929      9932      9935      9936
      9929      9932      9935      9937      9929      9932      9935      9938
      9930      9929      9932      9933      9930      9929      9932      9934
      9930      9929      9932      9935      9931      9929      9932      9933
      9931      9929      9932      9934      9931      9929      9932      9935
      9932      9935      9938      9939      9932      9935      9938      9940
      9932      9935      9938      9941      9933      9932      9935      9936
      9933      9932      9935      9937      9933      9932      9935      9938
      9934      9932      9935      9936      9934      9932      9935      9937
      9934      9932      9935      9938      9935      9938      9941      9942
      9935      9938      9941      9943      9935      9938      9941      9944
      9936      9935      9938      9939      9936      9935      9938      9940
      9936      9935      9938      9941      9937      9935      9938      9939
      9937      9935      9938      9940      9937      9935      9938      9941
      9938      9941      9944      9945      9938      9941      9944      9946
      9938      9941      9944      9947      9939      9938      9941      9942
      9939      9938      9941      9943      9939      9938      9941      9944
      9940      9938      9941      9942      9940      9938      9941      9943
      9940      9938      9941      9944      9941      9944      9947      9948
      9941      9944      9947      9949      9942      9941      9944      9945
      9942      9941      9944      9946      9942      9941      9944      9947
      9943      9941      9944      9945      9943      9941      9944      9946
      9943      9941      9944      9947      9944      9947      9949      9950
      9944      9947      9949      9951      9945      9944      9947      9948
      9945      9944      9947      9949      9946      9944      9947      9948
      9946      9944      9947      9949      9947      9949      9951      9952
      9947      9949      9951      9953      9947      9949      9951      9954
      9948      9947      9949      9950      9948      9947      9949      9951
      9949      9951      9954      9955      9949      9951      9954      9956
      9949      9951      9954      9957      9950      9949      9951      9952
      9950      9949      9951      9953      9950      9949      9951      9954
      9951      9954      9957      9958      9951      9954      9957      9959
      9951      9954      9957      9960      9952      9951      9954      9955
      9952      9951      9954      9956      9952      9951      9954      9957
      9953      9951      9954      9955      9953      9951      9954      9956
      9953      9951      9954      9957      9954      9957      9960      9961
      9954      9957      9960      9962      9954      9957      9960      9963
      9955      9954      9957      9958      9955      9954      9957      9959
      9955      9954      9957      9960      9956      9954      9957      9958
      9956      9954      9957      9959      9956      9954      9957      9960
      9957      9960      9963      9964      9957      9960      9963      9965
      9957      9960      9963      9966      9958      9957      9960      9961
      9958      9957      9960      9962      9958      9957      9960      9963
      9959      9957      9960      9961      9959      9957      9960      9962
      9959      9957      9960      9963      9960      9963      9966      9967
      9960      9963      9966      9968      9960      9963      9966      9969
      9961      9960      9963      9964      9961      9960      9963      9965
      9961      9960      9963      9966      9962      9960      9963      9964
      9962      9960      9963      9965      9962      9960      9963      9966
      9963      9966      9969      9970      9963      9966      9969      9971
      9963      9966      9969      9972      9964      9963      9966      9967
      9964      9963      9966      9968      9964      9963      9966      9969
      9965      9963      9966      9967      9965      9963      9966      9968
      9965      9963      9966      9969      9966      9969      9972      9973
      9966      9969      9972      9974      9966      9969      9972      9975
      9967      9966      9969      9970      9967      9966      9969      9971
      9967      9966      9969      9972      9968      9966      9969      9970
      9968      9966      9969      9971      9968      9966      9969      9972
      9970      9969      9972      9973      9970      9969      9972      9974
      9970      9969      9972      9975      9971      9969      9972      9973
      9971      9969      9972      9974      9971      9969      9972      9975
      9976      9979      9982      9983      9976      9979      9982      9984
      9976      9979      9982      9985      9977      9976      9979      9980
      9977      9976      9979      9981      9977      9976      9979      9982
      9978      9976      9979      9980      9978      9976      9979      9981
      9978      9976      9979      9982      9979      9982      9985      9986
      9979      9982      9985      9987      9979      9982      9985      9988
      9980      9979      9982      9983      9980      9979      9982      9984
      9980      9979      9982      9985      9981      9979      9982      9983
      9981      9979      9982      9984      9981      9979      9982      9985
      9982      9985      9988      9989      9982      9985      9988      9990
      9982      9985      9988      9991      9983      9982      9985      9986
      9983      9982      9985      9987      9983      9982      9985      9988
      9984      9982      9985      9986      9984      9982      9985      9987
      9984      9982      9985      9988      9985      9988      9991      9992
      9985      9988      9991      9993      9985      9988      9991      9994
      9986      9985      9988      9989      9986      9985      9988      9990
      9986      9985      9988      9991      9987      9985      9988      9989
      9987      9985      9988      9990      9987      9985      9988      9991
      9988      9991      9994      9995      9988      9991      9994      9996
      9989      9988      9991      9992      9989      9988      9991      9993
      9989      9988      9991      9994      9990      9988      9991      9992
      9990      9988      9991      9993      9990      9988      9991      9994
      9991      9994      9996      9997      9991      9994      9996      9998
      9992      9991      9994      9995      9992      9991      9994      9996
      9993      9991      9994      9995      9993      9991      9994      9996
      9994      9996      9998      9999      9994      9996      9998     10000
      9994      9996      9998     10001      9995      9994      9996      9997
      9995      9994      9996      9998      9996      9998     10001     10002
      9996      9998     10001     10003      9996      9998     10001     10004
      9997      9996      9998      9999      9997      9996      9998     10000
      9997      9996      9998     10001      9998     10001     10004     10005
      9998     10001     10004     10006      9998     10001     10004     10007
      9999      9998     10001     10002      9999      9998     10001     10003
      9999      9998     10001     10004     10000      9998     10001     10002
     10000      9998     10001     10003     10000      9998     10001     10004
     10001     10004     10007     10008     10001     10004     10007     10009
     10001     10004     10007     10010     10002     10001     10004     10005
     10002     10001     10004     10006     10002     10001     10004     10007
     10003     10001     10004     10005     10003     10001     10004     10006
     10003     10001     10004     10007     10004     10007     10010     10011
     10004     10007     10010     10012     10004     10007     10010     10013
     10005     10004     10007     10008     10005     10004     10007     10009
     10005     10004     10007     10010     10006     10004     10007     10008
     10006     10004     10007     10009     10006     10004     10007     10010
     10007     10010     10013     10014     10007     10010     10013     10015
     10007     10010     10013     10016     10008     10007     10010     10011
     10008     10007     10010     10012     10008     10007     10010     10013
     10009     10007     10010     10011     10009     10007     10010     10012
     10009     10007     10010     10013     10010     10013     10016     10017
     10010     10013     10016     10018     10010     10013     10016     10019
     10011     10010     10013     10014     10011     10010     10013     10015
     10011     10010     10013     10016     10012     10010     10013     10014
     10012     10010     10013     10015     10012     10010     10013     10016
     10013     10016     10019     10020     10013     10016     10019     10021
     10013     10016     10019     10022     10014     10013     10016     10017
     10014     10013     10016     10018     10014     10013     10016     10019
     10015     10013     10016     10017     10015     10013     10016     10018
     10015     10013     10016     10019     10017     10016     10019     10020
     10017     10016     10019     10021     10017     10016     10019     10022
     10018     10016     10019     10020     10018     10016     10019     10021
     10018     10016     10019     10022     10023     10024     10039     10040
     10023     10024     10039     10041     10023     10024     10039     10045
     10024     10023     10027     10028     10024     10023     10027     10029
     10024     10023     10027     10030     10024     10023     10031     10032
     10024     10023     10031     10033     10024     10023     10031     10034
     10024     10023     10035     10036     10024     10023     10035     10037
     10024     10023     10035     10038     10024     10039     10045     10042
     10025     10024     10023     10027     10025     10024     10023     10031
     10025     10024     10023     10035     10025     10024     10039     10040
     10025     10024     10039     10041     10025     10024     10039     10045
     10026     10024     10023     10027     10026     10024     10023     10031
     10026     10024     10023     10035     10026     10024     10039     10040
     10026     10024     10039     10041     10026     10024     10039     10045
     10027     10023     10024     10039     10027     10023     10031     10032
     10027     10023     10031     10033     10027     10023     10031     10034
     10027     10023     10035     10036     10027     10023     10035     10037
     10027     10023     10035     10038     10028     10027     10023     10031
     10028     10027     10023     10035     10029     10027     10023     10031
     10029     10027     10023     10035     10030     10027     10023     10031
     10030     10027     10023     10035     10031     10023     10024     10039
     10031     10023     10035     10036     10031     10023     10035     10037
     10031     10023     10035     10038     10032     10031     10023     10035
     10033     10031     10023     10035     10034     10031     10023     10035
     10035     10023     10024     10039     10039     10045     10042     10043
     10039     10045     10042     10044     10039     10045     10042     10046
     10040     10039     10045     10042     10041     10039     10045     10042
     10042     10046     10047     10048     10042     10046     10047     10049
     10042     10046     10047     10050     10043     10042     10046     10047
     10044     10042     10046     10047     10045     10042     10046     10047
     10046     10047     10050     10051     10046     10047     10050     10052
     10046     10047     10050     10058     10047     10050     10052     10053
     10047     10050     10058     10059     10047     10050     10058     10060
     10047     10050     10058     10061     10048     10047     10050     10051
     10048     10047     10050     10052     10048     10047     10050     10058
     10049     10047     10050     10051     10049     10047     10050     10052
     10049     10047     10050     10058     10050     10052     10053     10054
     10050     10052     10053     10055     10050     10058     10061     10062
     10051     10050     10052     10053     10051     10050     10058     10059
     10051     10050     10058     10060     10051     10050     10058     10061
     10052     10050     10058     10059     10052     10050     10058     10060
     10052     10050     10058     10061     10052     10053     10055     10056
     10052     10053     10055     10057     10052     10053     10055     10067
     10053     10052     10050     10058     10053     10055     10067     10068
     10053     10055     10067     10069     10053     10055     10067     10070
     10054     10053     10055     10056     10054     10053     10055     10057
     10054     10053     10055     10067     10055     10067     10070     10071
     10055     10067     10070     10072     10055     10067     10070     10073
     10056     10055     10067     10068     10056     10055     10067     10069
     10056     10055     10067     10070     10057     10055     10067     10068
     10057     10055     10067     10069     10057     10055     10067     10070
     10058     10061     10062     10063     10058     10061     10062     10064
     10059     10058     10061     10062     10060     10058     10061     10062
     10061     10062     10064     10065     10061     10062     10064     10066
     10061     10062     10064     10114     10062     10064     10114     10115
     10062     10064     10114     10116     10062     10064     10114     10117
     10063     10062     10064     10065     10063     10062     10064     10066
     10063     10062     10064     10114     10064     10114     10117     10118
     10064     10114     10117     10119     10064     10114     10117     10120
     10065     10064     10114     10115     10065     10064     10114     10116
     10065     10064     10114     10117     10066     10064     10114     10115
     10066     10064     10114     10116     10066     10064     10114     10117
     10067     10070     10073     10074     10067     10070     10073     10075
     10067     10070     10073     10076     10068     10067     10070     10071
     10068     10067     10070     10072     10068     10067     10070     10073
     10069     10067     10070     10071     10069     10067     10070     10072
     10069     10067     10070     10073     10070     10073     10076     10077
     10070     10073     10076     10078     10070     10073     10076     10079
     10071     10070     10073     10074     10071     10070     10073     10075
     10071     10070     10073     10076     10072     10070     10073     10074
     10072     10070     10073     10075     10072     10070     10073     10076
     10073     10076     10079     10080     10073     10076     10079     10081
     10073     10076     10079     10082     10074     10073     10076     10077
     10074     10073     10076     10078     10074     10073     10076     10079
     10075     10073     10076     10077     10075     10073     10076     10078
     10075     10073     10076     10079     10076     10079     10082     10083
     10076     10079     10082     10084     10076     10079     10082     10085
     10077     10076     10079     10080     10077     10076     10079     10081
     10077     10076     10079     10082     10078     10076     10079     10080
     10078     10076     10079     10081     10078     10076     10079     10082
     10079     10082     10085     10086     10079     10082     10085     10087
     10080     10079     10082     10083     10080     10079     10082     10084
     10080     10079     10082     10085     10081     10079     10082     10083
     10081     10079     10082     10084     10081     10079     10082     10085
     10082     10085     10087     10088     10082     10085     10087     10089
     10083     10082     10085     10086     10083     10082     10085     10087
     10084     10082     10085     10086     10084     10082     10085     10087
     10085     10087     10089     10090     10085     10087     10089     10091
     10085     10087     10089     10092     10086     10085     10087     10088
     10086     10085     10087     10089     10087     10089     10092     10093
     10087     10089     10092     10094     10087     10089     10092     10095
     10088     10087     10089     10090     10088     10087     10089     10091
     10088     10087     10089     10092     10089     10092     10095     10096
     10089     10092     10095     10097     10089     10092     10095     10098
     10090     10089     10092     10093     10090     10089     10092     10094
     10090     10089     10092     10095     10091     10089     10092     10093
     10091     10089     10092     10094     10091     10089     10092     10095
     10092     10095     10098     10099     10092     10095     10098     10100
     10092     10095     10098     10101     10093     10092     10095     10096
     10093     10092     10095     10097     10093     10092     10095     10098
     10094     10092     10095     10096     10094     10092     10095     10097
     10094     10092     10095     10098     10095     10098     10101     10102
     10095     10098     10101     10103     10095     10098     10101     10104
     10096     10095     10098     10099     10096     10095     10098     10100
     10096     10095     10098     10101     10097     10095     10098     10099
     10097     10095     10098     10100     10097     10095     10098     10101
     10098     10101     10104     10105     10098     10101     10104     10106
     10098     10101     10104     10107     10099     10098     10101     10102
     10099     10098     10101     10103     10099     10098     10101     10104
     10100     10098     10101     10102     10100     10098     10101     10103
     10100     10098     10101     10104     10101     10104     10107     10108
     10101     10104     10107     10109     10101     10104     10107     10110
     10102     10101     10104     10105     10102     10101     10104     10106
     10102     10101     10104     10107     10103     10101     10104     10105
     10103     10101     10104     10106     10103     10101     10104     10107
     10104     10107     10110     10111     10104     10107     10110     10112
     10104     10107     10110     10113     10105     10104     10107     10108
     10105     10104     10107     10109     10105     10104     10107     10110
     10106     10104     10107     10108     10106     10104     10107     10109
     10106     10104     10107     10110     10108     10107     10110     10111
     10108     10107     10110     10112     10108     10107     10110     10113
     10109     10107     10110     10111     10109     10107     10110     10112
     10109     10107     10110     10113     10114     10117     10120     10121
     10114     10117     10120     10122     10114     10117     10120     10123
     10115     10114     10117     10118     10115     10114     10117     10119
     10115     10114     10117     10120     10116     10114     10117     10118
     10116     10114     10117     10119     10116     10114     10117     10120
     10117     10120     10123     10124     10117     10120     10123     10125
     10117     10120     10123     10126     10118     10117     10120     10121
     10118     10117     10120     10122     10118     10117     10120     10123
     10119     10117     10120     10121     10119     10117     10120     10122
     10119     10117     10120     10123     10120     10123     10126     10127
     10120     10123     10126     10128     10120     10123     10126     10129
     10121     10120     10123     10124     10121     10120     10123     10125
     10121     10120     10123     10126     10122     10120     10123     10124
     10122     10120     10123     10125     10122     10120     10123     10126
     10123     10126     10129     10130     10123     10126     10129     10131
     10123     10126     10129     10132     10124     10123     10126     10127
     10124     10123     10126     10128     10124     10123     10126     10129
     10125     10123     10126     10127     10125     10123     10126     10128
     10125     10123     10126     10129     10126     10129     10132     10133
     10126     10129     10132     10134     10127     10126     10129     10130
     10127     10126     10129     10131     10127     10126     10129     10132
     10128     10126     10129     10130     10128     10126     10129     10131
     10128     10126     10129     10132     10129     10132     10134     10135
     10129     10132     10134     10136     10130     10129     10132     10133
     10130     10129     10132     10134     10131     10129     10132     10133
     10131     10129     10132     10134     10132     10134     10136     10137
     10132     10134     10136     10138     10132     10134     10136     10139
     10133     10132     10134     10135     10133     10132     10134     10136
     10134     10136     10139     10140     10134     10136     10139     10141
     10134     10136     10139     10142     10135     10134     10136     10137
     10135     10134     10136     10138     10135     10134     10136     10139
     10136     10139     10142     10143     10136     10139     10142     10144
     10136     10139     10142     10145     10137     10136     10139     10140
     10137     10136     10139     10141     10137     10136     10139     10142
     10138     10136     10139     10140     10138     10136     10139     10141
     10138     10136     10139     10142     10139     10142     10145     10146
     10139     10142     10145     10147     10139     10142     10145     10148
     10140     10139     10142     10143     10140     10139     10142     10144
     10140     10139     10142     10145     10141     10139     10142     10143
     10141     10139     10142     10144     10141     10139     10142     10145
     10142     10145     10148     10149     10142     10145     10148     10150
     10142     10145     10148     10151     10143     10142     10145     10146
     10143     10142     10145     10147     10143     10142     10145     10148
     10144     10142     10145     10146     10144     10142     10145     10147
     10144     10142     10145     10148     10145     10148     10151     10152
     10145     10148     10151     10153     10145     10148     10151     10154
     10146     10145     10148     10149     10146     10145     10148     10150
     10146     10145     10148     10151     10147     10145     10148     10149
     10147     10145     10148     10150     10147     10145     10148     10151
     10148     10151     10154     10155     10148     10151     10154     10156
     10148     10151     10154     10157     10149     10148     10151     10152
     10149     10148     10151     10153     10149     10148     10151     10154
     10150     10148     10151     10152     10150     10148     10151     10153
     10150     10148     10151     10154     10151     10154     10157     10158
     10151     10154     10157     10159     10151     10154     10157     10160
     10152     10151     10154     10155     10152     10151     10154     10156
     10152     10151     10154     10157     10153     10151     10154     10155
     10153     10151     10154     10156     10153     10151     10154     10157
     10155     10154     10157     10158     10155     10154     10157     10159
     10155     10154     10157     10160     10156     10154     10157     10158
     10156     10154     10157     10159     10156     10154     10157     10160
     10161     10162     10177     10178     10161     10162     10177     10179
     10161     10162     10177     10183     10162     10161     10165     10166
     10162     10161     10165     10167     10162     10161     10165     10168
     10162     10161     10169     10170     10162     10161     10169     10171
     10162     10161     10169     10172     10162     10161     10173     10174
     10162     10161     10173     10175     10162     10161     10173     10176
     10162     10177     10183     10180     10163     10162     10161     10165
     10163     10162     10161     10169     10163     10162     10161     10173
     10163     10162     10177     10178     10163     10162     10177     10179
     10163     10162     10177     10183     10164     10162     10161     10165
     10164     10162     10161     10169     10164     10162     10161     10173
     10164     10162     10177     10178     10164     10162     10177     10179
     10164     10162     10177     10183     10165     10161     10162     10177
     10165     10161     10169     10170     10165     10161     10169     10171
     10165     10161     10169     10172     10165     10161     10173     10174
     10165     10161     10173     10175     10165     10161     10173     10176
     10166     10165     10161     10169     10166     10165     10161     10173
     10167     10165     10161     10169     10167     10165     10161     10173
     10168     10165     10161     10169     10168     10165     10161     10173
     10169     10161     10162     10177     10169     10161     10173     10174
     10169     10161     10173     10175     10169     10161     10173     10176
     10170     10169     10161     10173     10171     10169     10161     10173
     10172     10169     10161     10173     10173     10161     10162     10177
     10177     10183     10180     10181     10177     10183     10180     10182
     10177     10183     10180     10184     10178     10177     10183     10180
     10179     10177     10183     10180     10180     10184     10185     10186
     10180     10184     10185     10187     10180     10184     10185     10188
     10181     10180     10184     10185     10182     10180     10184     10185
     10183     10180     10184     10185     10184     10185     10188     10189
     10184     10185     10188     10190     10184     10185     10188     10196
     10185     10188     10190     10191     10185     10188     10196     10197
     10185     10188     10196     10198     10185     10188     10196     10199
     10186     10185     10188     10189     10186     10185     10188     10190
     10186     10185     10188     10196     10187     10185     10188     10189
     10187     10185     10188     10190     10187     10185     10188     10196
     10188     10190     10191     10192     10188     10190     10191     10193
     10188     10196     10199     10200     10189     10188     10190     10191
     10189     10188     10196     10197     10189     10188     10196     10198
     10189     10188     10196     10199     10190     10188     10196     10197
     10190     10188     10196     10198     10190     10188     10196     10199
     10190     10191     10193     10194     10190     10191     10193     10195
     10190     10191     10193     10205     10191     10190     10188     10196
     10191     10193     10205     10206     10191     10193     10205     10207
     10191     10193     10205     10208     10192     10191     10193     10194
     10192     10191     10193     10195     10192     10191     10193     10205
     10193     10205     10208     10209     10193     10205     10208     10210
     10193     10205     10208     10211     10194     10193     10205     10206
     10194     10193     10205     10207     10194     10193     10205     10208
     10195     10193     10205     10206     10195     10193     10205     10207
     10195     10193     10205     10208     10196     10199     10200     10201
     10196     10199     10200     10202     10197     10196     10199     10200
     10198     10196     10199     10200     10199     10200     10202     10203
     10199     10200     10202     10204     10199     10200     10202     10252
     10200     10202     10252     10253     10200     10202     10252     10254
     10200     10202     10252     10255     10201     10200     10202     10203
     10201     10200     10202     10204     10201     10200     10202     10252
     10202     10252     10255     10256     10202     10252     10255     10257
     10202     10252     10255     10258     10203     10202     10252     10253
     10203     10202     10252     10254     10203     10202     10252     10255
     10204     10202     10252     10253     10204     10202     10252     10254
     10204     10202     10252     10255     10205     10208     10211     10212
     10205     10208     10211     10213     10205     10208     10211     10214
     10206     10205     10208     10209     10206     10205     10208     10210
     10206     10205     10208     10211     10207     10205     10208     10209
     10207     10205     10208     10210     10207     10205     10208     10211
     10208     10211     10214     10215     10208     10211     10214     10216
     10208     10211     10214     10217     10209     10208     10211     10212
     10209     10208     10211     10213     10209     10208     10211     10214
     10210     10208     10211     10212     10210     10208     10211     10213
     10210     10208     10211     10214     10211     10214     10217     10218
     10211     10214     10217     10219     10211     10214     10217     10220
     10212     10211     10214     10215     10212     10211     10214     10216
     10212     10211     10214     10217     10213     10211     10214     10215
     10213     10211     10214     10216     10213     10211     10214     10217
     10214     10217     10220     10221     10214     10217     10220     10222
     10214     10217     10220     10223     10215     10214     10217     10218
     10215     10214     10217     10219     10215     10214     10217     10220
     10216     10214     10217     10218     10216     10214     10217     10219
     10216     10214     10217     10220     10217     10220     10223     10224
     10217     10220     10223     10225     10218     10217     10220     10221
     10218     10217     10220     10222     10218     10217     10220     10223
     10219     10217     10220     10221     10219     10217     10220     10222
     10219     10217     10220     10223     10220     10223     10225     10226
     10220     10223     10225     10227     10221     10220     10223     10224
     10221     10220     10223     10225     10222     10220     10223     10224
     10222     10220     10223     10225     10223     10225     10227     10228
     10223     10225     10227     10229     10223     10225     10227     10230
     10224     10223     10225     10226     10224     10223     10225     10227
     10225     10227     10230     10231     10225     10227     10230     10232
     10225     10227     10230     10233     10226     10225     10227     10228
     10226     10225     10227     10229     10226     10225     10227     10230
     10227     10230     10233     10234     10227     10230     10233     10235
     10227     10230     10233     10236     10228     10227     10230     10231
     10228     10227     10230     10232     10228     10227     10230     10233
     10229     10227     10230     10231     10229     10227     10230     10232
     10229     10227     10230     10233     10230     10233     10236     10237
     10230     10233     10236     10238     10230     10233     10236     10239
     10231     10230     10233     10234     10231     10230     10233     10235
     10231     10230     10233     10236     10232     10230     10233     10234
     10232     10230     10233     10235     10232     10230     10233     10236
     10233     10236     10239     10240     10233     10236     10239     10241
     10233     10236     10239     10242     10234     10233     10236     10237
     10234     10233     10236     10238     10234     10233     10236     10239
     10235     10233     10236     10237     10235     10233     10236     10238
     10235     10233     10236     10239     10236     10239     10242     10243
     10236     10239     10242     10244     10236     10239     10242     10245
     10237     10236     10239     10240     10237     10236     10239     10241
     10237     10236     10239     10242     10238     10236     10239     10240
     10238     10236     10239     10241     10238     10236     10239     10242
     10239     10242     10245     10246     10239     10242     10245     10247
     10239     10242     10245     10248     10240     10239     10242     10243
     10240     10239     10242     10244     10240     10239     10242     10245
     10241     10239     10242     10243     10241     10239     10242     10244
     10241     10239     10242     10245     10242     10245     10248     10249
     10242     10245     10248     10250     10242     10245     10248     10251
     10243     10242     10245     10246     10243     10242     10245     10247
     10243     10242     10245     10248     10244     10242     10245     10246
     10244     10242     10245     10247     10244     10242     10245     10248
     10246     10245     10248     10249     10246     10245     10248     10250
     10246     10245     10248     10251     10247     10245     10248     10249
     10247     10245     10248     10250     10247     10245     10248     10251
     10252     10255     10258     10259     10252     10255     10258     10260
     10252     10255     10258     10261     10253     10252     10255     10256
     10253     10252     10255     10257     10253     10252     10255     10258
     10254     10252     10255     10256     10254     10252     10255     10257
     10254     10252     10255     10258     10255     10258     10261     10262
     10255     10258     10261     10263     10255     10258     10261     10264
     10256     10255     10258     10259     10256     10255     10258     10260
     10256     10255     10258     10261     10257     10255     10258     10259
     10257     10255     10258     10260     10257     10255     10258     10261
     10258     10261     10264     10265     10258     10261     10264     10266
     10258     10261     10264     10267     10259     10258     10261     10262
     10259     10258     10261     10263     10259     10258     10261     10264
     10260     10258     10261     10262     10260     10258     10261     10263
     10260     10258     10261     10264     10261     10264     10267     10268
     10261     10264     10267     10269     10261     10264     10267     10270
     10262     10261     10264     10265     10262     10261     10264     10266
     10262     10261     10264     10267     10263     10261     10264     10265
     10263     10261     10264     10266     10263     10261     10264     10267
     10264     10267     10270     10271     10264     10267     10270     10272
     10265     10264     10267     10268     10265     10264     10267     10269
     10265     10264     10267     10270     10266     10264     10267     10268
     10266     10264     10267     10269     10266     10264     10267     10270
     10267     10270     10272     10273     10267     10270     10272     10274
     10268     10267     10270     10271     10268     10267     10270     10272
     10269     10267     10270     10271     10269     10267     10270     10272
     10270     10272     10274     10275     10270     10272     10274     10276
     10270     10272     10274     10277     10271     10270     10272     10273
     10271     10270     10272     10274     10272     10274     10277     10278
     10272     10274     10277     10279     10272     10274     10277     10280
     10273     10272     10274     10275     10273     10272     10274     10276
     10273     10272     10274     10277     10274     10277     10280     10281
     10274     10277     10280     10282     10274     10277     10280     10283
     10275     10274     10277     10278     10275     10274     10277     10279
     10275     10274     10277     10280     10276     10274     10277     10278
     10276     10274     10277     10279     10276     10274     10277     10280
     10277     10280     10283     10284     10277     10280     10283     10285
     10277     10280     10283     10286     10278     10277     10280     10281
     10278     10277     10280     10282     10278     10277     10280     10283
     10279     10277     10280     10281     10279     10277     10280     10282
     10279     10277     10280     10283     10280     10283     10286     10287
     10280     10283     10286     10288     10280     10283     10286     10289
     10281     10280     10283     10284     10281     10280     10283     10285
     10281     10280     10283     10286     10282     10280     10283     10284
     10282     10280     10283     10285     10282     10280     10283     10286
     10283     10286     10289     10290     10283     10286     10289     10291
     10283     10286     10289     10292     10284     10283     10286     10287
     10284     10283     10286     10288     10284     10283     10286     10289
     10285     10283     10286     10287     10285     10283     10286     10288
     10285     10283     10286     10289     10286     10289     10292     10293
     10286     10289     10292     10294     10286     10289     10292     10295
     10287     10286     10289     10290     10287     10286     10289     10291
     10287     10286     10289     10292     10288     10286     10289     10290
     10288     10286     10289     10291     10288     10286     10289     10292
     10289     10292     10295     10296     10289     10292     10295     10297
     10289     10292     10295     10298     10290     10289     10292     10293
     10290     10289     10292     10294     10290     10289     10292     10295
     10291     10289     10292     10293     10291     10289     10292     10294
     10291     10289     10292     10295     10293     10292     10295     10296
     10293     10292     10295     10297     10293     10292     10295     10298
     10294     10292     10295     10296     10294     10292     10295     10297
     10294     10292     10295     10298     10299     10300     10315     10316
     10299     10300     10315     10317     10299     10300     10315     10321
     10300     10299     10303     10304     10300     10299     10303     10305
     10300     10299     10303     10306     10300     10299     10307     10308
     10300     10299     10307     10309     10300     10299     10307     10310
     10300     10299     10311     10312     10300     10299     10311     10313
     10300     10299     10311     10314     10300     10315     10321     10318
     10301     10300     10299     10303     10301     10300     10299     10307
     10301     10300     10299     10311     10301     10300     10315     10316
     10301     10300     10315     10317     10301     10300     10315     10321
     10302     10300     10299     10303     10302     10300     10299     10307
     10302     10300     10299     10311     10302     10300     10315     10316
     10302     10300     10315     10317     10302     10300     10315     10321
     10303     10299     10300     10315     10303     10299     10307     10308
     10303     10299     10307     10309     10303     10299     10307     10310
     10303     10299     10311     10312     10303     10299     10311     10313
     10303     10299     10311     10314     10304     10303     10299     10307
     10304     10303     10299     10311     10305     10303     10299     10307
     10305     10303     10299     10311     10306     10303     10299     10307
     10306     10303     10299     10311     10307     10299     10300     10315
     10307     10299     10311     10312     10307     10299     10311     10313
     10307     10299     10311     10314     10308     10307     10299     10311
     10309     10307     10299     10311     10310     10307     10299     10311
     10311     10299     10300     10315     10315     10321     10318     10319
     10315     10321     10318     10320     10315     10321     10318     10322
     10316     10315     10321     10318     10317     10315     10321     10318
     10318     10322     10323     10324     10318     10322     10323     10325
     10318     10322     10323     10326     10319     10318     10322     10323
     10320     10318     10322     10323     10321     10318     10322     10323
     10322     10323     10326     10327     10322     10323     10326     10328
     10322     10323     10326     10334     10323     10326     10328     10329
     10323     10326     10334     10335     10323     10326     10334     10336
     10323     10326     10334     10337     10324     10323     10326     10327
     10324     10323     10326     10328     10324     10323     10326     10334
     10325     10323     10326     10327     10325     10323     10326     10328
     10325     10323     10326     10334     10326     10328     10329     10330
     10326     10328     10329     10331     10326     10334     10337     10338
     10327     10326     10328     10329     10327     10326     10334     10335
     10327     10326     10334     10336     10327     10326     10334     10337
     10328     10326     10334     10335     10328     10326     10334     10336
     10328     10326     10334     10337     10328     10329     10331     10332
     10328     10329     10331     10333     10328     10329     10331     10343
     10329     10328     10326     10334     10329     10331     10343     10344
     10329     10331     10343     10345     10329     10331     10343     10346
     10330     10329     10331     10332     10330     10329     10331     10333
     10330     10329     10331     10343     10331     10343     10346     10347
     10331     10343     10346     10348     10331     10343     10346     10349
     10332     10331     10343     10344     10332     10331     10343     10345
     10332     10331     10343     10346     10333     10331     10343     10344
     10333     10331     10343     10345     10333     10331     10343     10346
     10334     10337     10338     10339     10334     10337     10338     10340
     10335     10334     10337     10338     10336     10334     10337     10338
     10337     10338     10340     10341     10337     10338     10340     10342
     10337     10338     10340     10390     10338     10340     10390     10391
     10338     10340     10390     10392     10338     10340     10390     10393
     10339     10338     10340     10341     10339     10338     10340     10342
     10339     10338     10340     10390     10340     10390     10393     10394
     10340     10390     10393     10395     10340     10390     10393     10396
     10341     10340     10390     10391     10341     10340     10390     10392
     10341     10340     10390     10393     10342     10340     10390     10391
     10342     10340     10390     10392     10342     10340     10390     10393
     10343     10346     10349     10350     10343     10346     10349     10351
     10343     10346     10349     10352     10344     10343     10346     10347
     10344     10343     10346     10348     10344     10343     10346     10349
     10345     10343     10346     10347     10345     10343     10346     10348
     10345     10343     10346     10349     10346     10349     10352     10353
     10346     10349     10352     10354     10346     10349     10352     10355
     10347     10346     10349     10350     10347     10346     10349     10351
     10347     10346     10349     10352     10348     10346     10349     10350
     10348     10346     10349     10351     10348     10346     10349     10352
     10349     10352     10355     10356     10349     10352     10355     10357
     10349     10352     10355     10358     10350     10349     10352     10353
     10350     10349     10352     10354     10350     10349     10352     10355
     10351     10349     10352     10353     10351     10349     10352     10354
     10351     10349     10352     10355     10352     10355     10358     10359
     10352     10355     10358     10360     10352     10355     10358     10361
     10353     10352     10355     10356     10353     10352     10355     10357
     10353     10352     10355     10358     10354     10352     10355     10356
     10354     10352     10355     10357     10354     10352     10355     10358
     10355     10358     10361     10362     10355     10358     10361     10363
     10356     10355     10358     10359     10356     10355     10358     10360
     10356     10355     10358     10361     10357     10355     10358     10359
     10357     10355     10358     10360     10357     10355     10358     10361
     10358     10361     10363     10364     10358     10361     10363     10365
     10359     10358     10361     10362     10359     10358     10361     10363
     10360     10358     10361     10362     10360     10358     10361     10363
     10361     10363     10365     10366     10361     10363     10365     10367
     10361     10363     10365     10368     10362     10361     10363     10364
     10362     10361     10363     10365     10363     10365     10368     10369
     10363     10365     10368     10370     10363     10365     10368     10371
     10364     10363     10365     10366     10364     10363     10365     10367
     10364     10363     10365     10368     10365     10368     10371     10372
     10365     10368     10371     10373     10365     10368     10371     10374
     10366     10365     10368     10369     10366     10365     10368     10370
     10366     10365     10368     10371     10367     10365     10368     10369
     10367     10365     10368     10370     10367     10365     10368     10371
     10368     10371     10374     10375     10368     10371     10374     10376
     10368     10371     10374     10377     10369     10368     10371     10372
     10369     10368     10371     10373     10369     10368     10371     10374
     10370     10368     10371     10372     10370     10368     10371     10373
     10370     10368     10371     10374     10371     10374     10377     10378
     10371     10374     10377     10379     10371     10374     10377     10380
     10372     10371     10374     10375     10372     10371     10374     10376
     10372     10371     10374     10377     10373     10371     10374     10375
     10373     10371     10374     10376     10373     10371     10374     10377
     10374     10377     10380     10381     10374     10377     10380     10382
     10374     10377     10380     10383     10375     10374     10377     10378
     10375     10374     10377     10379     10375     10374     10377     10380
     10376     10374     10377     10378     10376     10374     10377     10379
     10376     10374     10377     10380     10377     10380     10383     10384
     10377     10380     10383     10385     10377     10380     10383     10386
     10378     10377     10380     10381     10378     10377     10380     10382
     10378     10377     10380     10383     10379     10377     10380     10381
     10379     10377     10380     10382     10379     10377     10380     10383
     10380     10383     10386     10387     10380     10383     10386     10388
     10380     10383     10386     10389     10381     10380     10383     10384
     10381     10380     10383     10385     10381     10380     10383     10386
     10382     10380     10383     10384     10382     10380     10383     10385
     10382     10380     10383     10386     10384     10383     10386     10387
     10384     10383     10386     10388     10384     10383     10386     10389
     10385     10383     10386     10387     10385     10383     10386     10388
     10385     10383     10386     10389     10390     10393     10396     10397
     10390     10393     10396     10398     10390     10393     10396     10399
     10391     10390     10393     10394     10391     10390     10393     10395
     10391     10390     10393     10396     10392     10390     10393     10394
     10392     10390     10393     10395     10392     10390     10393     10396
     10393     10396     10399     10400     10393     10396     10399     10401
     10393     10396     10399     10402     10394     10393     10396     10397
     10394     10393     10396     10398     10394     10393     10396     10399
     10395     10393     10396     10397     10395     10393     10396     10398
     10395     10393     10396     10399     10396     10399     10402     10403
     10396     10399     10402     10404     10396     10399     10402     10405
     10397     10396     10399     10400     10397     10396     10399     10401
     10397     10396     10399     10402     10398     10396     10399     10400
     10398     10396     10399     10401     10398     10396     10399     10402
     10399     10402     10405     10406     10399     10402     10405     10407
     10399     10402     10405     10408     10400     10399     10402     10403
     10400     10399     10402     10404     10400     10399     10402     10405
     10401     10399     10402     10403     10401     10399     10402     10404
     10401     10399     10402     10405     10402     10405     10408     10409
     10402     10405     10408     10410     10403     10402     10405     10406
     10403     10402     10405     10407     10403     10402     10405     10408
     10404     10402     10405     10406     10404     10402     10405     10407
     10404     10402     10405     10408     10405     10408     10410     10411
     10405     10408     10410     10412     10406     10405     10408     10409
     10406     10405     10408     10410     10407     10405     10408     10409
     10407     10405     10408     10410     10408     10410     10412     10413
     10408     10410     10412     10414     10408     10410     10412     10415
     10409     10408     10410     10411     10409     10408     10410     10412
     10410     10412     10415     10416     10410     10412     10415     10417
     10410     10412     10415     10418     10411     10410     10412     10413
     10411     10410     10412     10414     10411     10410     10412     10415
     10412     10415     10418     10419     10412     10415     10418     10420
     10412     10415     10418     10421     10413     10412     10415     10416
     10413     10412     10415     10417     10413     10412     10415     10418
     10414     10412     10415     10416     10414     10412     10415     10417
     10414     10412     10415     10418     10415     10418     10421     10422
     10415     10418     10421     10423     10415     10418     10421     10424
     10416     10415     10418     10419     10416     10415     10418     10420
     10416     10415     10418     10421     10417     10415     10418     10419
     10417     10415     10418     10420     10417     10415     10418     10421
     10418     10421     10424     10425     10418     10421     10424     10426
     10418     10421     10424     10427     10419     10418     10421     10422
     10419     10418     10421     10423     10419     10418     10421     10424
     10420     10418     10421     10422     10420     10418     10421     10423
     10420     10418     10421     10424     10421     10424     10427     10428
     10421     10424     10427     10429     10421     10424     10427     10430
     10422     10421     10424     10425     10422     10421     10424     10426
     10422     10421     10424     10427     10423     10421     10424     10425
     10423     10421     10424     10426     10423     10421     10424     10427
     10424     10427     10430     10431     10424     10427     10430     10432
     10424     10427     10430     10433     10425     10424     10427     10428
     10425     10424     10427     10429     10425     10424     10427     10430
     10426     10424     10427     10428     10426     10424     10427     10429
     10426     10424     10427     10430     10427     10430     10433     10434
     10427     10430     10433     10435     10427     10430     10433     10436
     10428     10427     10430     10431     10428     10427     10430     10432
     10428     10427     10430     10433     10429     10427     10430     10431
     10429     10427     10430     10432     10429     10427     10430     10433
     10431     10430     10433     10434     10431     10430     10433     10435
     10431     10430     10433     10436     10432     10430     10433     10434
     10432     10430     10433     10435     10432     10430     10433     10436
     10437     10438     10453     10454     10437     10438     10453     10455
     10437     10438     10453     10459     10438     10437     10441     10442
     10438     10437     10441     10443     10438     10437     10441     10444
     10438     10437     10445     10446     10438     10437     10445     10447
     10438     10437     10445     10448     10438     10437     10449     10450
     10438     10437     10449     10451     10438     10437     10449     10452
     10438     10453     10459     10456     10439     10438     10437     10441
     10439     10438     10437     10445     10439     10438     10437     10449
     10439     10438     10453     10454     10439     10438     10453     10455
     10439     10438     10453     10459     10440     10438     10437     10441
     10440     10438     10437     10445     10440     10438     10437     10449
     10440     10438     10453     10454     10440     10438     10453     10455
     10440     10438     10453     10459     10441     10437     10438     10453
     10441     10437     10445     10446     10441     10437     10445     10447
     10441     10437     10445     10448     10441     10437     10449     10450
     10441     10437     10449     10451     10441     10437     10449     10452
     10442     10441     10437     10445     10442     10441     10437     10449
     10443     10441     10437     10445     10443     10441     10437     10449
     10444     10441     10437     10445     10444     10441     10437     10449
     10445     10437     10438     10453     10445     10437     10449     10450
     10445     10437     10449     10451     10445     10437     10449     10452
     10446     10445     10437     10449     10447     10445     10437     10449
     10448     10445     10437     10449     10449     10437     10438     10453
     10453     10459     10456     10457     10453     10459     10456     10458
     10453     10459     10456     10460     10454     10453     10459     10456
     10455     10453     10459     10456     10456     10460     10461     10462
     10456     10460     10461     10463     10456     10460     10461     10464
     10457     10456     10460     10461     10458     10456     10460     10461
     10459     10456     10460     10461     10460     10461     10464     10465
     10460     10461     10464     10466     10460     10461     10464     10472
     10461     10464     10466     10467     10461     10464     10472     10473
     10461     10464     10472     10474     10461     10464     10472     10475
     10462     10461     10464     10465     10462     10461     10464     10466
     10462     10461     10464     10472     10463     10461     10464     10465
     10463     10461     10464     10466     10463     10461     10464     10472
     10464     10466     10467     10468     10464     10466     10467     10469
     10464     10472     10475     10476     10465     10464     10466     10467
     10465     10464     10472     10473     10465     10464     10472     10474
     10465     10464     10472     10475     10466     10464     10472     10473
     10466     10464     10472     10474     10466     10464     10472     10475
     10466     10467     10469     10470     10466     10467     10469     10471
     10466     10467     10469     10481     10467     10466     10464     10472
     10467     10469     10481     10482     10467     10469     10481     10483
     10467     10469     10481     10484     10468     10467     10469     10470
     10468     10467     10469     10471     10468     10467     10469     10481
     10469     10481     10484     10485     10469     10481     10484     10486
     10469     10481     10484     10487     10470     10469     10481     10482
     10470     10469     10481     10483     10470     10469     10481     10484
     10471     10469     10481     10482     10471     10469     10481     10483
     10471     10469     10481     10484     10472     10475     10476     10477
     10472     10475     10476     10478     10473     10472     10475     10476
     10474     10472     10475     10476     10475     10476     10478     10479
     10475     10476     10478     10480     10475     10476     10478     10528
     10476     10478     10528     10529     10476     10478     10528     10530
     10476     10478     10528     10531     10477     10476     10478     10479
     10477     10476     10478     10480     10477     10476     10478     10528
     10478     10528     10531     10532     10478     10528     10531     10533
     10478     10528     10531     10534     10479     10478     10528     10529
     10479     10478     10528     10530     10479     10478     10528     10531
     10480     10478     10528     10529     10480     10478     10528     10530
     10480     10478     10528     10531     10481     10484     10487     10488
     10481     10484     10487     10489     10481     10484     10487     10490
     10482     10481     10484     10485     10482     10481     10484     10486
     10482     10481     10484     10487     10483     10481     10484     10485
     10483     10481     10484     10486     10483     10481     10484     10487
     10484     10487     10490     10491     10484     10487     10490     10492
     10484     10487     10490     10493     10485     10484     10487     10488
     10485     10484     10487     10489     10485     10484     10487     10490
     10486     10484     10487     10488     10486     10484     10487     10489
     10486     10484     10487     10490     10487     10490     10493     10494
     10487     10490     10493     10495     10487     10490     10493     10496
     10488     10487     10490     10491     10488     10487     10490     10492
     10488     10487     10490     10493     10489     10487     10490     10491
     10489     10487     10490     10492     10489     10487     10490     10493
     10490     10493     10496     10497     10490     10493     10496     10498
     10490     10493     10496     10499     10491     10490     10493     10494
     10491     10490     10493     10495     10491     10490     10493     10496
     10492     10490     10493     10494     10492     10490     10493     10495
     10492     10490     10493     10496     10493     10496     10499     10500
     10493     10496     10499     10501     10494     10493     10496     10497
     10494     10493     10496     10498     10494     10493     10496     10499
     10495     10493     10496     10497     10495     10493     10496     10498
     10495     10493     10496     10499     10496     10499     10501     10502
     10496     10499     10501     10503     10497     10496     10499     10500
     10497     10496     10499     10501     10498     10496     10499     10500
     10498     10496     10499     10501     10499     10501     10503     10504
     10499     10501     10503     10505     10499     10501     10503     10506
     10500     10499     10501     10502     10500     10499     10501     10503
     10501     10503     10506     10507     10501     10503     10506     10508
     10501     10503     10506     10509     10502     10501     10503     10504
     10502     10501     10503     10505     10502     10501     10503     10506
     10503     10506     10509     10510     10503     10506     10509     10511
     10503     10506     10509     10512     10504     10503     10506     10507
     10504     10503     10506     10508     10504     10503     10506     10509
     10505     10503     10506     10507     10505     10503     10506     10508
     10505     10503     10506     10509     10506     10509     10512     10513
     10506     10509     10512     10514     10506     10509     10512     10515
     10507     10506     10509     10510     10507     10506     10509     10511
     10507     10506     10509     10512     10508     10506     10509     10510
     10508     10506     10509     10511     10508     10506     10509     10512
     10509     10512     10515     10516     10509     10512     10515     10517
     10509     10512     10515     10518     10510     10509     10512     10513
     10510     10509     10512     10514     10510     10509     10512     10515
     10511     10509     10512     10513     10511     10509     10512     10514
     10511     10509     10512     10515     10512     10515     10518     10519
     10512     10515     10518     10520     10512     10515     10518     10521
     10513     10512     10515     10516     10513     10512     10515     10517
     10513     10512     10515     10518     10514     10512     10515     10516
     10514     10512     10515     10517     10514     10512     10515     10518
     10515     10518     10521     10522     10515     10518     10521     10523
     10515     10518     10521     10524     10516     10515     10518     10519
     10516     10515     10518     10520     10516     10515     10518     10521
     10517     10515     10518     10519     10517     10515     10518     10520
     10517     10515     10518     10521     10518     10521     10524     10525
     10518     10521     10524     10526     10518     10521     10524     10527
     10519     10518     10521     10522     10519     10518     10521     10523
     10519     10518     10521     10524     10520     10518     10521     10522
     10520     10518     10521     10523     10520     10518     10521     10524
     10522     10521     10524     10525     10522     10521     10524     10526
     10522     10521     10524     10527     10523     10521     10524     10525
     10523     10521     10524     10526     10523     10521     10524     10527
     10528     10531     10534     10535     10528     10531     10534     10536
     10528     10531     10534     10537     10529     10528     10531     10532
     10529     10528     10531     10533     10529     10528     10531     10534
     10530     10528     10531     10532     10530     10528     10531     10533
     10530     10528     10531     10534     10531     10534     10537     10538
     10531     10534     10537     10539     10531     10534     10537     10540
     10532     10531     10534     10535     10532     10531     10534     10536
     10532     10531     10534     10537     10533     10531     10534     10535
     10533     10531     10534     10536     10533     10531     10534     10537
     10534     10537     10540     10541     10534     10537     10540     10542
     10534     10537     10540     10543     10535     10534     10537     10538
     10535     10534     10537     10539     10535     10534     10537     10540
     10536     10534     10537     10538     10536     10534     10537     10539
     10536     10534     10537     10540     10537     10540     10543     10544
     10537     10540     10543     10545     10537     10540     10543     10546
     10538     10537     10540     10541     10538     10537     10540     10542
     10538     10537     10540     10543     10539     10537     10540     10541
     10539     10537     10540     10542     10539     10537     10540     10543
     10540     10543     10546     10547     10540     10543     10546     10548
     10541     10540     10543     10544     10541     10540     10543     10545
     10541     10540     10543     10546     10542     10540     10543     10544
     10542     10540     10543     10545     10542     10540     10543     10546
     10543     10546     10548     10549     10543     10546     10548     10550
     10544     10543     10546     10547     10544     10543     10546     10548
     10545     10543     10546     10547     10545     10543     10546     10548
     10546     10548     10550     10551     10546     10548     10550     10552
     10546     10548     10550     10553     10547     10546     10548     10549
     10547     10546     10548     10550     10548     10550     10553     10554
     10548     10550     10553     10555     10548     10550     10553     10556
     10549     10548     10550     10551     10549     10548     10550     10552
     10549     10548     10550     10553     10550     10553     10556     10557
     10550     10553     10556     10558     10550     10553     10556     10559
     10551     10550     10553     10554     10551     10550     10553     10555
     10551     10550     10553     10556     10552     10550     10553     10554
     10552     10550     10553     10555     10552     10550     10553     10556
     10553     10556     10559     10560     10553     10556     10559     10561
     10553     10556     10559     10562     10554     10553     10556     10557
     10554     10553     10556     10558     10554     10553     10556     10559
     10555     10553     10556     10557     10555     10553     10556     10558
     10555     10553     10556     10559     10556     10559     10562     10563
     10556     10559     10562     10564     10556     10559     10562     10565
     10557     10556     10559     10560     10557     10556     10559     10561
     10557     10556     10559     10562     10558     10556     10559     10560
     10558     10556     10559     10561     10558     10556     10559     10562
     10559     10562     10565     10566     10559     10562     10565     10567
     10559     10562     10565     10568     10560     10559     10562     10563
     10560     10559     10562     10564     10560     10559     10562     10565
     10561     10559     10562     10563     10561     10559     10562     10564
     10561     10559     10562     10565     10562     10565     10568     10569
     10562     10565     10568     10570     10562     10565     10568     10571
     10563     10562     10565     10566     10563     10562     10565     10567
     10563     10562     10565     10568     10564     10562     10565     10566
     10564     10562     10565     10567     10564     10562     10565     10568
     10565     10568     10571     10572     10565     10568     10571     10573
     10565     10568     10571     10574     10566     10565     10568     10569
     10566     10565     10568     10570     10566     10565     10568     10571
     10567     10565     10568     10569     10567     10565     10568     10570
     10567     10565     10568     10571     10569     10568     10571     10572
     10569     10568     10571     10573     10569     10568     10571     10574
     10570     10568     10571     10572     10570     10568     10571     10573
     10570     10568     10571     10574     10575     10576     10591     10592
     10575     10576     10591     10593     10575     10576     10591     10597
     10576     10575     10579     10580     10576     10575     10579     10581
     10576     10575     10579     10582     10576     10575     10583     10584
     10576     10575     10583     10585     10576     10575     10583     10586
     10576     10575     10587     10588     10576     10575     10587     10589
     10576     10575     10587     10590     10576     10591     10597     10594
     10577     10576     10575     10579     10577     10576     10575     10583
     10577     10576     10575     10587     10577     10576     10591     10592
     10577     10576     10591     10593     10577     10576     10591     10597
     10578     10576     10575     10579     10578     10576     10575     10583
     10578     10576     10575     10587     10578     10576     10591     10592
     10578     10576     10591     10593     10578     10576     10591     10597
     10579     10575     10576     10591     10579     10575     10583     10584
     10579     10575     10583     10585     10579     10575     10583     10586
     10579     10575     10587     10588     10579     10575     10587     10589
     10579     10575     10587     10590     10580     10579     10575     10583
     10580     10579     10575     10587     10581     10579     10575     10583
     10581     10579     10575     10587     10582     10579     10575     10583
     10582     10579     10575     10587     10583     10575     10576     10591
     10583     10575     10587     10588     10583     10575     10587     10589
     10583     10575     10587     10590     10584     10583     10575     10587
     10585     10583     10575     10587     10586     10583     10575     10587
     10587     10575     10576     10591     10591     10597     10594     10595
     10591     10597     10594     10596     10591     10597     10594     10598
     10592     10591     10597     10594     10593     10591     10597     10594
     10594     10598     10599     10600     10594     10598     10599     10601
     10594     10598     10599     10602     10595     10594     10598     10599
     10596     10594     10598     10599     10597     10594     10598     10599
     10598     10599     10602     10603     10598     10599     10602     10604
     10598     10599     10602     10610     10599     10602     10604     10605
     10599     10602     10610     10611     10599     10602     10610     10612
     10599     10602     10610     10613     10600     10599     10602     10603
     10600     10599     10602     10604     10600     10599     10602     10610
     10601     10599     10602     10603     10601     10599     10602     10604
     10601     10599     10602     10610     10602     10604     10605     10606
     10602     10604     10605     10607     10602     10610     10613     10614
     10603     10602     10604     10605     10603     10602     10610     10611
     10603     10602     10610     10612     10603     10602     10610     10613
     10604     10602     10610     10611     10604     10602     10610     10612
     10604     10602     10610     10613     10604     10605     10607     10608
     10604     10605     10607     10609     10604     10605     10607     10619
     10605     10604     10602     10610     10605     10607     10619     10620
     10605     10607     10619     10621     10605     10607     10619     10622
     10606     10605     10607     10608     10606     10605     10607     10609
     10606     10605     10607     10619     10607     10619     10622     10623
     10607     10619     10622     10624     10607     10619     10622     10625
     10608     10607     10619     10620     10608     10607     10619     10621
     10608     10607     10619     10622     10609     10607     10619     10620
     10609     10607     10619     10621     10609     10607     10619     10622
     10610     10613     10614     10615     10610     10613     10614     10616
     10611     10610     10613     10614     10612     10610     10613     10614
     10613     10614     10616     10617     10613     10614     10616     10618
     10613     10614     10616     10666     10614     10616     10666     10667
     10614     10616     10666     10668     10614     10616     10666     10669
     10615     10614     10616     10617     10615     10614     10616     10618
     10615     10614     10616     10666     10616     10666     10669     10670
     10616     10666     10669     10671     10616     10666     10669     10672
     10617     10616     10666     10667     10617     10616     10666     10668
     10617     10616     10666     10669     10618     10616     10666     10667
     10618     10616     10666     10668     10618     10616     10666     10669
     10619     10622     10625     10626     10619     10622     10625     10627
     10619     10622     10625     10628     10620     10619     10622     10623
     10620     10619     10622     10624     10620     10619     10622     10625
     10621     10619     10622     10623     10621     10619     10622     10624
     10621     10619     10622     10625     10622     10625     10628     10629
     10622     10625     10628     10630     10622     10625     10628     10631
     10623     10622     10625     10626     10623     10622     10625     10627
     10623     10622     10625     10628     10624     10622     10625     10626
     10624     10622     10625     10627     10624     10622     10625     10628
     10625     10628     10631     10632     10625     10628     10631     10633
     10625     10628     10631     10634     10626     10625     10628     10629
     10626     10625     10628     10630     10626     10625     10628     10631
     10627     10625     10628     10629     10627     10625     10628     10630
     10627     10625     10628     10631     10628     10631     10634     10635
     10628     10631     10634     10636     10628     10631     10634     10637
     10629     10628     10631     10632     10629     10628     10631     10633
     10629     10628     10631     10634     10630     10628     10631     10632
     10630     10628     10631     10633     10630     10628     10631     10634
     10631     10634     10637     10638     10631     10634     10637     10639
     10632     10631     10634     10635     10632     10631     10634     10636
     10632     10631     10634     10637     10633     10631     10634     10635
     10633     10631     10634     10636     10633     10631     10634     10637
     10634     10637     10639     10640     10634     10637     10639     10641
     10635     10634     10637     10638     10635     10634     10637     10639
     10636     10634     10637     10638     10636     10634     10637     10639
     10637     10639     10641     10642     10637     10639     10641     10643
     10637     10639     10641     10644     10638     10637     10639     10640
     10638     10637     10639     10641     10639     10641     10644     10645
     10639     10641     10644     10646     10639     10641     10644     10647
     10640     10639     10641     10642     10640     10639     10641     10643
     10640     10639     10641     10644     10641     10644     10647     10648
     10641     10644     10647     10649     10641     10644     10647     10650
     10642     10641     10644     10645     10642     10641     10644     10646
     10642     10641     10644     10647     10643     10641     10644     10645
     10643     10641     10644     10646     10643     10641     10644     10647
     10644     10647     10650     10651     10644     10647     10650     10652
     10644     10647     10650     10653     10645     10644     10647     10648
     10645     10644     10647     10649     10645     10644     10647     10650
     10646     10644     10647     10648     10646     10644     10647     10649
     10646     10644     10647     10650     10647     10650     10653     10654
     10647     10650     10653     10655     10647     10650     10653     10656
     10648     10647     10650     10651     10648     10647     10650     10652
     10648     10647     10650     10653     10649     10647     10650     10651
     10649     10647     10650     10652     10649     10647     10650     10653
     10650     10653     10656     10657     10650     10653     10656     10658
     10650     10653     10656     10659     10651     10650     10653     10654
     10651     10650     10653     10655     10651     10650     10653     10656
     10652     10650     10653     10654     10652     10650     10653     10655
     10652     10650     10653     10656     10653     10656     10659     10660
     10653     10656     10659     10661     10653     10656     10659     10662
     10654     10653     10656     10657     10654     10653     10656     10658
     10654     10653     10656     10659     10655     10653     10656     10657
     10655     10653     10656     10658     10655     10653     10656     10659
     10656     10659     10662     10663     10656     10659     10662     10664
     10656     10659     10662     10665     10657     10656     10659     10660
     10657     10656     10659     10661     10657     10656     10659     10662
     10658     10656     10659     10660     10658     10656     10659     10661
     10658     10656     10659     10662     10660     10659     10662     10663
     10660     10659     10662     10664     10660     10659     10662     10665
     10661     10659     10662     10663     10661     10659     10662     10664
     10661     10659     10662     10665     10666     10669     10672     10673
     10666     10669     10672     10674     10666     10669     10672     10675
     10667     10666     10669     10670     10667     10666     10669     10671
     10667     10666     10669     10672     10668     10666     10669     10670
     10668     10666     10669     10671     10668     10666     10669     10672
     10669     10672     10675     10676     10669     10672     10675     10677
     10669     10672     10675     10678     10670     10669     10672     10673
     10670     10669     10672     10674     10670     10669     10672     10675
     10671     10669     10672     10673     10671     10669     10672     10674
     10671     10669     10672     10675     10672     10675     10678     10679
     10672     10675     10678     10680     10672     10675     10678     10681
     10673     10672     10675     10676     10673     10672     10675     10677
     10673     10672     10675     10678     10674     10672     10675     10676
     10674     10672     10675     10677     10674     10672     10675     10678
     10675     10678     10681     10682     10675     10678     10681     10683
     10675     10678     10681     10684     10676     10675     10678     10679
     10676     10675     10678     10680     10676     10675     10678     10681
     10677     10675     10678     10679     10677     10675     10678     10680
     10677     10675     10678     10681     10678     10681     10684     10685
     10678     10681     10684     10686     10679     10678     10681     10682
     10679     10678     10681     10683     10679     10678     10681     10684
     10680     10678     10681     10682     10680     10678     10681     10683
     10680     10678     10681     10684     10681     10684     10686     10687
     10681     10684     10686     10688     10682     10681     10684     10685
     10682     10681     10684     10686     10683     10681     10684     10685
     10683     10681     10684     10686     10684     10686     10688     10689
     10684     10686     10688     10690     10684     10686     10688     10691
     10685     10684     10686     10687     10685     10684     10686     10688
     10686     10688     10691     10692     10686     10688     10691     10693
     10686     10688     10691     10694     10687     10686     10688     10689
     10687     10686     10688     10690     10687     10686     10688     10691
     10688     10691     10694     10695     10688     10691     10694     10696
     10688     10691     10694     10697     10689     10688     10691     10692
     10689     10688     10691     10693     10689     10688     10691     10694
     10690     10688     10691     10692     10690     10688     10691     10693
     10690     10688     10691     10694     10691     10694     10697     10698
     10691     10694     10697     10699     10691     10694     10697     10700
     10692     10691     10694     10695     10692     10691     10694     10696
     10692     10691     10694     10697     10693     10691     10694     10695
     10693     10691     10694     10696     10693     10691     10694     10697
     10694     10697     10700     10701     10694     10697     10700     10702
     10694     10697     10700     10703     10695     10694     10697     10698
     10695     10694     10697     10699     10695     10694     10697     10700
     10696     10694     10697     10698     10696     10694     10697     10699
     10696     10694     10697     10700     10697     10700     10703     10704
     10697     10700     10703     10705     10697     10700     10703     10706
     10698     10697     10700     10701     10698     10697     10700     10702
     10698     10697     10700     10703     10699     10697     10700     10701
     10699     10697     10700     10702     10699     10697     10700     10703
     10700     10703     10706     10707     10700     10703     10706     10708
     10700     10703     10706     10709     10701     10700     10703     10704
     10701     10700     10703     10705     10701     10700     10703     10706
     10702     10700     10703     10704     10702     10700     10703     10705
     10702     10700     10703     10706     10703     10706     10709     10710
     10703     10706     10709     10711     10703     10706     10709     10712
     10704     10703     10706     10707     10704     10703     10706     10708
     10704     10703     10706     10709     10705     10703     10706     10707
     10705     10703     10706     10708     10705     10703     10706     10709
     10707     10706     10709     10710     10707     10706     10709     10711
     10707     10706     10709     10712     10708     10706     10709     10710
     10708     10706     10709     10711     10708     10706     10709     10712
     10713     10714     10729     10730     10713     10714     10729     10731
     10713     10714     10729     10735     10714     10713     10717     10718
     10714     10713     10717     10719     10714     10713     10717     10720
     10714     10713     10721     10722     10714     10713     10721     10723
     10714     10713     10721     10724     10714     10713     10725     10726
     10714     10713     10725     10727     10714     10713     10725     10728
     10714     10729     10735     10732     10715     10714     10713     10717
     10715     10714     10713     10721     10715     10714     10713     10725
     10715     10714     10729     10730     10715     10714     10729     10731
     10715     10714     10729     10735     10716     10714     10713     10717
     10716     10714     10713     10721     10716     10714     10713     10725
     10716     10714     10729     10730     10716     10714     10729     10731
     10716     10714     10729     10735     10717     10713     10714     10729
     10717     10713     10721     10722     10717     10713     10721     10723
     10717     10713     10721     10724     10717     10713     10725     10726
     10717     10713     10725     10727     10717     10713     10725     10728
     10718     10717     10713     10721     10718     10717     10713     10725
     10719     10717     10713     10721     10719     10717     10713     10725
     10720     10717     10713     10721     10720     10717     10713     10725
     10721     10713     10714     10729     10721     10713     10725     10726
     10721     10713     10725     10727     10721     10713     10725     10728
     10722     10721     10713     10725     10723     10721     10713     10725
     10724     10721     10713     10725     10725     10713     10714     10729
     10729     10735     10732     10733     10729     10735     10732     10734
     10729     10735     10732     10736     10730     10729     10735     10732
     10731     10729     10735     10732     10732     10736     10737     10738
     10732     10736     10737     10739     10732     10736     10737     10740
     10733     10732     10736     10737     10734     10732     10736     10737
     10735     10732     10736     10737     10736     10737     10740     10741
     10736     10737     10740     10742     10736     10737     10740     10748
     10737     10740     10742     10743     10737     10740     10748     10749
     10737     10740     10748     10750     10737     10740     10748     10751
     10738     10737     10740     10741     10738     10737     10740     10742
     10738     10737     10740     10748     10739     10737     10740     10741
     10739     10737     10740     10742     10739     10737     10740     10748
     10740     10742     10743     10744     10740     10742     10743     10745
     10740     10748     10751     10752     10741     10740     10742     10743
     10741     10740     10748     10749     10741     10740     10748     10750
     10741     10740     10748     10751     10742     10740     10748     10749
     10742     10740     10748     10750     10742     10740     10748     10751
     10742     10743     10745     10746     10742     10743     10745     10747
     10742     10743     10745     10757     10743     10742     10740     10748
     10743     10745     10757     10758     10743     10745     10757     10759
     10743     10745     10757     10760     10744     10743     10745     10746
     10744     10743     10745     10747     10744     10743     10745     10757
     10745     10757     10760     10761     10745     10757     10760     10762
     10745     10757     10760     10763     10746     10745     10757     10758
     10746     10745     10757     10759     10746     10745     10757     10760
     10747     10745     10757     10758     10747     10745     10757     10759
     10747     10745     10757     10760     10748     10751     10752     10753
     10748     10751     10752     10754     10749     10748     10751     10752
     10750     10748     10751     10752     10751     10752     10754     10755
     10751     10752     10754     10756     10751     10752     10754     10804
     10752     10754     10804     10805     10752     10754     10804     10806
     10752     10754     10804     10807     10753     10752     10754     10755
     10753     10752     10754     10756     10753     10752     10754     10804
     10754     10804     10807     10808     10754     10804     10807     10809
     10754     10804     10807     10810     10755     10754     10804     10805
     10755     10754     10804     10806     10755     10754     10804     10807
     10756     10754     10804     10805     10756     10754     10804     10806
     10756     10754     10804     10807     10757     10760     10763     10764
     10757     10760     10763     10765     10757     10760     10763     10766
     10758     10757     10760     10761     10758     10757     10760     10762
     10758     10757     10760     10763     10759     10757     10760     10761
     10759     10757     10760     10762     10759     10757     10760     10763
     10760     10763     10766     10767     10760     10763     10766     10768
     10760     10763     10766     10769     10761     10760     10763     10764
     10761     10760     10763     10765     10761     10760     10763     10766
     10762     10760     10763     10764     10762     10760     10763     10765
     10762     10760     10763     10766     10763     10766     10769     10770
     10763     10766     10769     10771     10763     10766     10769     10772
     10764     10763     10766     10767     10764     10763     10766     10768
     10764     10763     10766     10769     10765     10763     10766     10767
     10765     10763     10766     10768     10765     10763     10766     10769
     10766     10769     10772     10773     10766     10769     10772     10774
     10766     10769     10772     10775     10767     10766     10769     10770
     10767     10766     10769     10771     10767     10766     10769     10772
     10768     10766     10769     10770     10768     10766     10769     10771
     10768     10766     10769     10772     10769     10772     10775     10776
     10769     10772     10775     10777     10770     10769     10772     10773
     10770     10769     10772     10774     10770     10769     10772     10775
     10771     10769     10772     10773     10771     10769     10772     10774
     10771     10769     10772     10775     10772     10775     10777     10778
     10772     10775     10777     10779     10773     10772     10775     10776
     10773     10772     10775     10777     10774     10772     10775     10776
     10774     10772     10775     10777     10775     10777     10779     10780
     10775     10777     10779     10781     10775     10777     10779     10782
     10776     10775     10777     10778     10776     10775     10777     10779
     10777     10779     10782     10783     10777     10779     10782     10784
     10777     10779     10782     10785     10778     10777     10779     10780
     10778     10777     10779     10781     10778     10777     10779     10782
     10779     10782     10785     10786     10779     10782     10785     10787
     10779     10782     10785     10788     10780     10779     10782     10783
     10780     10779     10782     10784     10780     10779     10782     10785
     10781     10779     10782     10783     10781     10779     10782     10784
     10781     10779     10782     10785     10782     10785     10788     10789
     10782     10785     10788     10790     10782     10785     10788     10791
     10783     10782     10785     10786     10783     10782     10785     10787
     10783     10782     10785     10788     10784     10782     10785     10786
     10784     10782     10785     10787     10784     10782     10785     10788
     10785     10788     10791     10792     10785     10788     10791     10793
     10785     10788     10791     10794     10786     10785     10788     10789
     10786     10785     10788     10790     10786     10785     10788     10791
     10787     10785     10788     10789     10787     10785     10788     10790
     10787     10785     10788     10791     10788     10791     10794     10795
     10788     10791     10794     10796     10788     10791     10794     10797
     10789     10788     10791     10792     10789     10788     10791     10793
     10789     10788     10791     10794     10790     10788     10791     10792
     10790     10788     10791     10793     10790     10788     10791     10794
     10791     10794     10797     10798     10791     10794     10797     10799
     10791     10794     10797     10800     10792     10791     10794     10795
     10792     10791     10794     10796     10792     10791     10794     10797
     10793     10791     10794     10795     10793     10791     10794     10796
     10793     10791     10794     10797     10794     10797     10800     10801
     10794     10797     10800     10802     10794     10797     10800     10803
     10795     10794     10797     10798     10795     10794     10797     10799
     10795     10794     10797     10800     10796     10794     10797     10798
     10796     10794     10797     10799     10796     10794     10797     10800
     10798     10797     10800     10801     10798     10797     10800     10802
     10798     10797     10800     10803     10799     10797     10800     10801
     10799     10797     10800     10802     10799     10797     10800     10803
     10804     10807     10810     10811     10804     10807     10810     10812
     10804     10807     10810     10813     10805     10804     10807     10808
     10805     10804     10807     10809     10805     10804     10807     10810
     10806     10804     10807     10808     10806     10804     10807     10809
     10806     10804     10807     10810     10807     10810     10813     10814
     10807     10810     10813     10815     10807     10810     10813     10816
     10808     10807     10810     10811     10808     10807     10810     10812
     10808     10807     10810     10813     10809     10807     10810     10811
     10809     10807     10810     10812     10809     10807     10810     10813
     10810     10813     10816     10817     10810     10813     10816     10818
     10810     10813     10816     10819     10811     10810     10813     10814
     10811     10810     10813     10815     10811     10810     10813     10816
     10812     10810     10813     10814     10812     10810     10813     10815
     10812     10810     10813     10816     10813     10816     10819     10820
     10813     10816     10819     10821     10813     10816     10819     10822
     10814     10813     10816     10817     10814     10813     10816     10818
     10814     10813     10816     10819     10815     10813     10816     10817
     10815     10813     10816     10818     10815     10813     10816     10819
     10816     10819     10822     10823     10816     10819     10822     10824
     10817     10816     10819     10820     10817     10816     10819     10821
     10817     10816     10819     10822     10818     10816     10819     10820
     10818     10816     10819     10821     10818     10816     10819     10822
     10819     10822     10824     10825     10819     10822     10824     10826
     10820     10819     10822     10823     10820     10819     10822     10824
     10821     10819     10822     10823     10821     10819     10822     10824
     10822     10824     10826     10827     10822     10824     10826     10828
     10822     10824     10826     10829     10823     10822     10824     10825
     10823     10822     10824     10826     10824     10826     10829     10830
     10824     10826     10829     10831     10824     10826     10829     10832
     10825     10824     10826     10827     10825     10824     10826     10828
     10825     10824     10826     10829     10826     10829     10832     10833
     10826     10829     10832     10834     10826     10829     10832     10835
     10827     10826     10829     10830     10827     10826     10829     10831
     10827     10826     10829     10832     10828     10826     10829     10830
     10828     10826     10829     10831     10828     10826     10829     10832
     10829     10832     10835     10836     10829     10832     10835     10837
     10829     10832     10835     10838     10830     10829     10832     10833
     10830     10829     10832     10834     10830     10829     10832     10835
     10831     10829     10832     10833     10831     10829     10832     10834
     10831     10829     10832     10835     10832     10835     10838     10839
     10832     10835     10838     10840     10832     10835     10838     10841
     10833     10832     10835     10836     10833     10832     10835     10837
     10833     10832     10835     10838     10834     10832     10835     10836
     10834     10832     10835     10837     10834     10832     10835     10838
     10835     10838     10841     10842     10835     10838     10841     10843
     10835     10838     10841     10844     10836     10835     10838     10839
     10836     10835     10838     10840     10836     10835     10838     10841
     10837     10835     10838     10839     10837     10835     10838     10840
     10837     10835     10838     10841     10838     10841     10844     10845
     10838     10841     10844     10846     10838     10841     10844     10847
     10839     10838     10841     10842     10839     10838     10841     10843
     10839     10838     10841     10844     10840     10838     10841     10842
     10840     10838     10841     10843     10840     10838     10841     10844
     10841     10844     10847     10848     10841     10844     10847     10849
     10841     10844     10847     10850     10842     10841     10844     10845
     10842     10841     10844     10846     10842     10841     10844     10847
     10843     10841     10844     10845     10843     10841     10844     10846
     10843     10841     10844     10847     10845     10844     10847     10848
     10845     10844     10847     10849     10845     10844     10847     10850
     10846     10844     10847     10848     10846     10844     10847     10849
     10846     10844     10847     10850     10851     10852     10867     10868
     10851     10852     10867     10869     10851     10852     10867     10873
     10852     10851     10855     10856     10852     10851     10855     10857
     10852     10851     10855     10858     10852     10851     10859     10860
     10852     10851     10859     10861     10852     10851     10859     10862
     10852     10851     10863     10864     10852     10851     10863     10865
     10852     10851     10863     10866     10852     10867     10873     10870
     10853     10852     10851     10855     10853     10852     10851     10859
     10853     10852     10851     10863     10853     10852     10867     10868
     10853     10852     10867     10869     10853     10852     10867     10873
     10854     10852     10851     10855     10854     10852     10851     10859
     10854     10852     10851     10863     10854     10852     10867     10868
     10854     10852     10867     10869     10854     10852     10867     10873
     10855     10851     10852     10867     10855     10851     10859     10860
     10855     10851     10859     10861     10855     10851     10859     10862
     10855     10851     10863     10864     10855     10851     10863     10865
     10855     10851     10863     10866     10856     10855     10851     10859
     10856     10855     10851     10863     10857     10855     10851     10859
     10857     10855     10851     10863     10858     10855     10851     10859
     10858     10855     10851     10863     10859     10851     10852     10867
     10859     10851     10863     10864     10859     10851     10863     10865
     10859     10851     10863     10866     10860     10859     10851     10863
     10861     10859     10851     10863     10862     10859     10851     10863
     10863     10851     10852     10867     10867     10873     10870     10871
     10867     10873     10870     10872     10867     10873     10870     10874
     10868     10867     10873     10870     10869     10867     10873     10870
     10870     10874     10875     10876     10870     10874     10875     10877
     10870     10874     10875     10878     10871     10870     10874     10875
     10872     10870     10874     10875     10873     10870     10874     10875
     10874     10875     10878     10879     10874     10875     10878     10880
     10874     10875     10878     10886     10875     10878     10880     10881
     10875     10878     10886     10887     10875     10878     10886     10888
     10875     10878     10886     10889     10876     10875     10878     10879
     10876     10875     10878     10880     10876     10875     10878     10886
     10877     10875     10878     10879     10877     10875     10878     10880
     10877     10875     10878     10886     10878     10880     10881     10882
     10878     10880     10881     10883     10878     10886     10889     10890
     10879     10878     10880     10881     10879     10878     10886     10887
     10879     10878     10886     10888     10879     10878     10886     10889
     10880     10878     10886     10887     10880     10878     10886     10888
     10880     10878     10886     10889     10880     10881     10883     10884
     10880     10881     10883     10885     10880     10881     10883     10895
     10881     10880     10878     10886     10881     10883     10895     10896
     10881     10883     10895     10897     10881     10883     10895     10898
     10882     10881     10883     10884     10882     10881     10883     10885
     10882     10881     10883     10895     10883     10895     10898     10899
     10883     10895     10898     10900     10883     10895     10898     10901
     10884     10883     10895     10896     10884     10883     10895     10897
     10884     10883     10895     10898     10885     10883     10895     10896
     10885     10883     10895     10897     10885     10883     10895     10898
     10886     10889     10890     10891     10886     10889     10890     10892
     10887     10886     10889     10890     10888     10886     10889     10890
     10889     10890     10892     10893     10889     10890     10892     10894
     10889     10890     10892     10942     10890     10892     10942     10943
     10890     10892     10942     10944     10890     10892     10942     10945
     10891     10890     10892     10893     10891     10890     10892     10894
     10891     10890     10892     10942     10892     10942     10945     10946
     10892     10942     10945     10947     10892     10942     10945     10948
     10893     10892     10942     10943     10893     10892     10942     10944
     10893     10892     10942     10945     10894     10892     10942     10943
     10894     10892     10942     10944     10894     10892     10942     10945
     10895     10898     10901     10902     10895     10898     10901     10903
     10895     10898     10901     10904     10896     10895     10898     10899
     10896     10895     10898     10900     10896     10895     10898     10901
     10897     10895     10898     10899     10897     10895     10898     10900
     10897     10895     10898     10901     10898     10901     10904     10905
     10898     10901     10904     10906     10898     10901     10904     10907
     10899     10898     10901     10902     10899     10898     10901     10903
     10899     10898     10901     10904     10900     10898     10901     10902
     10900     10898     10901     10903     10900     10898     10901     10904
     10901     10904     10907     10908     10901     10904     10907     10909
     10901     10904     10907     10910     10902     10901     10904     10905
     10902     10901     10904     10906     10902     10901     10904     10907
     10903     10901     10904     10905     10903     10901     10904     10906
     10903     10901     10904     10907     10904     10907     10910     10911
     10904     10907     10910     10912     10904     10907     10910     10913
     10905     10904     10907     10908     10905     10904     10907     10909
     10905     10904     10907     10910     10906     10904     10907     10908
     10906     10904     10907     10909     10906     10904     10907     10910
     10907     10910     10913     10914     10907     10910     10913     10915
     10908     10907     10910     10911     10908     10907     10910     10912
     10908     10907     10910     10913     10909     10907     10910     10911
     10909     10907     10910     10912     10909     10907     10910     10913
     10910     10913     10915     10916     10910     10913     10915     10917
     10911     10910     10913     10914     10911     10910     10913     10915
     10912     10910     10913     10914     10912     10910     10913     10915
     10913     10915     10917     10918     10913     10915     10917     10919
     10913     10915     10917     10920     10914     10913     10915     10916
     10914     10913     10915     10917     10915     10917     10920     10921
     10915     10917     10920     10922     10915     10917     10920     10923
     10916     10915     10917     10918     10916     10915     10917     10919
     10916     10915     10917     10920     10917     10920     10923     10924
     10917     10920     10923     10925     10917     10920     10923     10926
     10918     10917     10920     10921     10918     10917     10920     10922
     10918     10917     10920     10923     10919     10917     10920     10921
     10919     10917     10920     10922     10919     10917     10920     10923
     10920     10923     10926     10927     10920     10923     10926     10928
     10920     10923     10926     10929     10921     10920     10923     10924
     10921     10920     10923     10925     10921     10920     10923     10926
     10922     10920     10923     10924     10922     10920     10923     10925
     10922     10920     10923     10926     10923     10926     10929     10930
     10923     10926     10929     10931     10923     10926     10929     10932
     10924     10923     10926     10927     10924     10923     10926     10928
     10924     10923     10926     10929     10925     10923     10926     10927
     10925     10923     10926     10928     10925     10923     10926     10929
     10926     10929     10932     10933     10926     10929     10932     10934
     10926     10929     10932     10935     10927     10926     10929     10930
     10927     10926     10929     10931     10927     10926     10929     10932
     10928     10926     10929     10930     10928     10926     10929     10931
     10928     10926     10929     10932     10929     10932     10935     10936
     10929     10932     10935     10937     10929     10932     10935     10938
     10930     10929     10932     10933     10930     10929     10932     10934
     10930     10929     10932     10935     10931     10929     10932     10933
     10931     10929     10932     10934     10931     10929     10932     10935
     10932     10935     10938     10939     10932     10935     10938     10940
     10932     10935     10938     10941     10933     10932     10935     10936
     10933     10932     10935     10937     10933     10932     10935     10938
     10934     10932     10935     10936     10934     10932     10935     10937
     10934     10932     10935     10938     10936     10935     10938     10939
     10936     10935     10938     10940     10936     10935     10938     10941
     10937     10935     10938     10939     10937     10935     10938     10940
     10937     10935     10938     10941     10942     10945     10948     10949
     10942     10945     10948     10950     10942     10945     10948     10951
     10943     10942     10945     10946     10943     10942     10945     10947
     10943     10942     10945     10948     10944     10942     10945     10946
     10944     10942     10945     10947     10944     10942     10945     10948
     10945     10948     10951     10952     10945     10948     10951     10953
     10945     10948     10951     10954     10946     10945     10948     10949
     10946     10945     10948     10950     10946     10945     10948     10951
     10947     10945     10948     10949     10947     10945     10948     10950
     10947     10945     10948     10951     10948     10951     10954     10955
     10948     10951     10954     10956     10948     10951     10954     10957
     10949     10948     10951     10952     10949     10948     10951     10953
     10949     10948     10951     10954     10950     10948     10951     10952
     10950     10948     10951     10953     10950     10948     10951     10954
     10951     10954     10957     10958     10951     10954     10957     10959
     10951     10954     10957     10960     10952     10951     10954     10955
     10952     10951     10954     10956     10952     10951     10954     10957
     10953     10951     10954     10955     10953     10951     10954     10956
     10953     10951     10954     10957     10954     10957     10960     10961
     10954     10957     10960     10962     10955     10954     10957     10958
     10955     10954     10957     10959     10955     10954     10957     10960
     10956     10954     10957     10958     10956     10954     10957     10959
     10956     10954     10957     10960     10957     10960     10962     10963
     10957     10960     10962     10964     10958     10957     10960     10961
     10958     10957     10960     10962     10959     10957     10960     10961
     10959     10957     10960     10962     10960     10962     10964     10965
     10960     10962     10964     10966     10960     10962     10964     10967
     10961     10960     10962     10963     10961     10960     10962     10964
     10962     10964     10967     10968     10962     10964     10967     10969
     10962     10964     10967     10970     10963     10962     10964     10965
     10963     10962     10964     10966     10963     10962     10964     10967
     10964     10967     10970     10971     10964     10967     10970     10972
     10964     10967     10970     10973     10965     10964     10967     10968
     10965     10964     10967     10969     10965     10964     10967     10970
     10966     10964     10967     10968     10966     10964     10967     10969
     10966     10964     10967     10970     10967     10970     10973     10974
     10967     10970     10973     10975     10967     10970     10973     10976
     10968     10967     10970     10971     10968     10967     10970     10972
     10968     10967     10970     10973     10969     10967     10970     10971
     10969     10967     10970     10972     10969     10967     10970     10973
     10970     10973     10976     10977     10970     10973     10976     10978
     10970     10973     10976     10979     10971     10970     10973     10974
     10971     10970     10973     10975     10971     10970     10973     10976
     10972     10970     10973     10974     10972     10970     10973     10975
     10972     10970     10973     10976     10973     10976     10979     10980
     10973     10976     10979     10981     10973     10976     10979     10982
     10974     10973     10976     10977     10974     10973     10976     10978
     10974     10973     10976     10979     10975     10973     10976     10977
     10975     10973     10976     10978     10975     10973     10976     10979
     10976     10979     10982     10983     10976     10979     10982     10984
     10976     10979     10982     10985     10977     10976     10979     10980
     10977     10976     10979     10981     10977     10976     10979     10982
     10978     10976     10979     10980     10978     10976     10979     10981
     10978     10976     10979     10982     10979     10982     10985     10986
     10979     10982     10985     10987     10979     10982     10985     10988
     10980     10979     10982     10983     10980     10979     10982     10984
     10980     10979     10982     10985     10981     10979     10982     10983
     10981     10979     10982     10984     10981     10979     10982     10985
     10983     10982     10985     10986     10983     10982     10985     10987
     10983     10982     10985     10988     10984     10982     10985     10986
     10984     10982     10985     10987     10984     10982     10985     10988
     10989     10990     11005     11006     10989     10990     11005     11007
     10989     10990     11005     11011     10990     10989     10993     10994
     10990     10989     10993     10995     10990     10989     10993     10996
     10990     10989     10997     10998     10990     10989     10997     10999
     10990     10989     10997     11000     10990     10989     11001     11002
     10990     10989     11001     11003     10990     10989     11001     11004
     10990     11005     11011     11008     10991     10990     10989     10993
     10991     10990     10989     10997     10991     10990     10989     11001
     10991     10990     11005     11006     10991     10990     11005     11007
     10991     10990     11005     11011     10992     10990     10989     10993
     10992     10990     10989     10997     10992     10990     10989     11001
     10992     10990     11005     11006     10992     10990     11005     11007
     10992     10990     11005     11011     10993     10989     10990     11005
     10993     10989     10997     10998     10993     10989     10997     10999
     10993     10989     10997     11000     10993     10989     11001     11002
     10993     10989     11001     11003     10993     10989     11001     11004
     10994     10993     10989     10997     10994     10993     10989     11001
     10995     10993     10989     10997     10995     10993     10989     11001
     10996     10993     10989     10997     10996     10993     10989     11001
     10997     10989     10990     11005     10997     10989     11001     11002
     10997     10989     11001     11003     10997     10989     11001     11004
     10998     10997     10989     11001     10999     10997     10989     11001
     11000     10997     10989     11001     11001     10989     10990     11005
     11005     11011     11008     11009     11005     11011     11008     11010
     11005     11011     11008     11012     11006     11005     11011     11008
     11007     11005     11011     11008     11008     11012     11013     11014
     11008     11012     11013     11015     11008     11012     11013     11016
     11009     11008     11012     11013     11010     11008     11012     11013
     11011     11008     11012     11013     11012     11013     11016     11017
     11012     11013     11016     11018     11012     11013     11016     11024
     11013     11016     11018     11019     11013     11016     11024     11025
     11013     11016     11024     11026     11013     11016     11024     11027
     11014     11013     11016     11017     11014     11013     11016     11018
     11014     11013     11016     11024     11015     11013     11016     11017
     11015     11013     11016     11018     11015     11013     11016     11024
     11016     11018     11019     11020     11016     11018     11019     11021
     11016     11024     11027     11028     11017     11016     11018     11019
     11017     11016     11024     11025     11017     11016     11024     11026
     11017     11016     11024     11027     11018     11016     11024     11025
     11018     11016     11024     11026     11018     11016     11024     11027
     11018     11019     11021     11022     11018     11019     11021     11023
     11018     11019     11021     11033     11019     11018     11016     11024
     11019     11021     11033     11034     11019     11021     11033     11035
     11019     11021     11033     11036     11020     11019     11021     11022
     11020     11019     11021     11023     11020     11019     11021     11033
     11021     11033     11036     11037     11021     11033     11036     11038
     11021     11033     11036     11039     11022     11021     11033     11034
     11022     11021     11033     11035     11022     11021     11033     11036
     11023     11021     11033     11034     11023     11021     11033     11035
     11023     11021     11033     11036     11024     11027     11028     11029
     11024     11027     11028     11030     11025     11024     11027     11028
     11026     11024     11027     11028     11027     11028     11030     11031
     11027     11028     11030     11032     11027     11028     11030     11080
     11028     11030     11080     11081     11028     11030     11080     11082
     11028     11030     11080     11083     11029     11028     11030     11031
     11029     11028     11030     11032     11029     11028     11030     11080
     11030     11080     11083     11084     11030     11080     11083     11085
     11030     11080     11083     11086     11031     11030     11080     11081
     11031     11030     11080     11082     11031     11030     11080     11083
     11032     11030     11080     11081     11032     11030     11080     11082
     11032     11030     11080     11083     11033     11036     11039     11040
     11033     11036     11039     11041     11033     11036     11039     11042
     11034     11033     11036     11037     11034     11033     11036     11038
     11034     11033     11036     11039     11035     11033     11036     11037
     11035     11033     11036     11038     11035     11033     11036     11039
     11036     11039     11042     11043     11036     11039     11042     11044
     11036     11039     11042     11045     11037     11036     11039     11040
     11037     11036     11039     11041     11037     11036     11039     11042
     11038     11036     11039     11040     11038     11036     11039     11041
     11038     11036     11039     11042     11039     11042     11045     11046
     11039     11042     11045     11047     11039     11042     11045     11048
     11040     11039     11042     11043     11040     11039     11042     11044
     11040     11039     11042     11045     11041     11039     11042     11043
     11041     11039     11042     11044     11041     11039     11042     11045
     11042     11045     11048     11049     11042     11045     11048     11050
     11042     11045     11048     11051     11043     11042     11045     11046
     11043     11042     11045     11047     11043     11042     11045     11048
     11044     11042     11045     11046     11044     11042     11045     11047
     11044     11042     11045     11048     11045     11048     11051     11052
     11045     11048     11051     11053     11046     11045     11048     11049
     11046     11045     11048     11050     11046     11045     11048     11051
     11047     11045     11048     11049     11047     11045     11048     11050
     11047     11045     11048     11051     11048     11051     11053     11054
     11048     11051     11053     11055     11049     11048     11051     11052
     11049     11048     11051     11053     11050     11048     11051     11052
     11050     11048     11051     11053     11051     11053     11055     11056
     11051     11053     11055     11057     11051     11053     11055     11058
     11052     11051     11053     11054     11052     11051     11053     11055
     11053     11055     11058     11059     11053     11055     11058     11060
     11053     11055     11058     11061     11054     11053     11055     11056
     11054     11053     11055     11057     11054     11053     11055     11058
     11055     11058     11061     11062     11055     11058     11061     11063
     11055     11058     11061     11064     11056     11055     11058     11059
     11056     11055     11058     11060     11056     11055     11058     11061
     11057     11055     11058     11059     11057     11055     11058     11060
     11057     11055     11058     11061     11058     11061     11064     11065
     11058     11061     11064     11066     11058     11061     11064     11067
     11059     11058     11061     11062     11059     11058     11061     11063
     11059     11058     11061     11064     11060     11058     11061     11062
     11060     11058     11061     11063     11060     11058     11061     11064
     11061     11064     11067     11068     11061     11064     11067     11069
     11061     11064     11067     11070     11062     11061     11064     11065
     11062     11061     11064     11066     11062     11061     11064     11067
     11063     11061     11064     11065     11063     11061     11064     11066
     11063     11061     11064     11067     11064     11067     11070     11071
     11064     11067     11070     11072     11064     11067     11070     11073
     11065     11064     11067     11068     11065     11064     11067     11069
     11065     11064     11067     11070     11066     11064     11067     11068
     11066     11064     11067     11069     11066     11064     11067     11070
     11067     11070     11073     11074     11067     11070     11073     11075
     11067     11070     11073     11076     11068     11067     11070     11071
     11068     11067     11070     11072     11068     11067     11070     11073
     11069     11067     11070     11071     11069     11067     11070     11072
     11069     11067     11070     11073     11070     11073     11076     11077
     11070     11073     11076     11078     11070     11073     11076     11079
     11071     11070     11073     11074     11071     11070     11073     11075
     11071     11070     11073     11076     11072     11070     11073     11074
     11072     11070     11073     11075     11072     11070     11073     11076
     11074     11073     11076     11077     11074     11073     11076     11078
     11074     11073     11076     11079     11075     11073     11076     11077
     11075     11073     11076     11078     11075     11073     11076     11079
     11080     11083     11086     11087     11080     11083     11086     11088
     11080     11083     11086     11089     11081     11080     11083     11084
     11081     11080     11083     11085     11081     11080     11083     11086
     11082     11080     11083     11084     11082     11080     11083     11085
     11082     11080     11083     11086     11083     11086     11089     11090
     11083     11086     11089     11091     11083     11086     11089     11092
     11084     11083     11086     11087     11084     11083     11086     11088
     11084     11083     11086     11089     11085     11083     11086     11087
     11085     11083     11086     11088     11085     11083     11086     11089
     11086     11089     11092     11093     11086     11089     11092     11094
     11086     11089     11092     11095     11087     11086     11089     11090
     11087     11086     11089     11091     11087     11086     11089     11092
     11088     11086     11089     11090     11088     11086     11089     11091
     11088     11086     11089     11092     11089     11092     11095     11096
     11089     11092     11095     11097     11089     11092     11095     11098
     11090     11089     11092     11093     11090     11089     11092     11094
     11090     11089     11092     11095     11091     11089     11092     11093
     11091     11089     11092     11094     11091     11089     11092     11095
     11092     11095     11098     11099     11092     11095     11098     11100
     11093     11092     11095     11096     11093     11092     11095     11097
     11093     11092     11095     11098     11094     11092     11095     11096
     11094     11092     11095     11097     11094     11092     11095     11098
     11095     11098     11100     11101     11095     11098     11100     11102
     11096     11095     11098     11099     11096     11095     11098     11100
     11097     11095     11098     11099     11097     11095     11098     11100
     11098     11100     11102     11103     11098     11100     11102     11104
     11098     11100     11102     11105     11099     11098     11100     11101
     11099     11098     11100     11102     11100     11102     11105     11106
     11100     11102     11105     11107     11100     11102     11105     11108
     11101     11100     11102     11103     11101     11100     11102     11104
     11101     11100     11102     11105     11102     11105     11108     11109
     11102     11105     11108     11110     11102     11105     11108     11111
     11103     11102     11105     11106     11103     11102     11105     11107
     11103     11102     11105     11108     11104     11102     11105     11106
     11104     11102     11105     11107     11104     11102     11105     11108
     11105     11108     11111     11112     11105     11108     11111     11113
     11105     11108     11111     11114     11106     11105     11108     11109
     11106     11105     11108     11110     11106     11105     11108     11111
     11107     11105     11108     11109     11107     11105     11108     11110
     11107     11105     11108     11111     11108     11111     11114     11115
     11108     11111     11114     11116     11108     11111     11114     11117
     11109     11108     11111     11112     11109     11108     11111     11113
     11109     11108     11111     11114     11110     11108     11111     11112
     11110     11108     11111     11113     11110     11108     11111     11114
     11111     11114     11117     11118     11111     11114     11117     11119
     11111     11114     11117     11120     11112     11111     11114     11115
     11112     11111     11114     11116     11112     11111     11114     11117
     11113     11111     11114     11115     11113     11111     11114     11116
     11113     11111     11114     11117     11114     11117     11120     11121
     11114     11117     11120     11122     11114     11117     11120     11123
     11115     11114     11117     11118     11115     11114     11117     11119
     11115     11114     11117     11120     11116     11114     11117     11118
     11116     11114     11117     11119     11116     11114     11117     11120
     11117     11120     11123     11124     11117     11120     11123     11125
     11117     11120     11123     11126     11118     11117     11120     11121
     11118     11117     11120     11122     11118     11117     11120     11123
     11119     11117     11120     11121     11119     11117     11120     11122
     11119     11117     11120     11123     11121     11120     11123     11124
     11121     11120     11123     11125     11121     11120     11123     11126
     11122     11120     11123     11124     11122     11120     11123     11125
     11122     11120     11123     11126     11127     11128     11143     11144
     11127     11128     11143     11145     11127     11128     11143     11149
     11128     11127     11131     11132     11128     11127     11131     11133
     11128     11127     11131     11134     11128     11127     11135     11136
     11128     11127     11135     11137     11128     11127     11135     11138
     11128     11127     11139     11140     11128     11127     11139     11141
     11128     11127     11139     11142     11128     11143     11149     11146
     11129     11128     11127     11131     11129     11128     11127     11135
     11129     11128     11127     11139     11129     11128     11143     11144
     11129     11128     11143     11145     11129     11128     11143     11149
     11130     11128     11127     11131     11130     11128     11127     11135
     11130     11128     11127     11139     11130     11128     11143     11144
     11130     11128     11143     11145     11130     11128     11143     11149
     11131     11127     11128     11143     11131     11127     11135     11136
     11131     11127     11135     11137     11131     11127     11135     11138
     11131     11127     11139     11140     11131     11127     11139     11141
     11131     11127     11139     11142     11132     11131     11127     11135
     11132     11131     11127     11139     11133     11131     11127     11135
     11133     11131     11127     11139     11134     11131     11127     11135
     11134     11131     11127     11139     11135     11127     11128     11143
     11135     11127     11139     11140     11135     11127     11139     11141
     11135     11127     11139     11142     11136     11135     11127     11139
     11137     11135     11127     11139     11138     11135     11127     11139
     11139     11127     11128     11143     11143     11149     11146     11147
     11143     11149     11146     11148     11143     11149     11146     11150
     11144     11143     11149     11146     11145     11143     11149     11146
     11146     11150     11151     11152     11146     11150     11151     11153
     11146     11150     11151     11154     11147     11146     11150     11151
     11148     11146     11150     11151     11149     11146     11150     11151
     11150     11151     11154     11155     11150     11151     11154     11156
     11150     11151     11154     11162     11151     11154     11156     11157
     11151     11154     11162     11163     11151     11154     11162     11164
     11151     11154     11162     11165     11152     11151     11154     11155
     11152     11151     11154     11156     11152     11151     11154     11162
     11153     11151     11154     11155     11153     11151     11154     11156
     11153     11151     11154     11162     11154     11156     11157     11158
     11154     11156     11157     11159     11154     11162     11165     11166
     11155     11154     11156     11157     11155     11154     11162     11163
     11155     11154     11162     11164     11155     11154     11162     11165
     11156     11154     11162     11163     11156     11154     11162     11164
     11156     11154     11162     11165     11156     11157     11159     11160
     11156     11157     11159     11161     11156     11157     11159     11171
     11157     11156     11154     11162     11157     11159     11171     11172
     11157     11159     11171     11173     11157     11159     11171     11174
     11158     11157     11159     11160     11158     11157     11159     11161
     11158     11157     11159     11171     11159     11171     11174     11175
     11159     11171     11174     11176     11159     11171     11174     11177
     11160     11159     11171     11172     11160     11159     11171     11173
     11160     11159     11171     11174     11161     11159     11171     11172
     11161     11159     11171     11173     11161     11159     11171     11174
     11162     11165     11166     11167     11162     11165     11166     11168
     11163     11162     11165     11166     11164     11162     11165     11166
     11165     11166     11168     11169     11165     11166     11168     11170
     11165     11166     11168     11218     11166     11168     11218     11219
     11166     11168     11218     11220     11166     11168     11218     11221
     11167     11166     11168     11169     11167     11166     11168     11170
     11167     11166     11168     11218     11168     11218     11221     11222
     11168     11218     11221     11223     11168     11218     11221     11224
     11169     11168     11218     11219     11169     11168     11218     11220
     11169     11168     11218     11221     11170     11168     11218     11219
     11170     11168     11218     11220     11170     11168     11218     11221
     11171     11174     11177     11178     11171     11174     11177     11179
     11171     11174     11177     11180     11172     11171     11174     11175
     11172     11171     11174     11176     11172     11171     11174     11177
     11173     11171     11174     11175     11173     11171     11174     11176
     11173     11171     11174     11177     11174     11177     11180     11181
     11174     11177     11180     11182     11174     11177     11180     11183
     11175     11174     11177     11178     11175     11174     11177     11179
     11175     11174     11177     11180     11176     11174     11177     11178
     11176     11174     11177     11179     11176     11174     11177     11180
     11177     11180     11183     11184     11177     11180     11183     11185
     11177     11180     11183     11186     11178     11177     11180     11181
     11178     11177     11180     11182     11178     11177     11180     11183
     11179     11177     11180     11181     11179     11177     11180     11182
     11179     11177     11180     11183     11180     11183     11186     11187
     11180     11183     11186     11188     11180     11183     11186     11189
     11181     11180     11183     11184     11181     11180     11183     11185
     11181     11180     11183     11186     11182     11180     11183     11184
     11182     11180     11183     11185     11182     11180     11183     11186
     11183     11186     11189     11190     11183     11186     11189     11191
     11184     11183     11186     11187     11184     11183     11186     11188
     11184     11183     11186     11189     11185     11183     11186     11187
     11185     11183     11186     11188     11185     11183     11186     11189
     11186     11189     11191     11192     11186     11189     11191     11193
     11187     11186     11189     11190     11187     11186     11189     11191
     11188     11186     11189     11190     11188     11186     11189     11191
     11189     11191     11193     11194     11189     11191     11193     11195
     11189     11191     11193     11196     11190     11189     11191     11192
     11190     11189     11191     11193     11191     11193     11196     11197
     11191     11193     11196     11198     11191     11193     11196     11199
     11192     11191     11193     11194     11192     11191     11193     11195
     11192     11191     11193     11196     11193     11196     11199     11200
     11193     11196     11199     11201     11193     11196     11199     11202
     11194     11193     11196     11197     11194     11193     11196     11198
     11194     11193     11196     11199     11195     11193     11196     11197
     11195     11193     11196     11198     11195     11193     11196     11199
     11196     11199     11202     11203     11196     11199     11202     11204
     11196     11199     11202     11205     11197     11196     11199     11200
     11197     11196     11199     11201     11197     11196     11199     11202
     11198     11196     11199     11200     11198     11196     11199     11201
     11198     11196     11199     11202     11199     11202     11205     11206
     11199     11202     11205     11207     11199     11202     11205     11208
     11200     11199     11202     11203     11200     11199     11202     11204
     11200     11199     11202     11205     11201     11199     11202     11203
     11201     11199     11202     11204     11201     11199     11202     11205
     11202     11205     11208     11209     11202     11205     11208     11210
     11202     11205     11208     11211     11203     11202     11205     11206
     11203     11202     11205     11207     11203     11202     11205     11208
     11204     11202     11205     11206     11204     11202     11205     11207
     11204     11202     11205     11208     11205     11208     11211     11212
     11205     11208     11211     11213     11205     11208     11211     11214
     11206     11205     11208     11209     11206     11205     11208     11210
     11206     11205     11208     11211     11207     11205     11208     11209
     11207     11205     11208     11210     11207     11205     11208     11211
     11208     11211     11214     11215     11208     11211     11214     11216
     11208     11211     11214     11217     11209     11208     11211     11212
     11209     11208     11211     11213     11209     11208     11211     11214
     11210     11208     11211     11212     11210     11208     11211     11213
     11210     11208     11211     11214     11212     11211     11214     11215
     11212     11211     11214     11216     11212     11211     11214     11217
     11213     11211     11214     11215     11213     11211     11214     11216
     11213     11211     11214     11217     11218     11221     11224     11225
     11218     11221     11224     11226     11218     11221     11224     11227
     11219     11218     11221     11222     11219     11218     11221     11223
     11219     11218     11221     11224     11220     11218     11221     11222
     11220     11218     11221     11223     11220     11218     11221     11224
     11221     11224     11227     11228     11221     11224     11227     11229
     11221     11224     11227     11230     11222     11221     11224     11225
     11222     11221     11224     11226     11222     11221     11224     11227
     11223     11221     11224     11225     11223     11221     11224     11226
     11223     11221     11224     11227     11224     11227     11230     11231
     11224     11227     11230     11232     11224     11227     11230     11233
     11225     11224     11227     11228     11225     11224     11227     11229
     11225     11224     11227     11230     11226     11224     11227     11228
     11226     11224     11227     11229     11226     11224     11227     11230
     11227     11230     11233     11234     11227     11230     11233     11235
     11227     11230     11233     11236     11228     11227     11230     11231
     11228     11227     11230     11232     11228     11227     11230     11233
     11229     11227     11230     11231     11229     11227     11230     11232
     11229     11227     11230     11233     11230     11233     11236     11237
     11230     11233     11236     11238     11231     11230     11233     11234
     11231     11230     11233     11235     11231     11230     11233     11236
     11232     11230     11233     11234     11232     11230     11233     11235
     11232     11230     11233     11236     11233     11236     11238     11239
     11233     11236     11238     11240     11234     11233     11236     11237
     11234     11233     11236     11238     11235     11233     11236     11237
     11235     11233     11236     11238     11236     11238     11240     11241
     11236     11238     11240     11242     11236     11238     11240     11243
     11237     11236     11238     11239     11237     11236     11238     11240
     11238     11240     11243     11244     11238     11240     11243     11245
     11238     11240     11243     11246     11239     11238     11240     11241
     11239     11238     11240     11242     11239     11238     11240     11243
     11240     11243     11246     11247     11240     11243     11246     11248
     11240     11243     11246     11249     11241     11240     11243     11244
     11241     11240     11243     11245     11241     11240     11243     11246
     11242     11240     11243     11244     11242     11240     11243     11245
     11242     11240     11243     11246     11243     11246     11249     11250
     11243     11246     11249     11251     11243     11246     11249     11252
     11244     11243     11246     11247     11244     11243     11246     11248
     11244     11243     11246     11249     11245     11243     11246     11247
     11245     11243     11246     11248     11245     11243     11246     11249
     11246     11249     11252     11253     11246     11249     11252     11254
     11246     11249     11252     11255     11247     11246     11249     11250
     11247     11246     11249     11251     11247     11246     11249     11252
     11248     11246     11249     11250     11248     11246     11249     11251
     11248     11246     11249     11252     11249     11252     11255     11256
     11249     11252     11255     11257     11249     11252     11255     11258
     11250     11249     11252     11253     11250     11249     11252     11254
     11250     11249     11252     11255     11251     11249     11252     11253
     11251     11249     11252     11254     11251     11249     11252     11255
     11252     11255     11258     11259     11252     11255     11258     11260
     11252     11255     11258     11261     11253     11252     11255     11256
     11253     11252     11255     11257     11253     11252     11255     11258
     11254     11252     11255     11256     11254     11252     11255     11257
     11254     11252     11255     11258     11255     11258     11261     11262
     11255     11258     11261     11263     11255     11258     11261     11264
     11256     11255     11258     11259     11256     11255     11258     11260
     11256     11255     11258     11261     11257     11255     11258     11259
     11257     11255     11258     11260     11257     11255     11258     11261
     11259     11258     11261     11262     11259     11258     11261     11263
     11259     11258     11261     11264     11260     11258     11261     11262
     11260     11258     11261     11263     11260     11258     11261     11264
     11265     11266     11281     11282     11265     11266     11281     11283
     11265     11266     11281     11287     11266     11265     11269     11270
     11266     11265     11269     11271     11266     11265     11269     11272
     11266     11265     11273     11274     11266     11265     11273     11275
     11266     11265     11273     11276     11266     11265     11277     11278
     11266     11265     11277     11279     11266     11265     11277     11280
     11266     11281     11287     11284     11267     11266     11265     11269
     11267     11266     11265     11273     11267     11266     11265     11277
     11267     11266     11281     11282     11267     11266     11281     11283
     11267     11266     11281     11287     11268     11266     11265     11269
     11268     11266     11265     11273     11268     11266     11265     11277
     11268     11266     11281     11282     11268     11266     11281     11283
     11268     11266     11281     11287     11269     11265     11266     11281
     11269     11265     11273     11274     11269     11265     11273     11275
     11269     11265     11273     11276     11269     11265     11277     11278
     11269     11265     11277     11279     11269     11265     11277     11280
     11270     11269     11265     11273     11270     11269     11265     11277
     11271     11269     11265     11273     11271     11269     11265     11277
     11272     11269     11265     11273     11272     11269     11265     11277
     11273     11265     11266     11281     11273     11265     11277     11278
     11273     11265     11277     11279     11273     11265     11277     11280
     11274     11273     11265     11277     11275     11273     11265     11277
     11276     11273     11265     11277     11277     11265     11266     11281
     11281     11287     11284     11285     11281     11287     11284     11286
     11281     11287     11284     11288     11282     11281     11287     11284
     11283     11281     11287     11284     11284     11288     11289     11290
     11284     11288     11289     11291     11284     11288     11289     11292
     11285     11284     11288     11289     11286     11284     11288     11289
     11287     11284     11288     11289     11288     11289     11292     11293
     11288     11289     11292     11294     11288     11289     11292     11300
     11289     11292     11294     11295     11289     11292     11300     11301
     11289     11292     11300     11302     11289     11292     11300     11303
     11290     11289     11292     11293     11290     11289     11292     11294
     11290     11289     11292     11300     11291     11289     11292     11293
     11291     11289     11292     11294     11291     11289     11292     11300
     11292     11294     11295     11296     11292     11294     11295     11297
     11292     11300     11303     11304     11293     11292     11294     11295
     11293     11292     11300     11301     11293     11292     11300     11302
     11293     11292     11300     11303     11294     11292     11300     11301
     11294     11292     11300     11302     11294     11292     11300     11303
     11294     11295     11297     11298     11294     11295     11297     11299
     11294     11295     11297     11309     11295     11294     11292     11300
     11295     11297     11309     11310     11295     11297     11309     11311
     11295     11297     11309     11312     11296     11295     11297     11298
     11296     11295     11297     11299     11296     11295     11297     11309
     11297     11309     11312     11313     11297     11309     11312     11314
     11297     11309     11312     11315     11298     11297     11309     11310
     11298     11297     11309     11311     11298     11297     11309     11312
     11299     11297     11309     11310     11299     11297     11309     11311
     11299     11297     11309     11312     11300     11303     11304     11305
     11300     11303     11304     11306     11301     11300     11303     11304
     11302     11300     11303     11304     11303     11304     11306     11307
     11303     11304     11306     11308     11303     11304     11306     11356
     11304     11306     11356     11357     11304     11306     11356     11358
     11304     11306     11356     11359     11305     11304     11306     11307
     11305     11304     11306     11308     11305     11304     11306     11356
     11306     11356     11359     11360     11306     11356     11359     11361
     11306     11356     11359     11362     11307     11306     11356     11357
     11307     11306     11356     11358     11307     11306     11356     11359
     11308     11306     11356     11357     11308     11306     11356     11358
     11308     11306     11356     11359     11309     11312     11315     11316
     11309     11312     11315     11317     11309     11312     11315     11318
     11310     11309     11312     11313     11310     11309     11312     11314
     11310     11309     11312     11315     11311     11309     11312     11313
     11311     11309     11312     11314     11311     11309     11312     11315
     11312     11315     11318     11319     11312     11315     11318     11320
     11312     11315     11318     11321     11313     11312     11315     11316
     11313     11312     11315     11317     11313     11312     11315     11318
     11314     11312     11315     11316     11314     11312     11315     11317
     11314     11312     11315     11318     11315     11318     11321     11322
     11315     11318     11321     11323     11315     11318     11321     11324
     11316     11315     11318     11319     11316     11315     11318     11320
     11316     11315     11318     11321     11317     11315     11318     11319
     11317     11315     11318     11320     11317     11315     11318     11321
     11318     11321     11324     11325     11318     11321     11324     11326
     11318     11321     11324     11327     11319     11318     11321     11322
     11319     11318     11321     11323     11319     11318     11321     11324
     11320     11318     11321     11322     11320     11318     11321     11323
     11320     11318     11321     11324     11321     11324     11327     11328
     11321     11324     11327     11329     11322     11321     11324     11325
     11322     11321     11324     11326     11322     11321     11324     11327
     11323     11321     11324     11325     11323     11321     11324     11326
     11323     11321     11324     11327     11324     11327     11329     11330
     11324     11327     11329     11331     11325     11324     11327     11328
     11325     11324     11327     11329     11326     11324     11327     11328
     11326     11324     11327     11329     11327     11329     11331     11332
     11327     11329     11331     11333     11327     11329     11331     11334
     11328     11327     11329     11330     11328     11327     11329     11331
     11329     11331     11334     11335     11329     11331     11334     11336
     11329     11331     11334     11337     11330     11329     11331     11332
     11330     11329     11331     11333     11330     11329     11331     11334
     11331     11334     11337     11338     11331     11334     11337     11339
     11331     11334     11337     11340     11332     11331     11334     11335
     11332     11331     11334     11336     11332     11331     11334     11337
     11333     11331     11334     11335     11333     11331     11334     11336
     11333     11331     11334     11337     11334     11337     11340     11341
     11334     11337     11340     11342     11334     11337     11340     11343
     11335     11334     11337     11338     11335     11334     11337     11339
     11335     11334     11337     11340     11336     11334     11337     11338
     11336     11334     11337     11339     11336     11334     11337     11340
     11337     11340     11343     11344     11337     11340     11343     11345
     11337     11340     11343     11346     11338     11337     11340     11341
     11338     11337     11340     11342     11338     11337     11340     11343
     11339     11337     11340     11341     11339     11337     11340     11342
     11339     11337     11340     11343     11340     11343     11346     11347
     11340     11343     11346     11348     11340     11343     11346     11349
     11341     11340     11343     11344     11341     11340     11343     11345
     11341     11340     11343     11346     11342     11340     11343     11344
     11342     11340     11343     11345     11342     11340     11343     11346
     11343     11346     11349     11350     11343     11346     11349     11351
     11343     11346     11349     11352     11344     11343     11346     11347
     11344     11343     11346     11348     11344     11343     11346     11349
     11345     11343     11346     11347     11345     11343     11346     11348
     11345     11343     11346     11349     11346     11349     11352     11353
     11346     11349     11352     11354     11346     11349     11352     11355
     11347     11346     11349     11350     11347     11346     11349     11351
     11347     11346     11349     11352     11348     11346     11349     11350
     11348     11346     11349     11351     11348     11346     11349     11352
     11350     11349     11352     11353     11350     11349     11352     11354
     11350     11349     11352     11355     11351     11349     11352     11353
     11351     11349     11352     11354     11351     11349     11352     11355
     11356     11359     11362     11363     11356     11359     11362     11364
     11356     11359     11362     11365     11357     11356     11359     11360
     11357     11356     11359     11361     11357     11356     11359     11362
     11358     11356     11359     11360     11358     11356     11359     11361
     11358     11356     11359     11362     11359     11362     11365     11366
     11359     11362     11365     11367     11359     11362     11365     11368
     11360     11359     11362     11363     11360     11359     11362     11364
     11360     11359     11362     11365     11361     11359     11362     11363
     11361     11359     11362     11364     11361     11359     11362     11365
     11362     11365     11368     11369     11362     11365     11368     11370
     11362     11365     11368     11371     11363     11362     11365     11366
     11363     11362     11365     11367     11363     11362     11365     11368
     11364     11362     11365     11366     11364     11362     11365     11367
     11364     11362     11365     11368     11365     11368     11371     11372
     11365     11368     11371     11373     11365     11368     11371     11374
     11366     11365     11368     11369     11366     11365     11368     11370
     11366     11365     11368     11371     11367     11365     11368     11369
     11367     11365     11368     11370     11367     11365     11368     11371
     11368     11371     11374     11375     11368     11371     11374     11376
     11369     11368     11371     11372     11369     11368     11371     11373
     11369     11368     11371     11374     11370     11368     11371     11372
     11370     11368     11371     11373     11370     11368     11371     11374
     11371     11374     11376     11377     11371     11374     11376     11378
     11372     11371     11374     11375     11372     11371     11374     11376
     11373     11371     11374     11375     11373     11371     11374     11376
     11374     11376     11378     11379     11374     11376     11378     11380
     11374     11376     11378     11381     11375     11374     11376     11377
     11375     11374     11376     11378     11376     11378     11381     11382
     11376     11378     11381     11383     11376     11378     11381     11384
     11377     11376     11378     11379     11377     11376     11378     11380
     11377     11376     11378     11381     11378     11381     11384     11385
     11378     11381     11384     11386     11378     11381     11384     11387
     11379     11378     11381     11382     11379     11378     11381     11383
     11379     11378     11381     11384     11380     11378     11381     11382
     11380     11378     11381     11383     11380     11378     11381     11384
     11381     11384     11387     11388     11381     11384     11387     11389
     11381     11384     11387     11390     11382     11381     11384     11385
     11382     11381     11384     11386     11382     11381     11384     11387
     11383     11381     11384     11385     11383     11381     11384     11386
     11383     11381     11384     11387     11384     11387     11390     11391
     11384     11387     11390     11392     11384     11387     11390     11393
     11385     11384     11387     11388     11385     11384     11387     11389
     11385     11384     11387     11390     11386     11384     11387     11388
     11386     11384     11387     11389     11386     11384     11387     11390
     11387     11390     11393     11394     11387     11390     11393     11395
     11387     11390     11393     11396     11388     11387     11390     11391
     11388     11387     11390     11392     11388     11387     11390     11393
     11389     11387     11390     11391     11389     11387     11390     11392
     11389     11387     11390     11393     11390     11393     11396     11397
     11390     11393     11396     11398     11390     11393     11396     11399
     11391     11390     11393     11394     11391     11390     11393     11395
     11391     11390     11393     11396     11392     11390     11393     11394
     11392     11390     11393     11395     11392     11390     11393     11396
     11393     11396     11399     11400     11393     11396     11399     11401
     11393     11396     11399     11402     11394     11393     11396     11397
     11394     11393     11396     11398     11394     11393     11396     11399
     11395     11393     11396     11397     11395     11393     11396     11398
     11395     11393     11396     11399     11397     11396     11399     11400
     11397     11396     11399     11401     11397     11396     11399     11402
     11398     11396     11399     11400     11398     11396     11399     11401
     11398     11396     11399     11402     11403     11404     11419     11420
     11403     11404     11419     11421     11403     11404     11419     11425
     11404     11403     11407     11408     11404     11403     11407     11409
     11404     11403     11407     11410     11404     11403     11411     11412
     11404     11403     11411     11413     11404     11403     11411     11414
     11404     11403     11415     11416     11404     11403     11415     11417
     11404     11403     11415     11418     11404     11419     11425     11422
     11405     11404     11403     11407     11405     11404     11403     11411
     11405     11404     11403     11415     11405     11404     11419     11420
     11405     11404     11419     11421     11405     11404     11419     11425
     11406     11404     11403     11407     11406     11404     11403     11411
     11406     11404     11403     11415     11406     11404     11419     11420
     11406     11404     11419     11421     11406     11404     11419     11425
     11407     11403     11404     11419     11407     11403     11411     11412
     11407     11403     11411     11413     11407     11403     11411     11414
     11407     11403     11415     11416     11407     11403     11415     11417
     11407     11403     11415     11418     11408     11407     11403     11411
     11408     11407     11403     11415     11409     11407     11403     11411
     11409     11407     11403     11415     11410     11407     11403     11411
     11410     11407     11403     11415     11411     11403     11404     11419
     11411     11403     11415     11416     11411     11403     11415     11417
     11411     11403     11415     11418     11412     11411     11403     11415
     11413     11411     11403     11415     11414     11411     11403     11415
     11415     11403     11404     11419     11419     11425     11422     11423
     11419     11425     11422     11424     11419     11425     11422     11426
     11420     11419     11425     11422     11421     11419     11425     11422
     11422     11426     11427     11428     11422     11426     11427     11429
     11422     11426     11427     11430     11423     11422     11426     11427
     11424     11422     11426     11427     11425     11422     11426     11427
     11426     11427     11430     11431     11426     11427     11430     11432
     11426     11427     11430     11438     11427     11430     11432     11433
     11427     11430     11438     11439     11427     11430     11438     11440
     11427     11430     11438     11441     11428     11427     11430     11431
     11428     11427     11430     11432     11428     11427     11430     11438
     11429     11427     11430     11431     11429     11427     11430     11432
     11429     11427     11430     11438     11430     11432     11433     11434
     11430     11432     11433     11435     11430     11438     11441     11442
     11431     11430     11432     11433     11431     11430     11438     11439
     11431     11430     11438     11440     11431     11430     11438     11441
     11432     11430     11438     11439     11432     11430     11438     11440
     11432     11430     11438     11441     11432     11433     11435     11436
     11432     11433     11435     11437     11432     11433     11435     11447
     11433     11432     11430     11438     11433     11435     11447     11448
     11433     11435     11447     11449     11433     11435     11447     11450
     11434     11433     11435     11436     11434     11433     11435     11437
     11434     11433     11435     11447     11435     11447     11450     11451
     11435     11447     11450     11452     11435     11447     11450     11453
     11436     11435     11447     11448     11436     11435     11447     11449
     11436     11435     11447     11450     11437     11435     11447     11448
     11437     11435     11447     11449     11437     11435     11447     11450
     11438     11441     11442     11443     11438     11441     11442     11444
     11439     11438     11441     11442     11440     11438     11441     11442
     11441     11442     11444     11445     11441     11442     11444     11446
     11441     11442     11444     11494     11442     11444     11494     11495
     11442     11444     11494     11496     11442     11444     11494     11497
     11443     11442     11444     11445     11443     11442     11444     11446
     11443     11442     11444     11494     11444     11494     11497     11498
     11444     11494     11497     11499     11444     11494     11497     11500
     11445     11444     11494     11495     11445     11444     11494     11496
     11445     11444     11494     11497     11446     11444     11494     11495
     11446     11444     11494     11496     11446     11444     11494     11497
     11447     11450     11453     11454     11447     11450     11453     11455
     11447     11450     11453     11456     11448     11447     11450     11451
     11448     11447     11450     11452     11448     11447     11450     11453
     11449     11447     11450     11451     11449     11447     11450     11452
     11449     11447     11450     11453     11450     11453     11456     11457
     11450     11453     11456     11458     11450     11453     11456     11459
     11451     11450     11453     11454     11451     11450     11453     11455
     11451     11450     11453     11456     11452     11450     11453     11454
     11452     11450     11453     11455     11452     11450     11453     11456
     11453     11456     11459     11460     11453     11456     11459     11461
     11453     11456     11459     11462     11454     11453     11456     11457
     11454     11453     11456     11458     11454     11453     11456     11459
     11455     11453     11456     11457     11455     11453     11456     11458
     11455     11453     11456     11459     11456     11459     11462     11463
     11456     11459     11462     11464     11456     11459     11462     11465
     11457     11456     11459     11460     11457     11456     11459     11461
     11457     11456     11459     11462     11458     11456     11459     11460
     11458     11456     11459     11461     11458     11456     11459     11462
     11459     11462     11465     11466     11459     11462     11465     11467
     11460     11459     11462     11463     11460     11459     11462     11464
     11460     11459     11462     11465     11461     11459     11462     11463
     11461     11459     11462     11464     11461     11459     11462     11465
     11462     11465     11467     11468     11462     11465     11467     11469
     11463     11462     11465     11466     11463     11462     11465     11467
     11464     11462     11465     11466     11464     11462     11465     11467
     11465     11467     11469     11470     11465     11467     11469     11471
     11465     11467     11469     11472     11466     11465     11467     11468
     11466     11465     11467     11469     11467     11469     11472     11473
     11467     11469     11472     11474     11467     11469     11472     11475
     11468     11467     11469     11470     11468     11467     11469     11471
     11468     11467     11469     11472     11469     11472     11475     11476
     11469     11472     11475     11477     11469     11472     11475     11478
     11470     11469     11472     11473     11470     11469     11472     11474
     11470     11469     11472     11475     11471     11469     11472     11473
     11471     11469     11472     11474     11471     11469     11472     11475
     11472     11475     11478     11479     11472     11475     11478     11480
     11472     11475     11478     11481     11473     11472     11475     11476
     11473     11472     11475     11477     11473     11472     11475     11478
     11474     11472     11475     11476     11474     11472     11475     11477
     11474     11472     11475     11478     11475     11478     11481     11482
     11475     11478     11481     11483     11475     11478     11481     11484
     11476     11475     11478     11479     11476     11475     11478     11480
     11476     11475     11478     11481     11477     11475     11478     11479
     11477     11475     11478     11480     11477     11475     11478     11481
     11478     11481     11484     11485     11478     11481     11484     11486
     11478     11481     11484     11487     11479     11478     11481     11482
     11479     11478     11481     11483     11479     11478     11481     11484
     11480     11478     11481     11482     11480     11478     11481     11483
     11480     11478     11481     11484     11481     11484     11487     11488
     11481     11484     11487     11489     11481     11484     11487     11490
     11482     11481     11484     11485     11482     11481     11484     11486
     11482     11481     11484     11487     11483     11481     11484     11485
     11483     11481     11484     11486     11483     11481     11484     11487
     11484     11487     11490     11491     11484     11487     11490     11492
     11484     11487     11490     11493     11485     11484     11487     11488
     11485     11484     11487     11489     11485     11484     11487     11490
     11486     11484     11487     11488     11486     11484     11487     11489
     11486     11484     11487     11490     11488     11487     11490     11491
     11488     11487     11490     11492     11488     11487     11490     11493
     11489     11487     11490     11491     11489     11487     11490     11492
     11489     11487     11490     11493     11494     11497     11500     11501
     11494     11497     11500     11502     11494     11497     11500     11503
     11495     11494     11497     11498     11495     11494     11497     11499
     11495     11494     11497     11500     11496     11494     11497     11498
     11496     11494     11497     11499     11496     11494     11497     11500
     11497     11500     11503     11504     11497     11500     11503     11505
     11497     11500     11503     11506     11498     11497     11500     11501
     11498     11497     11500     11502     11498     11497     11500     11503
     11499     11497     11500     11501     11499     11497     11500     11502
     11499     11497     11500     11503     11500     11503     11506     11507
     11500     11503     11506     11508     11500     11503     11506     11509
     11501     11500     11503     11504     11501     11500     11503     11505
     11501     11500     11503     11506     11502     11500     11503     11504
     11502     11500     11503     11505     11502     11500     11503     11506
     11503     11506     11509     11510     11503     11506     11509     11511
     11503     11506     11509     11512     11504     11503     11506     11507
     11504     11503     11506     11508     11504     11503     11506     11509
     11505     11503     11506     11507     11505     11503     11506     11508
     11505     11503     11506     11509     11506     11509     11512     11513
     11506     11509     11512     11514     11507     11506     11509     11510
     11507     11506     11509     11511     11507     11506     11509     11512
     11508     11506     11509     11510     11508     11506     11509     11511
     11508     11506     11509     11512     11509     11512     11514     11515
     11509     11512     11514     11516     11510     11509     11512     11513
     11510     11509     11512     11514     11511     11509     11512     11513
     11511     11509     11512     11514     11512     11514     11516     11517
     11512     11514     11516     11518     11512     11514     11516     11519
     11513     11512     11514     11515     11513     11512     11514     11516
     11514     11516     11519     11520     11514     11516     11519     11521
     11514     11516     11519     11522     11515     11514     11516     11517
     11515     11514     11516     11518     11515     11514     11516     11519
     11516     11519     11522     11523     11516     11519     11522     11524
     11516     11519     11522     11525     11517     11516     11519     11520
     11517     11516     11519     11521     11517     11516     11519     11522
     11518     11516     11519     11520     11518     11516     11519     11521
     11518     11516     11519     11522     11519     11522     11525     11526
     11519     11522     11525     11527     11519     11522     11525     11528
     11520     11519     11522     11523     11520     11519     11522     11524
     11520     11519     11522     11525     11521     11519     11522     11523
     11521     11519     11522     11524     11521     11519     11522     11525
     11522     11525     11528     11529     11522     11525     11528     11530
     11522     11525     11528     11531     11523     11522     11525     11526
     11523     11522     11525     11527     11523     11522     11525     11528
     11524     11522     11525     11526     11524     11522     11525     11527
     11524     11522     11525     11528     11525     11528     11531     11532
     11525     11528     11531     11533     11525     11528     11531     11534
     11526     11525     11528     11529     11526     11525     11528     11530
     11526     11525     11528     11531     11527     11525     11528     11529
     11527     11525     11528     11530     11527     11525     11528     11531
     11528     11531     11534     11535     11528     11531     11534     11536
     11528     11531     11534     11537     11529     11528     11531     11532
     11529     11528     11531     11533     11529     11528     11531     11534
     11530     11528     11531     11532     11530     11528     11531     11533
     11530     11528     11531     11534     11531     11534     11537     11538
     11531     11534     11537     11539     11531     11534     11537     11540
     11532     11531     11534     11535     11532     11531     11534     11536
     11532     11531     11534     11537     11533     11531     11534     11535
     11533     11531     11534     11536     11533     11531     11534     11537
     11535     11534     11537     11538     11535     11534     11537     11539
     11535     11534     11537     11540     11536     11534     11537     11538
     11536     11534     11537     11539     11536     11534     11537     11540
     11541     11542     11557     11558     11541     11542     11557     11559
     11541     11542     11557     11563     11542     11541     11545     11546
     11542     11541     11545     11547     11542     11541     11545     11548
     11542     11541     11549     11550     11542     11541     11549     11551
     11542     11541     11549     11552     11542     11541     11553     11554
     11542     11541     11553     11555     11542     11541     11553     11556
     11542     11557     11563     11560     11543     11542     11541     11545
     11543     11542     11541     11549     11543     11542     11541     11553
     11543     11542     11557     11558     11543     11542     11557     11559
     11543     11542     11557     11563     11544     11542     11541     11545
     11544     11542     11541     11549     11544     11542     11541     11553
     11544     11542     11557     11558     11544     11542     11557     11559
     11544     11542     11557     11563     11545     11541     11542     11557
     11545     11541     11549     11550     11545     11541     11549     11551
     11545     11541     11549     11552     11545     11541     11553     11554
     11545     11541     11553     11555     11545     11541     11553     11556
     11546     11545     11541     11549     11546     11545     11541     11553
     11547     11545     11541     11549     11547     11545     11541     11553
     11548     11545     11541     11549     11548     11545     11541     11553
     11549     11541     11542     11557     11549     11541     11553     11554
     11549     11541     11553     11555     11549     11541     11553     11556
     11550     11549     11541     11553     11551     11549     11541     11553
     11552     11549     11541     11553     11553     11541     11542     11557
     11557     11563     11560     11561     11557     11563     11560     11562
     11557     11563     11560     11564     11558     11557     11563     11560
     11559     11557     11563     11560     11560     11564     11565     11566
     11560     11564     11565     11567     11560     11564     11565     11568
     11561     11560     11564     11565     11562     11560     11564     11565
     11563     11560     11564     11565     11564     11565     11568     11569
     11564     11565     11568     11570     11564     11565     11568     11576
     11565     11568     11570     11571     11565     11568     11576     11577
     11565     11568     11576     11578     11565     11568     11576     11579
     11566     11565     11568     11569     11566     11565     11568     11570
     11566     11565     11568     11576     11567     11565     11568     11569
     11567     11565     11568     11570     11567     11565     11568     11576
     11568     11570     11571     11572     11568     11570     11571     11573
     11568     11576     11579     11580     11569     11568     11570     11571
     11569     11568     11576     11577     11569     11568     11576     11578
     11569     11568     11576     11579     11570     11568     11576     11577
     11570     11568     11576     11578     11570     11568     11576     11579
     11570     11571     11573     11574     11570     11571     11573     11575
     11570     11571     11573     11585     11571     11570     11568     11576
     11571     11573     11585     11586     11571     11573     11585     11587
     11571     11573     11585     11588     11572     11571     11573     11574
     11572     11571     11573     11575     11572     11571     11573     11585
     11573     11585     11588     11589     11573     11585     11588     11590
     11573     11585     11588     11591     11574     11573     11585     11586
     11574     11573     11585     11587     11574     11573     11585     11588
     11575     11573     11585     11586     11575     11573     11585     11587
     11575     11573     11585     11588     11576     11579     11580     11581
     11576     11579     11580     11582     11577     11576     11579     11580
     11578     11576     11579     11580     11579     11580     11582     11583
     11579     11580     11582     11584     11579     11580     11582     11632
     11580     11582     11632     11633     11580     11582     11632     11634
     11580     11582     11632     11635     11581     11580     11582     11583
     11581     11580     11582     11584     11581     11580     11582     11632
     11582     11632     11635     11636     11582     11632     11635     11637
     11582     11632     11635     11638     11583     11582     11632     11633
     11583     11582     11632     11634     11583     11582     11632     11635
     11584     11582     11632     11633     11584     11582     11632     11634
     11584     11582     11632     11635     11585     11588     11591     11592
     11585     11588     11591     11593     11585     11588     11591     11594
     11586     11585     11588     11589     11586     11585     11588     11590
     11586     11585     11588     11591     11587     11585     11588     11589
     11587     11585     11588     11590     11587     11585     11588     11591
     11588     11591     11594     11595     11588     11591     11594     11596
     11588     11591     11594     11597     11589     11588     11591     11592
     11589     11588     11591     11593     11589     11588     11591     11594
     11590     11588     11591     11592     11590     11588     11591     11593
     11590     11588     11591     11594     11591     11594     11597     11598
     11591     11594     11597     11599     11591     11594     11597     11600
     11592     11591     11594     11595     11592     11591     11594     11596
     11592     11591     11594     11597     11593     11591     11594     11595
     11593     11591     11594     11596     11593     11591     11594     11597
     11594     11597     11600     11601     11594     11597     11600     11602
     11594     11597     11600     11603     11595     11594     11597     11598
     11595     11594     11597     11599     11595     11594     11597     11600
     11596     11594     11597     11598     11596     11594     11597     11599
     11596     11594     11597     11600     11597     11600     11603     11604
     11597     11600     11603     11605     11598     11597     11600     11601
     11598     11597     11600     11602     11598     11597     11600     11603
     11599     11597     11600     11601     11599     11597     11600     11602
     11599     11597     11600     11603     11600     11603     11605     11606
     11600     11603     11605     11607     11601     11600     11603     11604
     11601     11600     11603     11605     11602     11600     11603     11604
     11602     11600     11603     11605     11603     11605     11607     11608
     11603     11605     11607     11609     11603     11605     11607     11610
     11604     11603     11605     11606     11604     11603     11605     11607
     11605     11607     11610     11611     11605     11607     11610     11612
     11605     11607     11610     11613     11606     11605     11607     11608
     11606     11605     11607     11609     11606     11605     11607     11610
     11607     11610     11613     11614     11607     11610     11613     11615
     11607     11610     11613     11616     11608     11607     11610     11611
     11608     11607     11610     11612     11608     11607     11610     11613
     11609     11607     11610     11611     11609     11607     11610     11612
     11609     11607     11610     11613     11610     11613     11616     11617
     11610     11613     11616     11618     11610     11613     11616     11619
     11611     11610     11613     11614     11611     11610     11613     11615
     11611     11610     11613     11616     11612     11610     11613     11614
     11612     11610     11613     11615     11612     11610     11613     11616
     11613     11616     11619     11620     11613     11616     11619     11621
     11613     11616     11619     11622     11614     11613     11616     11617
     11614     11613     11616     11618     11614     11613     11616     11619
     11615     11613     11616     11617     11615     11613     11616     11618
     11615     11613     11616     11619     11616     11619     11622     11623
     11616     11619     11622     11624     11616     11619     11622     11625
     11617     11616     11619     11620     11617     11616     11619     11621
     11617     11616     11619     11622     11618     11616     11619     11620
     11618     11616     11619     11621     11618     11616     11619     11622
     11619     11622     11625     11626     11619     11622     11625     11627
     11619     11622     11625     11628     11620     11619     11622     11623
     11620     11619     11622     11624     11620     11619     11622     11625
     11621     11619     11622     11623     11621     11619     11622     11624
     11621     11619     11622     11625     11622     11625     11628     11629
     11622     11625     11628     11630     11622     11625     11628     11631
     11623     11622     11625     11626     11623     11622     11625     11627
     11623     11622     11625     11628     11624     11622     11625     11626
     11624     11622     11625     11627     11624     11622     11625     11628
     11626     11625     11628     11629     11626     11625     11628     11630
     11626     11625     11628     11631     11627     11625     11628     11629
     11627     11625     11628     11630     11627     11625     11628     11631
     11632     11635     11638     11639     11632     11635     11638     11640
     11632     11635     11638     11641     11633     11632     11635     11636
     11633     11632     11635     11637     11633     11632     11635     11638
     11634     11632     11635     11636     11634     11632     11635     11637
     11634     11632     11635     11638     11635     11638     11641     11642
     11635     11638     11641     11643     11635     11638     11641     11644
     11636     11635     11638     11639     11636     11635     11638     11640
     11636     11635     11638     11641     11637     11635     11638     11639
     11637     11635     11638     11640     11637     11635     11638     11641
     11638     11641     11644     11645     11638     11641     11644     11646
     11638     11641     11644     11647     11639     11638     11641     11642
     11639     11638     11641     11643     11639     11638     11641     11644
     11640     11638     11641     11642     11640     11638     11641     11643
     11640     11638     11641     11644     11641     11644     11647     11648
     11641     11644     11647     11649     11641     11644     11647     11650
     11642     11641     11644     11645     11642     11641     11644     11646
     11642     11641     11644     11647     11643     11641     11644     11645
     11643     11641     11644     11646     11643     11641     11644     11647
     11644     11647     11650     11651     11644     11647     11650     11652
     11645     11644     11647     11648     11645     11644     11647     11649
     11645     11644     11647     11650     11646     11644     11647     11648
     11646     11644     11647     11649     11646     11644     11647     11650
     11647     11650     11652     11653     11647     11650     11652     11654
     11648     11647     11650     11651     11648     11647     11650     11652
     11649     11647     11650     11651     11649     11647     11650     11652
     11650     11652     11654     11655     11650     11652     11654     11656
     11650     11652     11654     11657     11651     11650     11652     11653
     11651     11650     11652     11654     11652     11654     11657     11658
     11652     11654     11657     11659     11652     11654     11657     11660
     11653     11652     11654     11655     11653     11652     11654     11656
     11653     11652     11654     11657     11654     11657     11660     11661
     11654     11657     11660     11662     11654     11657     11660     11663
     11655     11654     11657     11658     11655     11654     11657     11659
     11655     11654     11657     11660     11656     11654     11657     11658
     11656     11654     11657     11659     11656     11654     11657     11660
     11657     11660     11663     11664     11657     11660     11663     11665
     11657     11660     11663     11666     11658     11657     11660     11661
     11658     11657     11660     11662     11658     11657     11660     11663
     11659     11657     11660     11661     11659     11657     11660     11662
     11659     11657     11660     11663     11660     11663     11666     11667
     11660     11663     11666     11668     11660     11663     11666     11669
     11661     11660     11663     11664     11661     11660     11663     11665
     11661     11660     11663     11666     11662     11660     11663     11664
     11662     11660     11663     11665     11662     11660     11663     11666
     11663     11666     11669     11670     11663     11666     11669     11671
     11663     11666     11669     11672     11664     11663     11666     11667
     11664     11663     11666     11668     11664     11663     11666     11669
     11665     11663     11666     11667     11665     11663     11666     11668
     11665     11663     11666     11669     11666     11669     11672     11673
     11666     11669     11672     11674     11666     11669     11672     11675
     11667     11666     11669     11670     11667     11666     11669     11671
     11667     11666     11669     11672     11668     11666     11669     11670
     11668     11666     11669     11671     11668     11666     11669     11672
     11669     11672     11675     11676     11669     11672     11675     11677
     11669     11672     11675     11678     11670     11669     11672     11673
     11670     11669     11672     11674     11670     11669     11672     11675
     11671     11669     11672     11673     11671     11669     11672     11674
     11671     11669     11672     11675     11673     11672     11675     11676
     11673     11672     11675     11677     11673     11672     11675     11678
     11674     11672     11675     11676     11674     11672     11675     11677
     11674     11672     11675     11678     11679     11680     11695     11696
     11679     11680     11695     11697     11679     11680     11695     11701
     11680     11679     11683     11684     11680     11679     11683     11685
     11680     11679     11683     11686     11680     11679     11687     11688
     11680     11679     11687     11689     11680     11679     11687     11690
     11680     11679     11691     11692     11680     11679     11691     11693
     11680     11679     11691     11694     11680     11695     11701     11698
     11681     11680     11679     11683     11681     11680     11679     11687
     11681     11680     11679     11691     11681     11680     11695     11696
     11681     11680     11695     11697     11681     11680     11695     11701
     11682     11680     11679     11683     11682     11680     11679     11687
     11682     11680     11679     11691     11682     11680     11695     11696
     11682     11680     11695     11697     11682     11680     11695     11701
     11683     11679     11680     11695     11683     11679     11687     11688
     11683     11679     11687     11689     11683     11679     11687     11690
     11683     11679     11691     11692     11683     11679     11691     11693
     11683     11679     11691     11694     11684     11683     11679     11687
     11684     11683     11679     11691     11685     11683     11679     11687
     11685     11683     11679     11691     11686     11683     11679     11687
     11686     11683     11679     11691     11687     11679     11680     11695
     11687     11679     11691     11692     11687     11679     11691     11693
     11687     11679     11691     11694     11688     11687     11679     11691
     11689     11687     11679     11691     11690     11687     11679     11691
     11691     11679     11680     11695     11695     11701     11698     11699
     11695     11701     11698     11700     11695     11701     11698     11702
     11696     11695     11701     11698     11697     11695     11701     11698
     11698     11702     11703     11704     11698     11702     11703     11705
     11698     11702     11703     11706     11699     11698     11702     11703
     11700     11698     11702     11703     11701     11698     11702     11703
     11702     11703     11706     11707     11702     11703     11706     11708
     11702     11703     11706     11714     11703     11706     11708     11709
     11703     11706     11714     11715     11703     11706     11714     11716
     11703     11706     11714     11717     11704     11703     11706     11707
     11704     11703     11706     11708     11704     11703     11706     11714
     11705     11703     11706     11707     11705     11703     11706     11708
     11705     11703     11706     11714     11706     11708     11709     11710
     11706     11708     11709     11711     11706     11714     11717     11718
     11707     11706     11708     11709     11707     11706     11714     11715
     11707     11706     11714     11716     11707     11706     11714     11717
     11708     11706     11714     11715     11708     11706     11714     11716
     11708     11706     11714     11717     11708     11709     11711     11712
     11708     11709     11711     11713     11708     11709     11711     11723
     11709     11708     11706     11714     11709     11711     11723     11724
     11709     11711     11723     11725     11709     11711     11723     11726
     11710     11709     11711     11712     11710     11709     11711     11713
     11710     11709     11711     11723     11711     11723     11726     11727
     11711     11723     11726     11728     11711     11723     11726     11729
     11712     11711     11723     11724     11712     11711     11723     11725
     11712     11711     11723     11726     11713     11711     11723     11724
     11713     11711     11723     11725     11713     11711     11723     11726
     11714     11717     11718     11719     11714     11717     11718     11720
     11715     11714     11717     11718     11716     11714     11717     11718
     11717     11718     11720     11721     11717     11718     11720     11722
     11717     11718     11720     11770     11718     11720     11770     11771
     11718     11720     11770     11772     11718     11720     11770     11773
     11719     11718     11720     11721     11719     11718     11720     11722
     11719     11718     11720     11770     11720     11770     11773     11774
     11720     11770     11773     11775     11720     11770     11773     11776
     11721     11720     11770     11771     11721     11720     11770     11772
     11721     11720     11770     11773     11722     11720     11770     11771
     11722     11720     11770     11772     11722     11720     11770     11773
     11723     11726     11729     11730     11723     11726     11729     11731
     11723     11726     11729     11732     11724     11723     11726     11727
     11724     11723     11726     11728     11724     11723     11726     11729
     11725     11723     11726     11727     11725     11723     11726     11728
     11725     11723     11726     11729     11726     11729     11732     11733
     11726     11729     11732     11734     11726     11729     11732     11735
     11727     11726     11729     11730     11727     11726     11729     11731
     11727     11726     11729     11732     11728     11726     11729     11730
     11728     11726     11729     11731     11728     11726     11729     11732
     11729     11732     11735     11736     11729     11732     11735     11737
     11729     11732     11735     11738     11730     11729     11732     11733
     11730     11729     11732     11734     11730     11729     11732     11735
     11731     11729     11732     11733     11731     11729     11732     11734
     11731     11729     11732     11735     11732     11735     11738     11739
     11732     11735     11738     11740     11732     11735     11738     11741
     11733     11732     11735     11736     11733     11732     11735     11737
     11733     11732     11735     11738     11734     11732     11735     11736
     11734     11732     11735     11737     11734     11732     11735     11738
     11735     11738     11741     11742     11735     11738     11741     11743
     11736     11735     11738     11739     11736     11735     11738     11740
     11736     11735     11738     11741     11737     11735     11738     11739
     11737     11735     11738     11740     11737     11735     11738     11741
     11738     11741     11743     11744     11738     11741     11743     11745
     11739     11738     11741     11742     11739     11738     11741     11743
     11740     11738     11741     11742     11740     11738     11741     11743
     11741     11743     11745     11746     11741     11743     11745     11747
     11741     11743     11745     11748     11742     11741     11743     11744
     11742     11741     11743     11745     11743     11745     11748     11749
     11743     11745     11748     11750     11743     11745     11748     11751
     11744     11743     11745     11746     11744     11743     11745     11747
     11744     11743     11745     11748     11745     11748     11751     11752
     11745     11748     11751     11753     11745     11748     11751     11754
     11746     11745     11748     11749     11746     11745     11748     11750
     11746     11745     11748     11751     11747     11745     11748     11749
     11747     11745     11748     11750     11747     11745     11748     11751
     11748     11751     11754     11755     11748     11751     11754     11756
     11748     11751     11754     11757     11749     11748     11751     11752
     11749     11748     11751     11753     11749     11748     11751     11754
     11750     11748     11751     11752     11750     11748     11751     11753
     11750     11748     11751     11754     11751     11754     11757     11758
     11751     11754     11757     11759     11751     11754     11757     11760
     11752     11751     11754     11755     11752     11751     11754     11756
     11752     11751     11754     11757     11753     11751     11754     11755
     11753     11751     11754     11756     11753     11751     11754     11757
     11754     11757     11760     11761     11754     11757     11760     11762
     11754     11757     11760     11763     11755     11754     11757     11758
     11755     11754     11757     11759     11755     11754     11757     11760
     11756     11754     11757     11758     11756     11754     11757     11759
     11756     11754     11757     11760     11757     11760     11763     11764
     11757     11760     11763     11765     11757     11760     11763     11766
     11758     11757     11760     11761     11758     11757     11760     11762
     11758     11757     11760     11763     11759     11757     11760     11761
     11759     11757     11760     11762     11759     11757     11760     11763
     11760     11763     11766     11767     11760     11763     11766     11768
     11760     11763     11766     11769     11761     11760     11763     11764
     11761     11760     11763     11765     11761     11760     11763     11766
     11762     11760     11763     11764     11762     11760     11763     11765
     11762     11760     11763     11766     11764     11763     11766     11767
     11764     11763     11766     11768     11764     11763     11766     11769
     11765     11763     11766     11767     11765     11763     11766     11768
     11765     11763     11766     11769     11770     11773     11776     11777
     11770     11773     11776     11778     11770     11773     11776     11779
     11771     11770     11773     11774     11771     11770     11773     11775
     11771     11770     11773     11776     11772     11770     11773     11774
     11772     11770     11773     11775     11772     11770     11773     11776
     11773     11776     11779     11780     11773     11776     11779     11781
     11773     11776     11779     11782     11774     11773     11776     11777
     11774     11773     11776     11778     11774     11773     11776     11779
     11775     11773     11776     11777     11775     11773     11776     11778
     11775     11773     11776     11779     11776     11779     11782     11783
     11776     11779     11782     11784     11776     11779     11782     11785
     11777     11776     11779     11780     11777     11776     11779     11781
     11777     11776     11779     11782     11778     11776     11779     11780
     11778     11776     11779     11781     11778     11776     11779     11782
     11779     11782     11785     11786     11779     11782     11785     11787
     11779     11782     11785     11788     11780     11779     11782     11783
     11780     11779     11782     11784     11780     11779     11782     11785
     11781     11779     11782     11783     11781     11779     11782     11784
     11781     11779     11782     11785     11782     11785     11788     11789
     11782     11785     11788     11790     11783     11782     11785     11786
     11783     11782     11785     11787     11783     11782     11785     11788
     11784     11782     11785     11786     11784     11782     11785     11787
     11784     11782     11785     11788     11785     11788     11790     11791
     11785     11788     11790     11792     11786     11785     11788     11789
     11786     11785     11788     11790     11787     11785     11788     11789
     11787     11785     11788     11790     11788     11790     11792     11793
     11788     11790     11792     11794     11788     11790     11792     11795
     11789     11788     11790     11791     11789     11788     11790     11792
     11790     11792     11795     11796     11790     11792     11795     11797
     11790     11792     11795     11798     11791     11790     11792     11793
     11791     11790     11792     11794     11791     11790     11792     11795
     11792     11795     11798     11799     11792     11795     11798     11800
     11792     11795     11798     11801     11793     11792     11795     11796
     11793     11792     11795     11797     11793     11792     11795     11798
     11794     11792     11795     11796     11794     11792     11795     11797
     11794     11792     11795     11798     11795     11798     11801     11802
     11795     11798     11801     11803     11795     11798     11801     11804
     11796     11795     11798     11799     11796     11795     11798     11800
     11796     11795     11798     11801     11797     11795     11798     11799
     11797     11795     11798     11800     11797     11795     11798     11801
     11798     11801     11804     11805     11798     11801     11804     11806
     11798     11801     11804     11807     11799     11798     11801     11802
     11799     11798     11801     11803     11799     11798     11801     11804
     11800     11798     11801     11802     11800     11798     11801     11803
     11800     11798     11801     11804     11801     11804     11807     11808
     11801     11804     11807     11809     11801     11804     11807     11810
     11802     11801     11804     11805     11802     11801     11804     11806
     11802     11801     11804     11807     11803     11801     11804     11805
     11803     11801     11804     11806     11803     11801     11804     11807
     11804     11807     11810     11811     11804     11807     11810     11812
     11804     11807     11810     11813     11805     11804     11807     11808
     11805     11804     11807     11809     11805     11804     11807     11810
     11806     11804     11807     11808     11806     11804     11807     11809
     11806     11804     11807     11810     11807     11810     11813     11814
     11807     11810     11813     11815     11807     11810     11813     11816
     11808     11807     11810     11811     11808     11807     11810     11812
     11808     11807     11810     11813     11809     11807     11810     11811
     11809     11807     11810     11812     11809     11807     11810     11813
     11811     11810     11813     11814     11811     11810     11813     11815
     11811     11810     11813     11816     11812     11810     11813     11814
     11812     11810     11813     11815     11812     11810     11813     11816
     11817     11818     11833     11834     11817     11818     11833     11835
     11817     11818     11833     11839     11818     11817     11821     11822
     11818     11817     11821     11823     11818     11817     11821     11824
     11818     11817     11825     11826     11818     11817     11825     11827
     11818     11817     11825     11828     11818     11817     11829     11830
     11818     11817     11829     11831     11818     11817     11829     11832
     11818     11833     11839     11836     11819     11818     11817     11821
     11819     11818     11817     11825     11819     11818     11817     11829
     11819     11818     11833     11834     11819     11818     11833     11835
     11819     11818     11833     11839     11820     11818     11817     11821
     11820     11818     11817     11825     11820     11818     11817     11829
     11820     11818     11833     11834     11820     11818     11833     11835
     11820     11818     11833     11839     11821     11817     11818     11833
     11821     11817     11825     11826     11821     11817     11825     11827
     11821     11817     11825     11828     11821     11817     11829     11830
     11821     11817     11829     11831     11821     11817     11829     11832
     11822     11821     11817     11825     11822     11821     11817     11829
     11823     11821     11817     11825     11823     11821     11817     11829
     11824     11821     11817     11825     11824     11821     11817     11829
     11825     11817     11818     11833     11825     11817     11829     11830
     11825     11817     11829     11831     11825     11817     11829     11832
     11826     11825     11817     11829     11827     11825     11817     11829
     11828     11825     11817     11829     11829     11817     11818     11833
     11833     11839     11836     11837     11833     11839     11836     11838
     11833     11839     11836     11840     11834     11833     11839     11836
     11835     11833     11839     11836     11836     11840     11841     11842
     11836     11840     11841     11843     11836     11840     11841     11844
     11837     11836     11840     11841     11838     11836     11840     11841
     11839     11836     11840     11841     11840     11841     11844     11845
     11840     11841     11844     11846     11840     11841     11844     11852
     11841     11844     11846     11847     11841     11844     11852     11853
     11841     11844     11852     11854     11841     11844     11852     11855
     11842     11841     11844     11845     11842     11841     11844     11846
     11842     11841     11844     11852     11843     11841     11844     11845
     11843     11841     11844     11846     11843     11841     11844     11852
     11844     11846     11847     11848     11844     11846     11847     11849
     11844     11852     11855     11856     11845     11844     11846     11847
     11845     11844     11852     11853     11845     11844     11852     11854
     11845     11844     11852     11855     11846     11844     11852     11853
     11846     11844     11852     11854     11846     11844     11852     11855
     11846     11847     11849     11850     11846     11847     11849     11851
     11846     11847     11849     11861     11847     11846     11844     11852
     11847     11849     11861     11862     11847     11849     11861     11863
     11847     11849     11861     11864     11848     11847     11849     11850
     11848     11847     11849     11851     11848     11847     11849     11861
     11849     11861     11864     11865     11849     11861     11864     11866
     11849     11861     11864     11867     11850     11849     11861     11862
     11850     11849     11861     11863     11850     11849     11861     11864
     11851     11849     11861     11862     11851     11849     11861     11863
     11851     11849     11861     11864     11852     11855     11856     11857
     11852     11855     11856     11858     11853     11852     11855     11856
     11854     11852     11855     11856     11855     11856     11858     11859
     11855     11856     11858     11860     11855     11856     11858     11908
     11856     11858     11908     11909     11856     11858     11908     11910
     11856     11858     11908     11911     11857     11856     11858     11859
     11857     11856     11858     11860     11857     11856     11858     11908
     11858     11908     11911     11912     11858     11908     11911     11913
     11858     11908     11911     11914     11859     11858     11908     11909
     11859     11858     11908     11910     11859     11858     11908     11911
     11860     11858     11908     11909     11860     11858     11908     11910
     11860     11858     11908     11911     11861     11864     11867     11868
     11861     11864     11867     11869     11861     11864     11867     11870
     11862     11861     11864     11865     11862     11861     11864     11866
     11862     11861     11864     11867     11863     11861     11864     11865
     11863     11861     11864     11866     11863     11861     11864     11867
     11864     11867     11870     11871     11864     11867     11870     11872
     11864     11867     11870     11873     11865     11864     11867     11868
     11865     11864     11867     11869     11865     11864     11867     11870
     11866     11864     11867     11868     11866     11864     11867     11869
     11866     11864     11867     11870     11867     11870     11873     11874
     11867     11870     11873     11875     11867     11870     11873     11876
     11868     11867     11870     11871     11868     11867     11870     11872
     11868     11867     11870     11873     11869     11867     11870     11871
     11869     11867     11870     11872     11869     11867     11870     11873
     11870     11873     11876     11877     11870     11873     11876     11878
     11870     11873     11876     11879     11871     11870     11873     11874
     11871     11870     11873     11875     11871     11870     11873     11876
     11872     11870     11873     11874     11872     11870     11873     11875
     11872     11870     11873     11876     11873     11876     11879     11880
     11873     11876     11879     11881     11874     11873     11876     11877
     11874     11873     11876     11878     11874     11873     11876     11879
     11875     11873     11876     11877     11875     11873     11876     11878
     11875     11873     11876     11879     11876     11879     11881     11882
     11876     11879     11881     11883     11877     11876     11879     11880
     11877     11876     11879     11881     11878     11876     11879     11880
     11878     11876     11879     11881     11879     11881     11883     11884
     11879     11881     11883     11885     11879     11881     11883     11886
     11880     11879     11881     11882     11880     11879     11881     11883
     11881     11883     11886     11887     11881     11883     11886     11888
     11881     11883     11886     11889     11882     11881     11883     11884
     11882     11881     11883     11885     11882     11881     11883     11886
     11883     11886     11889     11890     11883     11886     11889     11891
     11883     11886     11889     11892     11884     11883     11886     11887
     11884     11883     11886     11888     11884     11883     11886     11889
     11885     11883     11886     11887     11885     11883     11886     11888
     11885     11883     11886     11889     11886     11889     11892     11893
     11886     11889     11892     11894     11886     11889     11892     11895
     11887     11886     11889     11890     11887     11886     11889     11891
     11887     11886     11889     11892     11888     11886     11889     11890
     11888     11886     11889     11891     11888     11886     11889     11892
     11889     11892     11895     11896     11889     11892     11895     11897
     11889     11892     11895     11898     11890     11889     11892     11893
     11890     11889     11892     11894     11890     11889     11892     11895
     11891     11889     11892     11893     11891     11889     11892     11894
     11891     11889     11892     11895     11892     11895     11898     11899
     11892     11895     11898     11900     11892     11895     11898     11901
     11893     11892     11895     11896     11893     11892     11895     11897
     11893     11892     11895     11898     11894     11892     11895     11896
     11894     11892     11895     11897     11894     11892     11895     11898
     11895     11898     11901     11902     11895     11898     11901     11903
     11895     11898     11901     11904     11896     11895     11898     11899
     11896     11895     11898     11900     11896     11895     11898     11901
     11897     11895     11898     11899     11897     11895     11898     11900
     11897     11895     11898     11901     11898     11901     11904     11905
     11898     11901     11904     11906     11898     11901     11904     11907
     11899     11898     11901     11902     11899     11898     11901     11903
     11899     11898     11901     11904     11900     11898     11901     11902
     11900     11898     11901     11903     11900     11898     11901     11904
     11902     11901     11904     11905     11902     11901     11904     11906
     11902     11901     11904     11907     11903     11901     11904     11905
     11903     11901     11904     11906     11903     11901     11904     11907
     11908     11911     11914     11915     11908     11911     11914     11916
     11908     11911     11914     11917     11909     11908     11911     11912
     11909     11908     11911     11913     11909     11908     11911     11914
     11910     11908     11911     11912     11910     11908     11911     11913
     11910     11908     11911     11914     11911     11914     11917     11918
     11911     11914     11917     11919     11911     11914     11917     11920
     11912     11911     11914     11915     11912     11911     11914     11916
     11912     11911     11914     11917     11913     11911     11914     11915
     11913     11911     11914     11916     11913     11911     11914     11917
     11914     11917     11920     11921     11914     11917     11920     11922
     11914     11917     11920     11923     11915     11914     11917     11918
     11915     11914     11917     11919     11915     11914     11917     11920
     11916     11914     11917     11918     11916     11914     11917     11919
     11916     11914     11917     11920     11917     11920     11923     11924
     11917     11920     11923     11925     11917     11920     11923     11926
     11918     11917     11920     11921     11918     11917     11920     11922
     11918     11917     11920     11923     11919     11917     11920     11921
     11919     11917     11920     11922     11919     11917     11920     11923
     11920     11923     11926     11927     11920     11923     11926     11928
     11921     11920     11923     11924     11921     11920     11923     11925
     11921     11920     11923     11926     11922     11920     11923     11924
     11922     11920     11923     11925     11922     11920     11923     11926
     11923     11926     11928     11929     11923     11926     11928     11930
     11924     11923     11926     11927     11924     11923     11926     11928
     11925     11923     11926     11927     11925     11923     11926     11928
     11926     11928     11930     11931     11926     11928     11930     11932
     11926     11928     11930     11933     11927     11926     11928     11929
     11927     11926     11928     11930     11928     11930     11933     11934
     11928     11930     11933     11935     11928     11930     11933     11936
     11929     11928     11930     11931     11929     11928     11930     11932
     11929     11928     11930     11933     11930     11933     11936     11937
     11930     11933     11936     11938     11930     11933     11936     11939
     11931     11930     11933     11934     11931     11930     11933     11935
     11931     11930     11933     11936     11932     11930     11933     11934
     11932     11930     11933     11935     11932     11930     11933     11936
     11933     11936     11939     11940     11933     11936     11939     11941
     11933     11936     11939     11942     11934     11933     11936     11937
     11934     11933     11936     11938     11934     11933     11936     11939
     11935     11933     11936     11937     11935     11933     11936     11938
     11935     11933     11936     11939     11936     11939     11942     11943
     11936     11939     11942     11944     11936     11939     11942     11945
     11937     11936     11939     11940     11937     11936     11939     11941
     11937     11936     11939     11942     11938     11936     11939     11940
     11938     11936     11939     11941     11938     11936     11939     11942
     11939     11942     11945     11946     11939     11942     11945     11947
     11939     11942     11945     11948     11940     11939     11942     11943
     11940     11939     11942     11944     11940     11939     11942     11945
     11941     11939     11942     11943     11941     11939     11942     11944
     11941     11939     11942     11945     11942     11945     11948     11949
     11942     11945     11948     11950     11942     11945     11948     11951
     11943     11942     11945     11946     11943     11942     11945     11947
     11943     11942     11945     11948     11944     11942     11945     11946
     11944     11942     11945     11947     11944     11942     11945     11948
     11945     11948     11951     11952     11945     11948     11951     11953
     11945     11948     11951     11954     11946     11945     11948     11949
     11946     11945     11948     11950     11946     11945     11948     11951
     11947     11945     11948     11949     11947     11945     11948     11950
     11947     11945     11948     11951     11949     11948     11951     11952
     11949     11948     11951     11953     11949     11948     11951     11954
     11950     11948     11951     11952     11950     11948     11951     11953
     11950     11948     11951     11954     11955     11956     11971     11972
     11955     11956     11971     11973     11955     11956     11971     11977
     11956     11955     11959     11960     11956     11955     11959     11961
     11956     11955     11959     11962     11956     11955     11963     11964
     11956     11955     11963     11965     11956     11955     11963     11966
     11956     11955     11967     11968     11956     11955     11967     11969
     11956     11955     11967     11970     11956     11971     11977     11974
     11957     11956     11955     11959     11957     11956     11955     11963
     11957     11956     11955     11967     11957     11956     11971     11972
     11957     11956     11971     11973     11957     11956     11971     11977
     11958     11956     11955     11959     11958     11956     11955     11963
     11958     11956     11955     11967     11958     11956     11971     11972
     11958     11956     11971     11973     11958     11956     11971     11977
     11959     11955     11956     11971     11959     11955     11963     11964
     11959     11955     11963     11965     11959     11955     11963     11966
     11959     11955     11967     11968     11959     11955     11967     11969
     11959     11955     11967     11970     11960     11959     11955     11963
     11960     11959     11955     11967     11961     11959     11955     11963
     11961     11959     11955     11967     11962     11959     11955     11963
     11962     11959     11955     11967     11963     11955     11956     11971
     11963     11955     11967     11968     11963     11955     11967     11969
     11963     11955     11967     11970     11964     11963     11955     11967
     11965     11963     11955     11967     11966     11963     11955     11967
     11967     11955     11956     11971     11971     11977     11974     11975
     11971     11977     11974     11976     11971     11977     11974     11978
     11972     11971     11977     11974     11973     11971     11977     11974
     11974     11978     11979     11980     11974     11978     11979     11981
     11974     11978     11979     11982     11975     11974     11978     11979
     11976     11974     11978     11979     11977     11974     11978     11979
     11978     11979     11982     11983     11978     11979     11982     11984
     11978     11979     11982     11990     11979     11982     11984     11985
     11979     11982     11990     11991     11979     11982     11990     11992
     11979     11982     11990     11993     11980     11979     11982     11983
     11980     11979     11982     11984     11980     11979     11982     11990
     11981     11979     11982     11983     11981     11979     11982     11984
     11981     11979     11982     11990     11982     11984     11985     11986
     11982     11984     11985     11987     11982     11990     11993     11994
     11983     11982     11984     11985     11983     11982     11990     11991
     11983     11982     11990     11992     11983     11982     11990     11993
     11984     11982     11990     11991     11984     11982     11990     11992
     11984     11982     11990     11993     11984     11985     11987     11988
     11984     11985     11987     11989     11984     11985     11987     11999
     11985     11984     11982     11990     11985     11987     11999     12000
     11985     11987     11999     12001     11985     11987     11999     12002
     11986     11985     11987     11988     11986     11985     11987     11989
     11986     11985     11987     11999     11987     11999     12002     12003
     11987     11999     12002     12004     11987     11999     12002     12005
     11988     11987     11999     12000     11988     11987     11999     12001
     11988     11987     11999     12002     11989     11987     11999     12000
     11989     11987     11999     12001     11989     11987     11999     12002
     11990     11993     11994     11995     11990     11993     11994     11996
     11991     11990     11993     11994     11992     11990     11993     11994
     11993     11994     11996     11997     11993     11994     11996     11998
     11993     11994     11996     12046     11994     11996     12046     12047
     11994     11996     12046     12048     11994     11996     12046     12049
     11995     11994     11996     11997     11995     11994     11996     11998
     11995     11994     11996     12046     11996     12046     12049     12050
     11996     12046     12049     12051     11996     12046     12049     12052
     11997     11996     12046     12047     11997     11996     12046     12048
     11997     11996     12046     12049     11998     11996     12046     12047
     11998     11996     12046     12048     11998     11996     12046     12049
     11999     12002     12005     12006     11999     12002     12005     12007
     11999     12002     12005     12008     12000     11999     12002     12003
     12000     11999     12002     12004     12000     11999     12002     12005
     12001     11999     12002     12003     12001     11999     12002     12004
     12001     11999     12002     12005     12002     12005     12008     12009
     12002     12005     12008     12010     12002     12005     12008     12011
     12003     12002     12005     12006     12003     12002     12005     12007
     12003     12002     12005     12008     12004     12002     12005     12006
     12004     12002     12005     12007     12004     12002     12005     12008
     12005     12008     12011     12012     12005     12008     12011     12013
     12005     12008     12011     12014     12006     12005     12008     12009
     12006     12005     12008     12010     12006     12005     12008     12011
     12007     12005     12008     12009     12007     12005     12008     12010
     12007     12005     12008     12011     12008     12011     12014     12015
     12008     12011     12014     12016     12008     12011     12014     12017
     12009     12008     12011     12012     12009     12008     12011     12013
     12009     12008     12011     12014     12010     12008     12011     12012
     12010     12008     12011     12013     12010     12008     12011     12014
     12011     12014     12017     12018     12011     12014     12017     12019
     12012     12011     12014     12015     12012     12011     12014     12016
     12012     12011     12014     12017     12013     12011     12014     12015
     12013     12011     12014     12016     12013     12011     12014     12017
     12014     12017     12019     12020     12014     12017     12019     12021
     12015     12014     12017     12018     12015     12014     12017     12019
     12016     12014     12017     12018     12016     12014     12017     12019
     12017     12019     12021     12022     12017     12019     12021     12023
     12017     12019     12021     12024     12018     12017     12019     12020
     12018     12017     12019     12021     12019     12021     12024     12025
     12019     12021     12024     12026     12019     12021     12024     12027
     12020     12019     12021     12022     12020     12019     12021     12023
     12020     12019     12021     12024     12021     12024     12027     12028
     12021     12024     12027     12029     12021     12024     12027     12030
     12022     12021     12024     12025     12022     12021     12024     12026
     12022     12021     12024     12027     12023     12021     12024     12025
     12023     12021     12024     12026     12023     12021     12024     12027
     12024     12027     12030     12031     12024     12027     12030     12032
     12024     12027     12030     12033     12025     12024     12027     12028
     12025     12024     12027     12029     12025     12024     12027     12030
     12026     12024     12027     12028     12026     12024     12027     12029
     12026     12024     12027     12030     12027     12030     12033     12034
     12027     12030     12033     12035     12027     12030     12033     12036
     12028     12027     12030     12031     12028     12027     12030     12032
     12028     12027     12030     12033     12029     12027     12030     12031
     12029     12027     12030     12032     12029     12027     12030     12033
     12030     12033     12036     12037     12030     12033     12036     12038
     12030     12033     12036     12039     12031     12030     12033     12034
     12031     12030     12033     12035     12031     12030     12033     12036
     12032     12030     12033     12034     12032     12030     12033     12035
     12032     12030     12033     12036     12033     12036     12039     12040
     12033     12036     12039     12041     12033     12036     12039     12042
     12034     12033     12036     12037     12034     12033     12036     12038
     12034     12033     12036     12039     12035     12033     12036     12037
     12035     12033     12036     12038     12035     12033     12036     12039
     12036     12039     12042     12043     12036     12039     12042     12044
     12036     12039     12042     12045     12037     12036     12039     12040
     12037     12036     12039     12041     12037     12036     12039     12042
     12038     12036     12039     12040     12038     12036     12039     12041
     12038     12036     12039     12042     12040     12039     12042     12043
     12040     12039     12042     12044     12040     12039     12042     12045
     12041     12039     12042     12043     12041     12039     12042     12044
     12041     12039     12042     12045     12046     12049     12052     12053
     12046     12049     12052     12054     12046     12049     12052     12055
     12047     12046     12049     12050     12047     12046     12049     12051
     12047     12046     12049     12052     12048     12046     12049     12050
     12048     12046     12049     12051     12048     12046     12049     12052
     12049     12052     12055     12056     12049     12052     12055     12057
     12049     12052     12055     12058     12050     12049     12052     12053
     12050     12049     12052     12054     12050     12049     12052     12055
     12051     12049     12052     12053     12051     12049     12052     12054
     12051     12049     12052     12055     12052     12055     12058     12059
     12052     12055     12058     12060     12052     12055     12058     12061
     12053     12052     12055     12056     12053     12052     12055     12057
     12053     12052     12055     12058     12054     12052     12055     12056
     12054     12052     12055     12057     12054     12052     12055     12058
     12055     12058     12061     12062     12055     12058     12061     12063
     12055     12058     12061     12064     12056     12055     12058     12059
     12056     12055     12058     12060     12056     12055     12058     12061
     12057     12055     12058     12059     12057     12055     12058     12060
     12057     12055     12058     12061     12058     12061     12064     12065
     12058     12061     12064     12066     12059     12058     12061     12062
     12059     12058     12061     12063     12059     12058     12061     12064
     12060     12058     12061     12062     12060     12058     12061     12063
     12060     12058     12061     12064     12061     12064     12066     12067
     12061     12064     12066     12068     12062     12061     12064     12065
     12062     12061     12064     12066     12063     12061     12064     12065
     12063     12061     12064     12066     12064     12066     12068     12069
     12064     12066     12068     12070     12064     12066     12068     12071
     12065     12064     12066     12067     12065     12064     12066     12068
     12066     12068     12071     12072     12066     12068     12071     12073
     12066     12068     12071     12074     12067     12066     12068     12069
     12067     12066     12068     12070     12067     12066     12068     12071
     12068     12071     12074     12075     12068     12071     12074     12076
     12068     12071     12074     12077     12069     12068     12071     12072
     12069     12068     12071     12073     12069     12068     12071     12074
     12070     12068     12071     12072     12070     12068     12071     12073
     12070     12068     12071     12074     12071     12074     12077     12078
     12071     12074     12077     12079     12071     12074     12077     12080
     12072     12071     12074     12075     12072     12071     12074     12076
     12072     12071     12074     12077     12073     12071     12074     12075
     12073     12071     12074     12076     12073     12071     12074     12077
     12074     12077     12080     12081     12074     12077     12080     12082
     12074     12077     12080     12083     12075     12074     12077     12078
     12075     12074     12077     12079     12075     12074     12077     12080
     12076     12074     12077     12078     12076     12074     12077     12079
     12076     12074     12077     12080     12077     12080     12083     12084
     12077     12080     12083     12085     12077     12080     12083     12086
     12078     12077     12080     12081     12078     12077     12080     12082
     12078     12077     12080     12083     12079     12077     12080     12081
     12079     12077     12080     12082     12079     12077     12080     12083
     12080     12083     12086     12087     12080     12083     12086     12088
     12080     12083     12086     12089     12081     12080     12083     12084
     12081     12080     12083     12085     12081     12080     12083     12086
     12082     12080     12083     12084     12082     12080     12083     12085
     12082     12080     12083     12086     12083     12086     12089     12090
     12083     12086     12089     12091     12083     12086     12089     12092
     12084     12083     12086     12087     12084     12083     12086     12088
     12084     12083     12086     12089     12085     12083     12086     12087
     12085     12083     12086     12088     12085     12083     12086     12089
     12087     12086     12089     12090     12087     12086     12089     12091
     12087     12086     12089     12092     12088     12086     12089     12090
     12088     12086     12089     12091     12088     12086     12089     12092
     12093     12094     12109     12110     12093     12094     12109     12111
     12093     12094     12109     12115     12094     12093     12097     12098
     12094     12093     12097     12099     12094     12093     12097     12100
     12094     12093     12101     12102     12094     12093     12101     12103
     12094     12093     12101     12104     12094     12093     12105     12106
     12094     12093     12105     12107     12094     12093     12105     12108
     12094     12109     12115     12112     12095     12094     12093     12097
     12095     12094     12093     12101     12095     12094     12093     12105
     12095     12094     12109     12110     12095     12094     12109     12111
     12095     12094     12109     12115     12096     12094     12093     12097
     12096     12094     12093     12101     12096     12094     12093     12105
     12096     12094     12109     12110     12096     12094     12109     12111
     12096     12094     12109     12115     12097     12093     12094     12109
     12097     12093     12101     12102     12097     12093     12101     12103
     12097     12093     12101     12104     12097     12093     12105     12106
     12097     12093     12105     12107     12097     12093     12105     12108
     12098     12097     12093     12101     12098     12097     12093     12105
     12099     12097     12093     12101     12099     12097     12093     12105
     12100     12097     12093     12101     12100     12097     12093     12105
     12101     12093     12094     12109     12101     12093     12105     12106
     12101     12093     12105     12107     12101     12093     12105     12108
     12102     12101     12093     12105     12103     12101     12093     12105
     12104     12101     12093     12105     12105     12093     12094     12109
     12109     12115     12112     12113     12109     12115     12112     12114
     12109     12115     12112     12116     12110     12109     12115     12112
     12111     12109     12115     12112     12112     12116     12117     12118
     12112     12116     12117     12119     12112     12116     12117     12120
     12113     12112     12116     12117     12114     12112     12116     12117
     12115     12112     12116     12117     12116     12117     12120     12121
     12116     12117     12120     12122     12116     12117     12120     12128
     12117     12120     12122     12123     12117     12120     12128     12129
     12117     12120     12128     12130     12117     12120     12128     12131
     12118     12117     12120     12121     12118     12117     12120     12122
     12118     12117     12120     12128     12119     12117     12120     12121
     12119     12117     12120     12122     12119     12117     12120     12128
     12120     12122     12123     12124     12120     12122     12123     12125
     12120     12128     12131     12132     12121     12120     12122     12123
     12121     12120     12128     12129     12121     12120     12128     12130
     12121     12120     12128     12131     12122     12120     12128     12129
     12122     12120     12128     12130     12122     12120     12128     12131
     12122     12123     12125     12126     12122     12123     12125     12127
     12122     12123     12125     12137     12123     12122     12120     12128
     12123     12125     12137     12138     12123     12125     12137     12139
     12123     12125     12137     12140     12124     12123     12125     12126
     12124     12123     12125     12127     12124     12123     12125     12137
     12125     12137     12140     12141     12125     12137     12140     12142
     12125     12137     12140     12143     12126     12125     12137     12138
     12126     12125     12137     12139     12126     12125     12137     12140
     12127     12125     12137     12138     12127     12125     12137     12139
     12127     12125     12137     12140     12128     12131     12132     12133
     12128     12131     12132     12134     12129     12128     12131     12132
     12130     12128     12131     12132     12131     12132     12134     12135
     12131     12132     12134     12136     12131     12132     12134     12184
     12132     12134     12184     12185     12132     12134     12184     12186
     12132     12134     12184     12187     12133     12132     12134     12135
     12133     12132     12134     12136     12133     12132     12134     12184
     12134     12184     12187     12188     12134     12184     12187     12189
     12134     12184     12187     12190     12135     12134     12184     12185
     12135     12134     12184     12186     12135     12134     12184     12187
     12136     12134     12184     12185     12136     12134     12184     12186
     12136     12134     12184     12187     12137     12140     12143     12144
     12137     12140     12143     12145     12137     12140     12143     12146
     12138     12137     12140     12141     12138     12137     12140     12142
     12138     12137     12140     12143     12139     12137     12140     12141
     12139     12137     12140     12142     12139     12137     12140     12143
     12140     12143     12146     12147     12140     12143     12146     12148
     12140     12143     12146     12149     12141     12140     12143     12144
     12141     12140     12143     12145     12141     12140     12143     12146
     12142     12140     12143     12144     12142     12140     12143     12145
     12142     12140     12143     12146     12143     12146     12149     12150
     12143     12146     12149     12151     12143     12146     12149     12152
     12144     12143     12146     12147     12144     12143     12146     12148
     12144     12143     12146     12149     12145     12143     12146     12147
     12145     12143     12146     12148     12145     12143     12146     12149
     12146     12149     12152     12153     12146     12149     12152     12154
     12146     12149     12152     12155     12147     12146     12149     12150
     12147     12146     12149     12151     12147     12146     12149     12152
     12148     12146     12149     12150     12148     12146     12149     12151
     12148     12146     12149     12152     12149     12152     12155     12156
     12149     12152     12155     12157     12150     12149     12152     12153
     12150     12149     12152     12154     12150     12149     12152     12155
     12151     12149     12152     12153     12151     12149     12152     12154
     12151     12149     12152     12155     12152     12155     12157     12158
     12152     12155     12157     12159     12153     12152     12155     12156
     12153     12152     12155     12157     12154     12152     12155     12156
     12154     12152     12155     12157     12155     12157     12159     12160
     12155     12157     12159     12161     12155     12157     12159     12162
     12156     12155     12157     12158     12156     12155     12157     12159
     12157     12159     12162     12163     12157     12159     12162     12164
     12157     12159     12162     12165     12158     12157     12159     12160
     12158     12157     12159     12161     12158     12157     12159     12162
     12159     12162     12165     12166     12159     12162     12165     12167
     12159     12162     12165     12168     12160     12159     12162     12163
     12160     12159     12162     12164     12160     12159     12162     12165
     12161     12159     12162     12163     12161     12159     12162     12164
     12161     12159     12162     12165     12162     12165     12168     12169
     12162     12165     12168     12170     12162     12165     12168     12171
     12163     12162     12165     12166     12163     12162     12165     12167
     12163     12162     12165     12168     12164     12162     12165     12166
     12164     12162     12165     12167     12164     12162     12165     12168
     12165     12168     12171     12172     12165     12168     12171     12173
     12165     12168     12171     12174     12166     12165     12168     12169
     12166     12165     12168     12170     12166     12165     12168     12171
     12167     12165     12168     12169     12167     12165     12168     12170
     12167     12165     12168     12171     12168     12171     12174     12175
     12168     12171     12174     12176     12168     12171     12174     12177
     12169     12168     12171     12172     12169     12168     12171     12173
     12169     12168     12171     12174     12170     12168     12171     12172
     12170     12168     12171     12173     12170     12168     12171     12174
     12171     12174     12177     12178     12171     12174     12177     12179
     12171     12174     12177     12180     12172     12171     12174     12175
     12172     12171     12174     12176     12172     12171     12174     12177
     12173     12171     12174     12175     12173     12171     12174     12176
     12173     12171     12174     12177     12174     12177     12180     12181
     12174     12177     12180     12182     12174     12177     12180     12183
     12175     12174     12177     12178     12175     12174     12177     12179
     12175     12174     12177     12180     12176     12174     12177     12178
     12176     12174     12177     12179     12176     12174     12177     12180
     12178     12177     12180     12181     12178     12177     12180     12182
     12178     12177     12180     12183     12179     12177     12180     12181
     12179     12177     12180     12182     12179     12177     12180     12183
     12184     12187     12190     12191     12184     12187     12190     12192
     12184     12187     12190     12193     12185     12184     12187     12188
     12185     12184     12187     12189     12185     12184     12187     12190
     12186     12184     12187     12188     12186     12184     12187     12189
     12186     12184     12187     12190     12187     12190     12193     12194
     12187     12190     12193     12195     12187     12190     12193     12196
     12188     12187     12190     12191     12188     12187     12190     12192
     12188     12187     12190     12193     12189     12187     12190     12191
     12189     12187     12190     12192     12189     12187     12190     12193
     12190     12193     12196     12197     12190     12193     12196     12198
     12190     12193     12196     12199     12191     12190     12193     12194
     12191     12190     12193     12195     12191     12190     12193     12196
     12192     12190     12193     12194     12192     12190     12193     12195
     12192     12190     12193     12196     12193     12196     12199     12200
     12193     12196     12199     12201     12193     12196     12199     12202
     12194     12193     12196     12197     12194     12193     12196     12198
     12194     12193     12196     12199     12195     12193     12196     12197
     12195     12193     12196     12198     12195     12193     12196     12199
     12196     12199     12202     12203     12196     12199     12202     12204
     12197     12196     12199     12200     12197     12196     12199     12201
     12197     12196     12199     12202     12198     12196     12199     12200
     12198     12196     12199     12201     12198     12196     12199     12202
     12199     12202     12204     12205     12199     12202     12204     12206
     12200     12199     12202     12203     12200     12199     12202     12204
     12201     12199     12202     12203     12201     12199     12202     12204
     12202     12204     12206     12207     12202     12204     12206     12208
     12202     12204     12206     12209     12203     12202     12204     12205
     12203     12202     12204     12206     12204     12206     12209     12210
     12204     12206     12209     12211     12204     12206     12209     12212
     12205     12204     12206     12207     12205     12204     12206     12208
     12205     12204     12206     12209     12206     12209     12212     12213
     12206     12209     12212     12214     12206     12209     12212     12215
     12207     12206     12209     12210     12207     12206     12209     12211
     12207     12206     12209     12212     12208     12206     12209     12210
     12208     12206     12209     12211     12208     12206     12209     12212
     12209     12212     12215     12216     12209     12212     12215     12217
     12209     12212     12215     12218     12210     12209     12212     12213
     12210     12209     12212     12214     12210     12209     12212     12215
     12211     12209     12212     12213     12211     12209     12212     12214
     12211     12209     12212     12215     12212     12215     12218     12219
     12212     12215     12218     12220     12212     12215     12218     12221
     12213     12212     12215     12216     12213     12212     12215     12217
     12213     12212     12215     12218     12214     12212     12215     12216
     12214     12212     12215     12217     12214     12212     12215     12218
     12215     12218     12221     12222     12215     12218     12221     12223
     12215     12218     12221     12224     12216     12215     12218     12219
     12216     12215     12218     12220     12216     12215     12218     12221
     12217     12215     12218     12219     12217     12215     12218     12220
     12217     12215     12218     12221     12218     12221     12224     12225
     12218     12221     12224     12226     12218     12221     12224     12227
     12219     12218     12221     12222     12219     12218     12221     12223
     12219     12218     12221     12224     12220     12218     12221     12222
     12220     12218     12221     12223     12220     12218     12221     12224
     12221     12224     12227     12228     12221     12224     12227     12229
     12221     12224     12227     12230     12222     12221     12224     12225
     12222     12221     12224     12226     12222     12221     12224     12227
     12223     12221     12224     12225     12223     12221     12224     12226
     12223     12221     12224     12227     12225     12224     12227     12228
     12225     12224     12227     12229     12225     12224     12227     12230
     12226     12224     12227     12228     12226     12224     12227     12229
     12226     12224     12227     12230     12231     12232     12247     12248
     12231     12232     12247     12249     12231     12232     12247     12253
     12232     12231     12235     12236     12232     12231     12235     12237
     12232     12231     12235     12238     12232     12231     12239     12240
     12232     12231     12239     12241     12232     12231     12239     12242
     12232     12231     12243     12244     12232     12231     12243     12245
     12232     12231     12243     12246     12232     12247     12253     12250
     12233     12232     12231     12235     12233     12232     12231     12239
     12233     12232     12231     12243     12233     12232     12247     12248
     12233     12232     12247     12249     12233     12232     12247     12253
     12234     12232     12231     12235     12234     12232     12231     12239
     12234     12232     12231     12243     12234     12232     12247     12248
     12234     12232     12247     12249     12234     12232     12247     12253
     12235     12231     12232     12247     12235     12231     12239     12240
     12235     12231     12239     12241     12235     12231     12239     12242
     12235     12231     12243     12244     12235     12231     12243     12245
     12235     12231     12243     12246     12236     12235     12231     12239
     12236     12235     12231     12243     12237     12235     12231     12239
     12237     12235     12231     12243     12238     12235     12231     12239
     12238     12235     12231     12243     12239     12231     12232     12247
     12239     12231     12243     12244     12239     12231     12243     12245
     12239     12231     12243     12246     12240     12239     12231     12243
     12241     12239     12231     12243     12242     12239     12231     12243
     12243     12231     12232     12247     12247     12253     12250     12251
     12247     12253     12250     12252     12247     12253     12250     12254
     12248     12247     12253     12250     12249     12247     12253     12250
     12250     12254     12255     12256     12250     12254     12255     12257
     12250     12254     12255     12258     12251     12250     12254     12255
     12252     12250     12254     12255     12253     12250     12254     12255
     12254     12255     12258     12259     12254     12255     12258     12260
     12254     12255     12258     12266     12255     12258     12260     12261
     12255     12258     12266     12267     12255     12258     12266     12268
     12255     12258     12266     12269     12256     12255     12258     12259
     12256     12255     12258     12260     12256     12255     12258     12266
     12257     12255     12258     12259     12257     12255     12258     12260
     12257     12255     12258     12266     12258     12260     12261     12262
     12258     12260     12261     12263     12258     12266     12269     12270
     12259     12258     12260     12261     12259     12258     12266     12267
     12259     12258     12266     12268     12259     12258     12266     12269
     12260     12258     12266     12267     12260     12258     12266     12268
     12260     12258     12266     12269     12260     12261     12263     12264
     12260     12261     12263     12265     12260     12261     12263     12275
     12261     12260     12258     12266     12261     12263     12275     12276
     12261     12263     12275     12277     12261     12263     12275     12278
     12262     12261     12263     12264     12262     12261     12263     12265
     12262     12261     12263     12275     12263     12275     12278     12279
     12263     12275     12278     12280     12263     12275     12278     12281
     12264     12263     12275     12276     12264     12263     12275     12277
     12264     12263     12275     12278     12265     12263     12275     12276
     12265     12263     12275     12277     12265     12263     12275     12278
     12266     12269     12270     12271     12266     12269     12270     12272
     12267     12266     12269     12270     12268     12266     12269     12270
     12269     12270     12272     12273     12269     12270     12272     12274
     12269     12270     12272     12322     12270     12272     12322     12323
     12270     12272     12322     12324     12270     12272     12322     12325
     12271     12270     12272     12273     12271     12270     12272     12274
     12271     12270     12272     12322     12272     12322     12325     12326
     12272     12322     12325     12327     12272     12322     12325     12328
     12273     12272     12322     12323     12273     12272     12322     12324
     12273     12272     12322     12325     12274     12272     12322     12323
     12274     12272     12322     12324     12274     12272     12322     12325
     12275     12278     12281     12282     12275     12278     12281     12283
     12275     12278     12281     12284     12276     12275     12278     12279
     12276     12275     12278     12280     12276     12275     12278     12281
     12277     12275     12278     12279     12277     12275     12278     12280
     12277     12275     12278     12281     12278     12281     12284     12285
     12278     12281     12284     12286     12278     12281     12284     12287
     12279     12278     12281     12282     12279     12278     12281     12283
     12279     12278     12281     12284     12280     12278     12281     12282
     12280     12278     12281     12283     12280     12278     12281     12284
     12281     12284     12287     12288     12281     12284     12287     12289
     12281     12284     12287     12290     12282     12281     12284     12285
     12282     12281     12284     12286     12282     12281     12284     12287
     12283     12281     12284     12285     12283     12281     12284     12286
     12283     12281     12284     12287     12284     12287     12290     12291
     12284     12287     12290     12292     12284     12287     12290     12293
     12285     12284     12287     12288     12285     12284     12287     12289
     12285     12284     12287     12290     12286     12284     12287     12288
     12286     12284     12287     12289     12286     12284     12287     12290
     12287     12290     12293     12294     12287     12290     12293     12295
     12288     12287     12290     12291     12288     12287     12290     12292
     12288     12287     12290     12293     12289     12287     12290     12291
     12289     12287     12290     12292     12289     12287     12290     12293
     12290     12293     12295     12296     12290     12293     12295     12297
     12291     12290     12293     12294     12291     12290     12293     12295
     12292     12290     12293     12294     12292     12290     12293     12295
     12293     12295     12297     12298     12293     12295     12297     12299
     12293     12295     12297     12300     12294     12293     12295     12296
     12294     12293     12295     12297     12295     12297     12300     12301
     12295     12297     12300     12302     12295     12297     12300     12303
     12296     12295     12297     12298     12296     12295     12297     12299
     12296     12295     12297     12300     12297     12300     12303     12304
     12297     12300     12303     12305     12297     12300     12303     12306
     12298     12297     12300     12301     12298     12297     12300     12302
     12298     12297     12300     12303     12299     12297     12300     12301
     12299     12297     12300     12302     12299     12297     12300     12303
     12300     12303     12306     12307     12300     12303     12306     12308
     12300     12303     12306     12309     12301     12300     12303     12304
     12301     12300     12303     12305     12301     12300     12303     12306
     12302     12300     12303     12304     12302     12300     12303     12305
     12302     12300     12303     12306     12303     12306     12309     12310
     12303     12306     12309     12311     12303     12306     12309     12312
     12304     12303     12306     12307     12304     12303     12306     12308
     12304     12303     12306     12309     12305     12303     12306     12307
     12305     12303     12306     12308     12305     12303     12306     12309
     12306     12309     12312     12313     12306     12309     12312     12314
     12306     12309     12312     12315     12307     12306     12309     12310
     12307     12306     12309     12311     12307     12306     12309     12312
     12308     12306     12309     12310     12308     12306     12309     12311
     12308     12306     12309     12312     12309     12312     12315     12316
     12309     12312     12315     12317     12309     12312     12315     12318
     12310     12309     12312     12313     12310     12309     12312     12314
     12310     12309     12312     12315     12311     12309     12312     12313
     12311     12309     12312     12314     12311     12309     12312     12315
     12312     12315     12318     12319     12312     12315     12318     12320
     12312     12315     12318     12321     12313     12312     12315     12316
     12313     12312     12315     12317     12313     12312     12315     12318
     12314     12312     12315     12316     12314     12312     12315     12317
     12314     12312     12315     12318     12316     12315     12318     12319
     12316     12315     12318     12320     12316     12315     12318     12321
     12317     12315     12318     12319     12317     12315     12318     12320
     12317     12315     12318     12321     12322     12325     12328     12329
     12322     12325     12328     12330     12322     12325     12328     12331
     12323     12322     12325     12326     12323     12322     12325     12327
     12323     12322     12325     12328     12324     12322     12325     12326
     12324     12322     12325     12327     12324     12322     12325     12328
     12325     12328     12331     12332     12325     12328     12331     12333
     12325     12328     12331     12334     12326     12325     12328     12329
     12326     12325     12328     12330     12326     12325     12328     12331
     12327     12325     12328     12329     12327     12325     12328     12330
     12327     12325     12328     12331     12328     12331     12334     12335
     12328     12331     12334     12336     12328     12331     12334     12337
     12329     12328     12331     12332     12329     12328     12331     12333
     12329     12328     12331     12334     12330     12328     12331     12332
     12330     12328     12331     12333     12330     12328     12331     12334
     12331     12334     12337     12338     12331     12334     12337     12339
     12331     12334     12337     12340     12332     12331     12334     12335
     12332     12331     12334     12336     12332     12331     12334     12337
     12333     12331     12334     12335     12333     12331     12334     12336
     12333     12331     12334     12337     12334     12337     12340     12341
     12334     12337     12340     12342     12335     12334     12337     12338
     12335     12334     12337     12339     12335     12334     12337     12340
     12336     12334     12337     12338     12336     12334     12337     12339
     12336     12334     12337     12340     12337     12340     12342     12343
     12337     12340     12342     12344     12338     12337     12340     12341
     12338     12337     12340     12342     12339     12337     12340     12341
     12339     12337     12340     12342     12340     12342     12344     12345
     12340     12342     12344     12346     12340     12342     12344     12347
     12341     12340     12342     12343     12341     12340     12342     12344
     12342     12344     12347     12348     12342     12344     12347     12349
     12342     12344     12347     12350     12343     12342     12344     12345
     12343     12342     12344     12346     12343     12342     12344     12347
     12344     12347     12350     12351     12344     12347     12350     12352
     12344     12347     12350     12353     12345     12344     12347     12348
     12345     12344     12347     12349     12345     12344     12347     12350
     12346     12344     12347     12348     12346     12344     12347     12349
     12346     12344     12347     12350     12347     12350     12353     12354
     12347     12350     12353     12355     12347     12350     12353     12356
     12348     12347     12350     12351     12348     12347     12350     12352
     12348     12347     12350     12353     12349     12347     12350     12351
     12349     12347     12350     12352     12349     12347     12350     12353
     12350     12353     12356     12357     12350     12353     12356     12358
     12350     12353     12356     12359     12351     12350     12353     12354
     12351     12350     12353     12355     12351     12350     12353     12356
     12352     12350     12353     12354     12352     12350     12353     12355
     12352     12350     12353     12356     12353     12356     12359     12360
     12353     12356     12359     12361     12353     12356     12359     12362
     12354     12353     12356     12357     12354     12353     12356     12358
     12354     12353     12356     12359     12355     12353     12356     12357
     12355     12353     12356     12358     12355     12353     12356     12359
     12356     12359     12362     12363     12356     12359     12362     12364
     12356     12359     12362     12365     12357     12356     12359     12360
     12357     12356     12359     12361     12357     12356     12359     12362
     12358     12356     12359     12360     12358     12356     12359     12361
     12358     12356     12359     12362     12359     12362     12365     12366
     12359     12362     12365     12367     12359     12362     12365     12368
     12360     12359     12362     12363     12360     12359     12362     12364
     12360     12359     12362     12365     12361     12359     12362     12363
     12361     12359     12362     12364     12361     12359     12362     12365
     12363     12362     12365     12366     12363     12362     12365     12367
     12363     12362     12365     12368     12364     12362     12365     12366
     12364     12362     12365     12367     12364     12362     12365     12368
     12369     12370     12385     12386     12369     12370     12385     12387
     12369     12370     12385     12391     12370     12369     12373     12374
     12370     12369     12373     12375     12370     12369     12373     12376
     12370     12369     12377     12378     12370     12369     12377     12379
     12370     12369     12377     12380     12370     12369     12381     12382
     12370     12369     12381     12383     12370     12369     12381     12384
     12370     12385     12391     12388     12371     12370     12369     12373
     12371     12370     12369     12377     12371     12370     12369     12381
     12371     12370     12385     12386     12371     12370     12385     12387
     12371     12370     12385     12391     12372     12370     12369     12373
     12372     12370     12369     12377     12372     12370     12369     12381
     12372     12370     12385     12386     12372     12370     12385     12387
     12372     12370     12385     12391     12373     12369     12370     12385
     12373     12369     12377     12378     12373     12369     12377     12379
     12373     12369     12377     12380     12373     12369     12381     12382
     12373     12369     12381     12383     12373     12369     12381     12384
     12374     12373     12369     12377     12374     12373     12369     12381
     12375     12373     12369     12377     12375     12373     12369     12381
     12376     12373     12369     12377     12376     12373     12369     12381
     12377     12369     12370     12385     12377     12369     12381     12382
     12377     12369     12381     12383     12377     12369     12381     12384
     12378     12377     12369     12381     12379     12377     12369     12381
     12380     12377     12369     12381     12381     12369     12370     12385
     12385     12391     12388     12389     12385     12391     12388     12390
     12385     12391     12388     12392     12386     12385     12391     12388
     12387     12385     12391     12388     12388     12392     12393     12394
     12388     12392     12393     12395     12388     12392     12393     12396
     12389     12388     12392     12393     12390     12388     12392     12393
     12391     12388     12392     12393     12392     12393     12396     12397
     12392     12393     12396     12398     12392     12393     12396     12404
     12393     12396     12398     12399     12393     12396     12404     12405
     12393     12396     12404     12406     12393     12396     12404     12407
     12394     12393     12396     12397     12394     12393     12396     12398
     12394     12393     12396     12404     12395     12393     12396     12397
     12395     12393     12396     12398     12395     12393     12396     12404
     12396     12398     12399     12400     12396     12398     12399     12401
     12396     12404     12407     12408     12397     12396     12398     12399
     12397     12396     12404     12405     12397     12396     12404     12406
     12397     12396     12404     12407     12398     12396     12404     12405
     12398     12396     12404     12406     12398     12396     12404     12407
     12398     12399     12401     12402     12398     12399     12401     12403
     12398     12399     12401     12413     12399     12398     12396     12404
     12399     12401     12413     12414     12399     12401     12413     12415
     12399     12401     12413     12416     12400     12399     12401     12402
     12400     12399     12401     12403     12400     12399     12401     12413
     12401     12413     12416     12417     12401     12413     12416     12418
     12401     12413     12416     12419     12402     12401     12413     12414
     12402     12401     12413     12415     12402     12401     12413     12416
     12403     12401     12413     12414     12403     12401     12413     12415
     12403     12401     12413     12416     12404     12407     12408     12409
     12404     12407     12408     12410     12405     12404     12407     12408
     12406     12404     12407     12408     12407     12408     12410     12411
     12407     12408     12410     12412     12407     12408     12410     12460
     12408     12410     12460     12461     12408     12410     12460     12462
     12408     12410     12460     12463     12409     12408     12410     12411
     12409     12408     12410     12412     12409     12408     12410     12460
     12410     12460     12463     12464     12410     12460     12463     12465
     12410     12460     12463     12466     12411     12410     12460     12461
     12411     12410     12460     12462     12411     12410     12460     12463
     12412     12410     12460     12461     12412     12410     12460     12462
     12412     12410     12460     12463     12413     12416     12419     12420
     12413     12416     12419     12421     12413     12416     12419     12422
     12414     12413     12416     12417     12414     12413     12416     12418
     12414     12413     12416     12419     12415     12413     12416     12417
     12415     12413     12416     12418     12415     12413     12416     12419
     12416     12419     12422     12423     12416     12419     12422     12424
     12416     12419     12422     12425     12417     12416     12419     12420
     12417     12416     12419     12421     12417     12416     12419     12422
     12418     12416     12419     12420     12418     12416     12419     12421
     12418     12416     12419     12422     12419     12422     12425     12426
     12419     12422     12425     12427     12419     12422     12425     12428
     12420     12419     12422     12423     12420     12419     12422     12424
     12420     12419     12422     12425     12421     12419     12422     12423
     12421     12419     12422     12424     12421     12419     12422     12425
     12422     12425     12428     12429     12422     12425     12428     12430
     12422     12425     12428     12431     12423     12422     12425     12426
     12423     12422     12425     12427     12423     12422     12425     12428
     12424     12422     12425     12426     12424     12422     12425     12427
     12424     12422     12425     12428     12425     12428     12431     12432
     12425     12428     12431     12433     12426     12425     12428     12429
     12426     12425     12428     12430     12426     12425     12428     12431
     12427     12425     12428     12429     12427     12425     12428     12430
     12427     12425     12428     12431     12428     12431     12433     12434
     12428     12431     12433     12435     12429     12428     12431     12432
     12429     12428     12431     12433     12430     12428     12431     12432
     12430     12428     12431     12433     12431     12433     12435     12436
     12431     12433     12435     12437     12431     12433     12435     12438
     12432     12431     12433     12434     12432     12431     12433     12435
     12433     12435     12438     12439     12433     12435     12438     12440
     12433     12435     12438     12441     12434     12433     12435     12436
     12434     12433     12435     12437     12434     12433     12435     12438
     12435     12438     12441     12442     12435     12438     12441     12443
     12435     12438     12441     12444     12436     12435     12438     12439
     12436     12435     12438     12440     12436     12435     12438     12441
     12437     12435     12438     12439     12437     12435     12438     12440
     12437     12435     12438     12441     12438     12441     12444     12445
     12438     12441     12444     12446     12438     12441     12444     12447
     12439     12438     12441     12442     12439     12438     12441     12443
     12439     12438     12441     12444     12440     12438     12441     12442
     12440     12438     12441     12443     12440     12438     12441     12444
     12441     12444     12447     12448     12441     12444     12447     12449
     12441     12444     12447     12450     12442     12441     12444     12445
     12442     12441     12444     12446     12442     12441     12444     12447
     12443     12441     12444     12445     12443     12441     12444     12446
     12443     12441     12444     12447     12444     12447     12450     12451
     12444     12447     12450     12452     12444     12447     12450     12453
     12445     12444     12447     12448     12445     12444     12447     12449
     12445     12444     12447     12450     12446     12444     12447     12448
     12446     12444     12447     12449     12446     12444     12447     12450
     12447     12450     12453     12454     12447     12450     12453     12455
     12447     12450     12453     12456     12448     12447     12450     12451
     12448     12447     12450     12452     12448     12447     12450     12453
     12449     12447     12450     12451     12449     12447     12450     12452
     12449     12447     12450     12453     12450     12453     12456     12457
     12450     12453     12456     12458     12450     12453     12456     12459
     12451     12450     12453     12454     12451     12450     12453     12455
     12451     12450     12453     12456     12452     12450     12453     12454
     12452     12450     12453     12455     12452     12450     12453     12456
     12454     12453     12456     12457     12454     12453     12456     12458
     12454     12453     12456     12459     12455     12453     12456     12457
     12455     12453     12456     12458     12455     12453     12456     12459
     12460     12463     12466     12467     12460     12463     12466     12468
     12460     12463     12466     12469     12461     12460     12463     12464
     12461     12460     12463     12465     12461     12460     12463     12466
     12462     12460     12463     12464     12462     12460     12463     12465
     12462     12460     12463     12466     12463     12466     12469     12470
     12463     12466     12469     12471     12463     12466     12469     12472
     12464     12463     12466     12467     12464     12463     12466     12468
     12464     12463     12466     12469     12465     12463     12466     12467
     12465     12463     12466     12468     12465     12463     12466     12469
     12466     12469     12472     12473     12466     12469     12472     12474
     12466     12469     12472     12475     12467     12466     12469     12470
     12467     12466     12469     12471     12467     12466     12469     12472
     12468     12466     12469     12470     12468     12466     12469     12471
     12468     12466     12469     12472     12469     12472     12475     12476
     12469     12472     12475     12477     12469     12472     12475     12478
     12470     12469     12472     12473     12470     12469     12472     12474
     12470     12469     12472     12475     12471     12469     12472     12473
     12471     12469     12472     12474     12471     12469     12472     12475
     12472     12475     12478     12479     12472     12475     12478     12480
     12473     12472     12475     12476     12473     12472     12475     12477
     12473     12472     12475     12478     12474     12472     12475     12476
     12474     12472     12475     12477     12474     12472     12475     12478
     12475     12478     12480     12481     12475     12478     12480     12482
     12476     12475     12478     12479     12476     12475     12478     12480
     12477     12475     12478     12479     12477     12475     12478     12480
     12478     12480     12482     12483     12478     12480     12482     12484
     12478     12480     12482     12485     12479     12478     12480     12481
     12479     12478     12480     12482     12480     12482     12485     12486
     12480     12482     12485     12487     12480     12482     12485     12488
     12481     12480     12482     12483     12481     12480     12482     12484
     12481     12480     12482     12485     12482     12485     12488     12489
     12482     12485     12488     12490     12482     12485     12488     12491
     12483     12482     12485     12486     12483     12482     12485     12487
     12483     12482     12485     12488     12484     12482     12485     12486
     12484     12482     12485     12487     12484     12482     12485     12488
     12485     12488     12491     12492     12485     12488     12491     12493
     12485     12488     12491     12494     12486     12485     12488     12489
     12486     12485     12488     12490     12486     12485     12488     12491
     12487     12485     12488     12489     12487     12485     12488     12490
     12487     12485     12488     12491     12488     12491     12494     12495
     12488     12491     12494     12496     12488     12491     12494     12497
     12489     12488     12491     12492     12489     12488     12491     12493
     12489     12488     12491     12494     12490     12488     12491     12492
     12490     12488     12491     12493     12490     12488     12491     12494
     12491     12494     12497     12498     12491     12494     12497     12499
     12491     12494     12497     12500     12492     12491     12494     12495
     12492     12491     12494     12496     12492     12491     12494     12497
     12493     12491     12494     12495     12493     12491     12494     12496
     12493     12491     12494     12497     12494     12497     12500     12501
     12494     12497     12500     12502     12494     12497     12500     12503
     12495     12494     12497     12498     12495     12494     12497     12499
     12495     12494     12497     12500     12496     12494     12497     12498
     12496     12494     12497     12499     12496     12494     12497     12500
     12497     12500     12503     12504     12497     12500     12503     12505
     12497     12500     12503     12506     12498     12497     12500     12501
     12498     12497     12500     12502     12498     12497     12500     12503
     12499     12497     12500     12501     12499     12497     12500     12502
     12499     12497     12500     12503     12501     12500     12503     12504
     12501     12500     12503     12505     12501     12500     12503     12506
     12502     12500     12503     12504     12502     12500     12503     12505
     12502     12500     12503     12506     12507     12508     12523     12524
     12507     12508     12523     12525     12507     12508     12523     12529
     12508     12507     12511     12512     12508     12507     12511     12513
     12508     12507     12511     12514     12508     12507     12515     12516
     12508     12507     12515     12517     12508     12507     12515     12518
     12508     12507     12519     12520     12508     12507     12519     12521
     12508     12507     12519     12522     12508     12523     12529     12526
     12509     12508     12507     12511     12509     12508     12507     12515
     12509     12508     12507     12519     12509     12508     12523     12524
     12509     12508     12523     12525     12509     12508     12523     12529
     12510     12508     12507     12511     12510     12508     12507     12515
     12510     12508     12507     12519     12510     12508     12523     12524
     12510     12508     12523     12525     12510     12508     12523     12529
     12511     12507     12508     12523     12511     12507     12515     12516
     12511     12507     12515     12517     12511     12507     12515     12518
     12511     12507     12519     12520     12511     12507     12519     12521
     12511     12507     12519     12522     12512     12511     12507     12515
     12512     12511     12507     12519     12513     12511     12507     12515
     12513     12511     12507     12519     12514     12511     12507     12515
     12514     12511     12507     12519     12515     12507     12508     12523
     12515     12507     12519     12520     12515     12507     12519     12521
     12515     12507     12519     12522     12516     12515     12507     12519
     12517     12515     12507     12519     12518     12515     12507     12519
     12519     12507     12508     12523     12523     12529     12526     12527
     12523     12529     12526     12528     12523     12529     12526     12530
     12524     12523     12529     12526     12525     12523     12529     12526
     12526     12530     12531     12532     12526     12530     12531     12533
     12526     12530     12531     12534     12527     12526     12530     12531
     12528     12526     12530     12531     12529     12526     12530     12531
     12530     12531     12534     12535     12530     12531     12534     12536
     12530     12531     12534     12542     12531     12534     12536     12537
     12531     12534     12542     12543     12531     12534     12542     12544
     12531     12534     12542     12545     12532     12531     12534     12535
     12532     12531     12534     12536     12532     12531     12534     12542
     12533     12531     12534     12535     12533     12531     12534     12536
     12533     12531     12534     12542     12534     12536     12537     12538
     12534     12536     12537     12539     12534     12542     12545     12546
     12535     12534     12536     12537     12535     12534     12542     12543
     12535     12534     12542     12544     12535     12534     12542     12545
     12536     12534     12542     12543     12536     12534     12542     12544
     12536     12534     12542     12545     12536     12537     12539     12540
     12536     12537     12539     12541     12536     12537     12539     12551
     12537     12536     12534     12542     12537     12539     12551     12552
     12537     12539     12551     12553     12537     12539     12551     12554
     12538     12537     12539     12540     12538     12537     12539     12541
     12538     12537     12539     12551     12539     12551     12554     12555
     12539     12551     12554     12556     12539     12551     12554     12557
     12540     12539     12551     12552     12540     12539     12551     12553
     12540     12539     12551     12554     12541     12539     12551     12552
     12541     12539     12551     12553     12541     12539     12551     12554
     12542     12545     12546     12547     12542     12545     12546     12548
     12543     12542     12545     12546     12544     12542     12545     12546
     12545     12546     12548     12549     12545     12546     12548     12550
     12545     12546     12548     12598     12546     12548     12598     12599
     12546     12548     12598     12600     12546     12548     12598     12601
     12547     12546     12548     12549     12547     12546     12548     12550
     12547     12546     12548     12598     12548     12598     12601     12602
     12548     12598     12601     12603     12548     12598     12601     12604
     12549     12548     12598     12599     12549     12548     12598     12600
     12549     12548     12598     12601     12550     12548     12598     12599
     12550     12548     12598     12600     12550     12548     12598     12601
     12551     12554     12557     12558     12551     12554     12557     12559
     12551     12554     12557     12560     12552     12551     12554     12555
     12552     12551     12554     12556     12552     12551     12554     12557
     12553     12551     12554     12555     12553     12551     12554     12556
     12553     12551     12554     12557     12554     12557     12560     12561
     12554     12557     12560     12562     12554     12557     12560     12563
     12555     12554     12557     12558     12555     12554     12557     12559
     12555     12554     12557     12560     12556     12554     12557     12558
     12556     12554     12557     12559     12556     12554     12557     12560
     12557     12560     12563     12564     12557     12560     12563     12565
     12557     12560     12563     12566     12558     12557     12560     12561
     12558     12557     12560     12562     12558     12557     12560     12563
     12559     12557     12560     12561     12559     12557     12560     12562
     12559     12557     12560     12563     12560     12563     12566     12567
     12560     12563     12566     12568     12560     12563     12566     12569
     12561     12560     12563     12564     12561     12560     12563     12565
     12561     12560     12563     12566     12562     12560     12563     12564
     12562     12560     12563     12565     12562     12560     12563     12566
     12563     12566     12569     12570     12563     12566     12569     12571
     12564     12563     12566     12567     12564     12563     12566     12568
     12564     12563     12566     12569     12565     12563     12566     12567
     12565     12563     12566     12568     12565     12563     12566     12569
     12566     12569     12571     12572     12566     12569     12571     12573
     12567     12566     12569     12570     12567     12566     12569     12571
     12568     12566     12569     12570     12568     12566     12569     12571
     12569     12571     12573     12574     12569     12571     12573     12575
     12569     12571     12573     12576     12570     12569     12571     12572
     12570     12569     12571     12573     12571     12573     12576     12577
     12571     12573     12576     12578     12571     12573     12576     12579
     12572     12571     12573     12574     12572     12571     12573     12575
     12572     12571     12573     12576     12573     12576     12579     12580
     12573     12576     12579     12581     12573     12576     12579     12582
     12574     12573     12576     12577     12574     12573     12576     12578
     12574     12573     12576     12579     12575     12573     12576     12577
     12575     12573     12576     12578     12575     12573     12576     12579
     12576     12579     12582     12583     12576     12579     12582     12584
     12576     12579     12582     12585     12577     12576     12579     12580
     12577     12576     12579     12581     12577     12576     12579     12582
     12578     12576     12579     12580     12578     12576     12579     12581
     12578     12576     12579     12582     12579     12582     12585     12586
     12579     12582     12585     12587     12579     12582     12585     12588
     12580     12579     12582     12583     12580     12579     12582     12584
     12580     12579     12582     12585     12581     12579     12582     12583
     12581     12579     12582     12584     12581     12579     12582     12585
     12582     12585     12588     12589     12582     12585     12588     12590
     12582     12585     12588     12591     12583     12582     12585     12586
     12583     12582     12585     12587     12583     12582     12585     12588
     12584     12582     12585     12586     12584     12582     12585     12587
     12584     12582     12585     12588     12585     12588     12591     12592
     12585     12588     12591     12593     12585     12588     12591     12594
     12586     12585     12588     12589     12586     12585     12588     12590
     12586     12585     12588     12591     12587     12585     12588     12589
     12587     12585     12588     12590     12587     12585     12588     12591
     12588     12591     12594     12595     12588     12591     12594     12596
     12588     12591     12594     12597     12589     12588     12591     12592
     12589     12588     12591     12593     12589     12588     12591     12594
     12590     12588     12591     12592     12590     12588     12591     12593
     12590     12588     12591     12594     12592     12591     12594     12595
     12592     12591     12594     12596     12592     12591     12594     12597
     12593     12591     12594     12595     12593     12591     12594     12596
     12593     12591     12594     12597     12598     12601     12604     12605
     12598     12601     12604     12606     12598     12601     12604     12607
     12599     12598     12601     12602     12599     12598     12601     12603
     12599     12598     12601     12604     12600     12598     12601     12602
     12600     12598     12601     12603     12600     12598     12601     12604
     12601     12604     12607     12608     12601     12604     12607     12609
     12601     12604     12607     12610     12602     12601     12604     12605
     12602     12601     12604     12606     12602     12601     12604     12607
     12603     12601     12604     12605     12603     12601     12604     12606
     12603     12601     12604     12607     12604     12607     12610     12611
     12604     12607     12610     12612     12604     12607     12610     12613
     12605     12604     12607     12608     12605     12604     12607     12609
     12605     12604     12607     12610     12606     12604     12607     12608
     12606     12604     12607     12609     12606     12604     12607     12610
     12607     12610     12613     12614     12607     12610     12613     12615
     12607     12610     12613     12616     12608     12607     12610     12611
     12608     12607     12610     12612     12608     12607     12610     12613
     12609     12607     12610     12611     12609     12607     12610     12612
     12609     12607     12610     12613     12610     12613     12616     12617
     12610     12613     12616     12618     12611     12610     12613     12614
     12611     12610     12613     12615     12611     12610     12613     12616
     12612     12610     12613     12614     12612     12610     12613     12615
     12612     12610     12613     12616     12613     12616     12618     12619
     12613     12616     12618     12620     12614     12613     12616     12617
     12614     12613     12616     12618     12615     12613     12616     12617
     12615     12613     12616     12618     12616     12618     12620     12621
     12616     12618     12620     12622     12616     12618     12620     12623
     12617     12616     12618     12619     12617     12616     12618     12620
     12618     12620     12623     12624     12618     12620     12623     12625
     12618     12620     12623     12626     12619     12618     12620     12621
     12619     12618     12620     12622     12619     12618     12620     12623
     12620     12623     12626     12627     12620     12623     12626     12628
     12620     12623     12626     12629     12621     12620     12623     12624
     12621     12620     12623     12625     12621     12620     12623     12626
     12622     12620     12623     12624     12622     12620     12623     12625
     12622     12620     12623     12626     12623     12626     12629     12630
     12623     12626     12629     12631     12623     12626     12629     12632
     12624     12623     12626     12627     12624     12623     12626     12628
     12624     12623     12626     12629     12625     12623     12626     12627
     12625     12623     12626     12628     12625     12623     12626     12629
     12626     12629     12632     12633     12626     12629     12632     12634
     12626     12629     12632     12635     12627     12626     12629     12630
     12627     12626     12629     12631     12627     12626     12629     12632
     12628     12626     12629     12630     12628     12626     12629     12631
     12628     12626     12629     12632     12629     12632     12635     12636
     12629     12632     12635     12637     12629     12632     12635     12638
     12630     12629     12632     12633     12630     12629     12632     12634
     12630     12629     12632     12635     12631     12629     12632     12633
     12631     12629     12632     12634     12631     12629     12632     12635
     12632     12635     12638     12639     12632     12635     12638     12640
     12632     12635     12638     12641     12633     12632     12635     12636
     12633     12632     12635     12637     12633     12632     12635     12638
     12634     12632     12635     12636     12634     12632     12635     12637
     12634     12632     12635     12638     12635     12638     12641     12642
     12635     12638     12641     12643     12635     12638     12641     12644
     12636     12635     12638     12639     12636     12635     12638     12640
     12636     12635     12638     12641     12637     12635     12638     12639
     12637     12635     12638     12640     12637     12635     12638     12641
     12639     12638     12641     12642     12639     12638     12641     12643
     12639     12638     12641     12644     12640     12638     12641     12642
     12640     12638     12641     12643     12640     12638     12641     12644
     12645     12646     12661     12662     12645     12646     12661     12663
     12645     12646     12661     12667     12646     12645     12649     12650
     12646     12645     12649     12651     12646     12645     12649     12652
     12646     12645     12653     12654     12646     12645     12653     12655
     12646     12645     12653     12656     12646     12645     12657     12658
     12646     12645     12657     12659     12646     12645     12657     12660
     12646     12661     12667     12664     12647     12646     12645     12649
     12647     12646     12645     12653     12647     12646     12645     12657
     12647     12646     12661     12662     12647     12646     12661     12663
     12647     12646     12661     12667     12648     12646     12645     12649
     12648     12646     12645     12653     12648     12646     12645     12657
     12648     12646     12661     12662     12648     12646     12661     12663
     12648     12646     12661     12667     12649     12645     12646     12661
     12649     12645     12653     12654     12649     12645     12653     12655
     12649     12645     12653     12656     12649     12645     12657     12658
     12649     12645     12657     12659     12649     12645     12657     12660
     12650     12649     12645     12653     12650     12649     12645     12657
     12651     12649     12645     12653     12651     12649     12645     12657
     12652     12649     12645     12653     12652     12649     12645     12657
     12653     12645     12646     12661     12653     12645     12657     12658
     12653     12645     12657     12659     12653     12645     12657     12660
     12654     12653     12645     12657     12655     12653     12645     12657
     12656     12653     12645     12657     12657     12645     12646     12661
     12661     12667     12664     12665     12661     12667     12664     12666
     12661     12667     12664     12668     12662     12661     12667     12664
     12663     12661     12667     12664     12664     12668     12669     12670
     12664     12668     12669     12671     12664     12668     12669     12672
     12665     12664     12668     12669     12666     12664     12668     12669
     12667     12664     12668     12669     12668     12669     12672     12673
     12668     12669     12672     12674     12668     12669     12672     12680
     12669     12672     12674     12675     12669     12672     12680     12681
     12669     12672     12680     12682     12669     12672     12680     12683
     12670     12669     12672     12673     12670     12669     12672     12674
     12670     12669     12672     12680     12671     12669     12672     12673
     12671     12669     12672     12674     12671     12669     12672     12680
     12672     12674     12675     12676     12672     12674     12675     12677
     12672     12680     12683     12684     12673     12672     12674     12675
     12673     12672     12680     12681     12673     12672     12680     12682
     12673     12672     12680     12683     12674     12672     12680     12681
     12674     12672     12680     12682     12674     12672     12680     12683
     12674     12675     12677     12678     12674     12675     12677     12679
     12674     12675     12677     12689     12675     12674     12672     12680
     12675     12677     12689     12690     12675     12677     12689     12691
     12675     12677     12689     12692     12676     12675     12677     12678
     12676     12675     12677     12679     12676     12675     12677     12689
     12677     12689     12692     12693     12677     12689     12692     12694
     12677     12689     12692     12695     12678     12677     12689     12690
     12678     12677     12689     12691     12678     12677     12689     12692
     12679     12677     12689     12690     12679     12677     12689     12691
     12679     12677     12689     12692     12680     12683     12684     12685
     12680     12683     12684     12686     12681     12680     12683     12684
     12682     12680     12683     12684     12683     12684     12686     12687
     12683     12684     12686     12688     12683     12684     12686     12736
     12684     12686     12736     12737     12684     12686     12736     12738
     12684     12686     12736     12739     12685     12684     12686     12687
     12685     12684     12686     12688     12685     12684     12686     12736
     12686     12736     12739     12740     12686     12736     12739     12741
     12686     12736     12739     12742     12687     12686     12736     12737
     12687     12686     12736     12738     12687     12686     12736     12739
     12688     12686     12736     12737     12688     12686     12736     12738
     12688     12686     12736     12739     12689     12692     12695     12696
     12689     12692     12695     12697     12689     12692     12695     12698
     12690     12689     12692     12693     12690     12689     12692     12694
     12690     12689     12692     12695     12691     12689     12692     12693
     12691     12689     12692     12694     12691     12689     12692     12695
     12692     12695     12698     12699     12692     12695     12698     12700
     12692     12695     12698     12701     12693     12692     12695     12696
     12693     12692     12695     12697     12693     12692     12695     12698
     12694     12692     12695     12696     12694     12692     12695     12697
     12694     12692     12695     12698     12695     12698     12701     12702
     12695     12698     12701     12703     12695     12698     12701     12704
     12696     12695     12698     12699     12696     12695     12698     12700
     12696     12695     12698     12701     12697     12695     12698     12699
     12697     12695     12698     12700     12697     12695     12698     12701
     12698     12701     12704     12705     12698     12701     12704     12706
     12698     12701     12704     12707     12699     12698     12701     12702
     12699     12698     12701     12703     12699     12698     12701     12704
     12700     12698     12701     12702     12700     12698     12701     12703
     12700     12698     12701     12704     12701     12704     12707     12708
     12701     12704     12707     12709     12702     12701     12704     12705
     12702     12701     12704     12706     12702     12701     12704     12707
     12703     12701     12704     12705     12703     12701     12704     12706
     12703     12701     12704     12707     12704     12707     12709     12710
     12704     12707     12709     12711     12705     12704     12707     12708
     12705     12704     12707     12709     12706     12704     12707     12708
     12706     12704     12707     12709     12707     12709     12711     12712
     12707     12709     12711     12713     12707     12709     12711     12714
     12708     12707     12709     12710     12708     12707     12709     12711
     12709     12711     12714     12715     12709     12711     12714     12716
     12709     12711     12714     12717     12710     12709     12711     12712
     12710     12709     12711     12713     12710     12709     12711     12714
     12711     12714     12717     12718     12711     12714     12717     12719
     12711     12714     12717     12720     12712     12711     12714     12715
     12712     12711     12714     12716     12712     12711     12714     12717
     12713     12711     12714     12715     12713     12711     12714     12716
     12713     12711     12714     12717     12714     12717     12720     12721
     12714     12717     12720     12722     12714     12717     12720     12723
     12715     12714     12717     12718     12715     12714     12717     12719
     12715     12714     12717     12720     12716     12714     12717     12718
     12716     12714     12717     12719     12716     12714     12717     12720
     12717     12720     12723     12724     12717     12720     12723     12725
     12717     12720     12723     12726     12718     12717     12720     12721
     12718     12717     12720     12722     12718     12717     12720     12723
     12719     12717     12720     12721     12719     12717     12720     12722
     12719     12717     12720     12723     12720     12723     12726     12727
     12720     12723     12726     12728     12720     12723     12726     12729
     12721     12720     12723     12724     12721     12720     12723     12725
     12721     12720     12723     12726     12722     12720     12723     12724
     12722     12720     12723     12725     12722     12720     12723     12726
     12723     12726     12729     12730     12723     12726     12729     12731
     12723     12726     12729     12732     12724     12723     12726     12727
     12724     12723     12726     12728     12724     12723     12726     12729
     12725     12723     12726     12727     12725     12723     12726     12728
     12725     12723     12726     12729     12726     12729     12732     12733
     12726     12729     12732     12734     12726     12729     12732     12735
     12727     12726     12729     12730     12727     12726     12729     12731
     12727     12726     12729     12732     12728     12726     12729     12730
     12728     12726     12729     12731     12728     12726     12729     12732
     12730     12729     12732     12733     12730     12729     12732     12734
     12730     12729     12732     12735     12731     12729     12732     12733
     12731     12729     12732     12734     12731     12729     12732     12735
     12736     12739     12742     12743     12736     12739     12742     12744
     12736     12739     12742     12745     12737     12736     12739     12740
     12737     12736     12739     12741     12737     12736     12739     12742
     12738     12736     12739     12740     12738     12736     12739     12741
     12738     12736     12739     12742     12739     12742     12745     12746
     12739     12742     12745     12747     12739     12742     12745     12748
     12740     12739     12742     12743     12740     12739     12742     12744
     12740     12739     12742     12745     12741     12739     12742     12743
     12741     12739     12742     12744     12741     12739     12742     12745
     12742     12745     12748     12749     12742     12745     12748     12750
     12742     12745     12748     12751     12743     12742     12745     12746
     12743     12742     12745     12747     12743     12742     12745     12748
     12744     12742     12745     12746     12744     12742     12745     12747
     12744     12742     12745     12748     12745     12748     12751     12752
     12745     12748     12751     12753     12745     12748     12751     12754
     12746     12745     12748     12749     12746     12745     12748     12750
     12746     12745     12748     12751     12747     12745     12748     12749
     12747     12745     12748     12750     12747     12745     12748     12751
     12748     12751     12754     12755     12748     12751     12754     12756
     12749     12748     12751     12752     12749     12748     12751     12753
     12749     12748     12751     12754     12750     12748     12751     12752
     12750     12748     12751     12753     12750     12748     12751     12754
     12751     12754     12756     12757     12751     12754     12756     12758
     12752     12751     12754     12755     12752     12751     12754     12756
     12753     12751     12754     12755     12753     12751     12754     12756
     12754     12756     12758     12759     12754     12756     12758     12760
     12754     12756     12758     12761     12755     12754     12756     12757
     12755     12754     12756     12758     12756     12758     12761     12762
     12756     12758     12761     12763     12756     12758     12761     12764
     12757     12756     12758     12759     12757     12756     12758     12760
     12757     12756     12758     12761     12758     12761     12764     12765
     12758     12761     12764     12766     12758     12761     12764     12767
     12759     12758     12761     12762     12759     12758     12761     12763
     12759     12758     12761     12764     12760     12758     12761     12762
     12760     12758     12761     12763     12760     12758     12761     12764
     12761     12764     12767     12768     12761     12764     12767     12769
     12761     12764     12767     12770     12762     12761     12764     12765
     12762     12761     12764     12766     12762     12761     12764     12767
     12763     12761     12764     12765     12763     12761     12764     12766
     12763     12761     12764     12767     12764     12767     12770     12771
     12764     12767     12770     12772     12764     12767     12770     12773
     12765     12764     12767     12768     12765     12764     12767     12769
     12765     12764     12767     12770     12766     12764     12767     12768
     12766     12764     12767     12769     12766     12764     12767     12770
     12767     12770     12773     12774     12767     12770     12773     12775
     12767     12770     12773     12776     12768     12767     12770     12771
     12768     12767     12770     12772     12768     12767     12770     12773
     12769     12767     12770     12771     12769     12767     12770     12772
     12769     12767     12770     12773     12770     12773     12776     12777
     12770     12773     12776     12778     12770     12773     12776     12779
     12771     12770     12773     12774     12771     12770     12773     12775
     12771     12770     12773     12776     12772     12770     12773     12774
     12772     12770     12773     12775     12772     12770     12773     12776
     12773     12776     12779     12780     12773     12776     12779     12781
     12773     12776     12779     12782     12774     12773     12776     12777
     12774     12773     12776     12778     12774     12773     12776     12779
     12775     12773     12776     12777     12775     12773     12776     12778
     12775     12773     12776     12779     12777     12776     12779     12780
     12777     12776     12779     12781     12777     12776     12779     12782
     12778     12776     12779     12780     12778     12776     12779     12781
     12778     12776     12779     12782     12783     12784     12799     12800
     12783     12784     12799     12801     12783     12784     12799     12805
     12784     12783     12787     12788     12784     12783     12787     12789
     12784     12783     12787     12790     12784     12783     12791     12792
     12784     12783     12791     12793     12784     12783     12791     12794
     12784     12783     12795     12796     12784     12783     12795     12797
     12784     12783     12795     12798     12784     12799     12805     12802
     12785     12784     12783     12787     12785     12784     12783     12791
     12785     12784     12783     12795     12785     12784     12799     12800
     12785     12784     12799     12801     12785     12784     12799     12805
     12786     12784     12783     12787     12786     12784     12783     12791
     12786     12784     12783     12795     12786     12784     12799     12800
     12786     12784     12799     12801     12786     12784     12799     12805
     12787     12783     12784     12799     12787     12783     12791     12792
     12787     12783     12791     12793     12787     12783     12791     12794
     12787     12783     12795     12796     12787     12783     12795     12797
     12787     12783     12795     12798     12788     12787     12783     12791
     12788     12787     12783     12795     12789     12787     12783     12791
     12789     12787     12783     12795     12790     12787     12783     12791
     12790     12787     12783     12795     12791     12783     12784     12799
     12791     12783     12795     12796     12791     12783     12795     12797
     12791     12783     12795     12798     12792     12791     12783     12795
     12793     12791     12783     12795     12794     12791     12783     12795
     12795     12783     12784     12799     12799     12805     12802     12803
     12799     12805     12802     12804     12799     12805     12802     12806
     12800     12799     12805     12802     12801     12799     12805     12802
     12802     12806     12807     12808     12802     12806     12807     12809
     12802     12806     12807     12810     12803     12802     12806     12807
     12804     12802     12806     12807     12805     12802     12806     12807
     12806     12807     12810     12811     12806     12807     12810     12812
     12806     12807     12810     12818     12807     12810     12812     12813
     12807     12810     12818     12819     12807     12810     12818     12820
     12807     12810     12818     12821     12808     12807     12810     12811
     12808     12807     12810     12812     12808     12807     12810     12818
     12809     12807     12810     12811     12809     12807     12810     12812
     12809     12807     12810     12818     12810     12812     12813     12814
     12810     12812     12813     12815     12810     12818     12821     12822
     12811     12810     12812     12813     12811     12810     12818     12819
     12811     12810     12818     12820     12811     12810     12818     12821
     12812     12810     12818     12819     12812     12810     12818     12820
     12812     12810     12818     12821     12812     12813     12815     12816
     12812     12813     12815     12817     12812     12813     12815     12827
     12813     12812     12810     12818     12813     12815     12827     12828
     12813     12815     12827     12829     12813     12815     12827     12830
     12814     12813     12815     12816     12814     12813     12815     12817
     12814     12813     12815     12827     12815     12827     12830     12831
     12815     12827     12830     12832     12815     12827     12830     12833
     12816     12815     12827     12828     12816     12815     12827     12829
     12816     12815     12827     12830     12817     12815     12827     12828
     12817     12815     12827     12829     12817     12815     12827     12830
     12818     12821     12822     12823     12818     12821     12822     12824
     12819     12818     12821     12822     12820     12818     12821     12822
     12821     12822     12824     12825     12821     12822     12824     12826
     12821     12822     12824     12874     12822     12824     12874     12875
     12822     12824     12874     12876     12822     12824     12874     12877
     12823     12822     12824     12825     12823     12822     12824     12826
     12823     12822     12824     12874     12824     12874     12877     12878
     12824     12874     12877     12879     12824     12874     12877     12880
     12825     12824     12874     12875     12825     12824     12874     12876
     12825     12824     12874     12877     12826     12824     12874     12875
     12826     12824     12874     12876     12826     12824     12874     12877
     12827     12830     12833     12834     12827     12830     12833     12835
     12827     12830     12833     12836     12828     12827     12830     12831
     12828     12827     12830     12832     12828     12827     12830     12833
     12829     12827     12830     12831     12829     12827     12830     12832
     12829     12827     12830     12833     12830     12833     12836     12837
     12830     12833     12836     12838     12830     12833     12836     12839
     12831     12830     12833     12834     12831     12830     12833     12835
     12831     12830     12833     12836     12832     12830     12833     12834
     12832     12830     12833     12835     12832     12830     12833     12836
     12833     12836     12839     12840     12833     12836     12839     12841
     12833     12836     12839     12842     12834     12833     12836     12837
     12834     12833     12836     12838     12834     12833     12836     12839
     12835     12833     12836     12837     12835     12833     12836     12838
     12835     12833     12836     12839     12836     12839     12842     12843
     12836     12839     12842     12844     12836     12839     12842     12845
     12837     12836     12839     12840     12837     12836     12839     12841
     12837     12836     12839     12842     12838     12836     12839     12840
     12838     12836     12839     12841     12838     12836     12839     12842
     12839     12842     12845     12846     12839     12842     12845     12847
     12840     12839     12842     12843     12840     12839     12842     12844
     12840     12839     12842     12845     12841     12839     12842     12843
     12841     12839     12842     12844     12841     12839     12842     12845
     12842     12845     12847     12848     12842     12845     12847     12849
     12843     12842     12845     12846     12843     12842     12845     12847
     12844     12842     12845     12846     12844     12842     12845     12847
     12845     12847     12849     12850     12845     12847     12849     12851
     12845     12847     12849     12852     12846     12845     12847     12848
     12846     12845     12847     12849     12847     12849     12852     12853
     12847     12849     12852     12854     12847     12849     12852     12855
     12848     12847     12849     12850     12848     12847     12849     12851
     12848     12847     12849     12852     12849     12852     12855     12856
     12849     12852     12855     12857     12849     12852     12855     12858
     12850     12849     12852     12853     12850     12849     12852     12854
     12850     12849     12852     12855     12851     12849     12852     12853
     12851     12849     12852     12854     12851     12849     12852     12855
     12852     12855     12858     12859     12852     12855     12858     12860
     12852     12855     12858     12861     12853     12852     12855     12856
     12853     12852     12855     12857     12853     12852     12855     12858
     12854     12852     12855     12856     12854     12852     12855     12857
     12854     12852     12855     12858     12855     12858     12861     12862
     12855     12858     12861     12863     12855     12858     12861     12864
     12856     12855     12858     12859     12856     12855     12858     12860
     12856     12855     12858     12861     12857     12855     12858     12859
     12857     12855     12858     12860     12857     12855     12858     12861
     12858     12861     12864     12865     12858     12861     12864     12866
     12858     12861     12864     12867     12859     12858     12861     12862
     12859     12858     12861     12863     12859     12858     12861     12864
     12860     12858     12861     12862     12860     12858     12861     12863
     12860     12858     12861     12864     12861     12864     12867     12868
     12861     12864     12867     12869     12861     12864     12867     12870
     12862     12861     12864     12865     12862     12861     12864     12866
     12862     12861     12864     12867     12863     12861     12864     12865
     12863     12861     12864     12866     12863     12861     12864     12867
     12864     12867     12870     12871     12864     12867     12870     12872
     12864     12867     12870     12873     12865     12864     12867     12868
     12865     12864     12867     12869     12865     12864     12867     12870
     12866     12864     12867     12868     12866     12864     12867     12869
     12866     12864     12867     12870     12868     12867     12870     12871
     12868     12867     12870     12872     12868     12867     12870     12873
     12869     12867     12870     12871     12869     12867     12870     12872
     12869     12867     12870     12873     12874     12877     12880     12881
     12874     12877     12880     12882     12874     12877     12880     12883
     12875     12874     12877     12878     12875     12874     12877     12879
     12875     12874     12877     12880     12876     12874     12877     12878
     12876     12874     12877     12879     12876     12874     12877     12880
     12877     12880     12883     12884     12877     12880     12883     12885
     12877     12880     12883     12886     12878     12877     12880     12881
     12878     12877     12880     12882     12878     12877     12880     12883
     12879     12877     12880     12881     12879     12877     12880     12882
     12879     12877     12880     12883     12880     12883     12886     12887
     12880     12883     12886     12888     12880     12883     12886     12889
     12881     12880     12883     12884     12881     12880     12883     12885
     12881     12880     12883     12886     12882     12880     12883     12884
     12882     12880     12883     12885     12882     12880     12883     12886
     12883     12886     12889     12890     12883     12886     12889     12891
     12883     12886     12889     12892     12884     12883     12886     12887
     12884     12883     12886     12888     12884     12883     12886     12889
     12885     12883     12886     12887     12885     12883     12886     12888
     12885     12883     12886     12889     12886     12889     12892     12893
     12886     12889     12892     12894     12887     12886     12889     12890
     12887     12886     12889     12891     12887     12886     12889     12892
     12888     12886     12889     12890     12888     12886     12889     12891
     12888     12886     12889     12892     12889     12892     12894     12895
     12889     12892     12894     12896     12890     12889     12892     12893
     12890     12889     12892     12894     12891     12889     12892     12893
     12891     12889     12892     12894     12892     12894     12896     12897
     12892     12894     12896     12898     12892     12894     12896     12899
     12893     12892     12894     12895     12893     12892     12894     12896
     12894     12896     12899     12900     12894     12896     12899     12901
     12894     12896     12899     12902     12895     12894     12896     12897
     12895     12894     12896     12898     12895     12894     12896     12899
     12896     12899     12902     12903     12896     12899     12902     12904
     12896     12899     12902     12905     12897     12896     12899     12900
     12897     12896     12899     12901     12897     12896     12899     12902
     12898     12896     12899     12900     12898     12896     12899     12901
     12898     12896     12899     12902     12899     12902     12905     12906
     12899     12902     12905     12907     12899     12902     12905     12908
     12900     12899     12902     12903     12900     12899     12902     12904
     12900     12899     12902     12905     12901     12899     12902     12903
     12901     12899     12902     12904     12901     12899     12902     12905
     12902     12905     12908     12909     12902     12905     12908     12910
     12902     12905     12908     12911     12903     12902     12905     12906
     12903     12902     12905     12907     12903     12902     12905     12908
     12904     12902     12905     12906     12904     12902     12905     12907
     12904     12902     12905     12908     12905     12908     12911     12912
     12905     12908     12911     12913     12905     12908     12911     12914
     12906     12905     12908     12909     12906     12905     12908     12910
     12906     12905     12908     12911     12907     12905     12908     12909
     12907     12905     12908     12910     12907     12905     12908     12911
     12908     12911     12914     12915     12908     12911     12914     12916
     12908     12911     12914     12917     12909     12908     12911     12912
     12909     12908     12911     12913     12909     12908     12911     12914
     12910     12908     12911     12912     12910     12908     12911     12913
     12910     12908     12911     12914     12911     12914     12917     12918
     12911     12914     12917     12919     12911     12914     12917     12920
     12912     12911     12914     12915     12912     12911     12914     12916
     12912     12911     12914     12917     12913     12911     12914     12915
     12913     12911     12914     12916     12913     12911     12914     12917
     12915     12914     12917     12918     12915     12914     12917     12919
     12915     12914     12917     12920     12916     12914     12917     12918
     12916     12914     12917     12919     12916     12914     12917     12920
     12921     12922     12937     12938     12921     12922     12937     12939
     12921     12922     12937     12943     12922     12921     12925     12926
     12922     12921     12925     12927     12922     12921     12925     12928
     12922     12921     12929     12930     12922     12921     12929     12931
     12922     12921     12929     12932     12922     12921     12933     12934
     12922     12921     12933     12935     12922     12921     12933     12936
     12922     12937     12943     12940     12923     12922     12921     12925
     12923     12922     12921     12929     12923     12922     12921     12933
     12923     12922     12937     12938     12923     12922     12937     12939
     12923     12922     12937     12943     12924     12922     12921     12925
     12924     12922     12921     12929     12924     12922     12921     12933
     12924     12922     12937     12938     12924     12922     12937     12939
     12924     12922     12937     12943     12925     12921     12922     12937
     12925     12921     12929     12930     12925     12921     12929     12931
     12925     12921     12929     12932     12925     12921     12933     12934
     12925     12921     12933     12935     12925     12921     12933     12936
     12926     12925     12921     12929     12926     12925     12921     12933
     12927     12925     12921     12929     12927     12925     12921     12933
     12928     12925     12921     12929     12928     12925     12921     12933
     12929     12921     12922     12937     12929     12921     12933     12934
     12929     12921     12933     12935     12929     12921     12933     12936
     12930     12929     12921     12933     12931     12929     12921     12933
     12932     12929     12921     12933     12933     12921     12922     12937
     12937     12943     12940     12941     12937     12943     12940     12942
     12937     12943     12940     12944     12938     12937     12943     12940
     12939     12937     12943     12940     12940     12944     12945     12946
     12940     12944     12945     12947     12940     12944     12945     12948
     12941     12940     12944     12945     12942     12940     12944     12945
     12943     12940     12944     12945     12944     12945     12948     12949
     12944     12945     12948     12950     12944     12945     12948     12956
     12945     12948     12950     12951     12945     12948     12956     12957
     12945     12948     12956     12958     12945     12948     12956     12959
     12946     12945     12948     12949     12946     12945     12948     12950
     12946     12945     12948     12956     12947     12945     12948     12949
     12947     12945     12948     12950     12947     12945     12948     12956
     12948     12950     12951     12952     12948     12950     12951     12953
     12948     12956     12959     12960     12949     12948     12950     12951
     12949     12948     12956     12957     12949     12948     12956     12958
     12949     12948     12956     12959     12950     12948     12956     12957
     12950     12948     12956     12958     12950     12948     12956     12959
     12950     12951     12953     12954     12950     12951     12953     12955
     12950     12951     12953     12965     12951     12950     12948     12956
     12951     12953     12965     12966     12951     12953     12965     12967
     12951     12953     12965     12968     12952     12951     12953     12954
     12952     12951     12953     12955     12952     12951     12953     12965
     12953     12965     12968     12969     12953     12965     12968     12970
     12953     12965     12968     12971     12954     12953     12965     12966
     12954     12953     12965     12967     12954     12953     12965     12968
     12955     12953     12965     12966     12955     12953     12965     12967
     12955     12953     12965     12968     12956     12959     12960     12961
     12956     12959     12960     12962     12957     12956     12959     12960
     12958     12956     12959     12960     12959     12960     12962     12963
     12959     12960     12962     12964     12959     12960     12962     13012
     12960     12962     13012     13013     12960     12962     13012     13014
     12960     12962     13012     13015     12961     12960     12962     12963
     12961     12960     12962     12964     12961     12960     12962     13012
     12962     13012     13015     13016     12962     13012     13015     13017
     12962     13012     13015     13018     12963     12962     13012     13013
     12963     12962     13012     13014     12963     12962     13012     13015
     12964     12962     13012     13013     12964     12962     13012     13014
     12964     12962     13012     13015     12965     12968     12971     12972
     12965     12968     12971     12973     12965     12968     12971     12974
     12966     12965     12968     12969     12966     12965     12968     12970
     12966     12965     12968     12971     12967     12965     12968     12969
     12967     12965     12968     12970     12967     12965     12968     12971
     12968     12971     12974     12975     12968     12971     12974     12976
     12968     12971     12974     12977     12969     12968     12971     12972
     12969     12968     12971     12973     12969     12968     12971     12974
     12970     12968     12971     12972     12970     12968     12971     12973
     12970     12968     12971     12974     12971     12974     12977     12978
     12971     12974     12977     12979     12971     12974     12977     12980
     12972     12971     12974     12975     12972     12971     12974     12976
     12972     12971     12974     12977     12973     12971     12974     12975
     12973     12971     12974     12976     12973     12971     12974     12977
     12974     12977     12980     12981     12974     12977     12980     12982
     12974     12977     12980     12983     12975     12974     12977     12978
     12975     12974     12977     12979     12975     12974     12977     12980
     12976     12974     12977     12978     12976     12974     12977     12979
     12976     12974     12977     12980     12977     12980     12983     12984
     12977     12980     12983     12985     12978     12977     12980     12981
     12978     12977     12980     12982     12978     12977     12980     12983
     12979     12977     12980     12981     12979     12977     12980     12982
     12979     12977     12980     12983     12980     12983     12985     12986
     12980     12983     12985     12987     12981     12980     12983     12984
     12981     12980     12983     12985     12982     12980     12983     12984
     12982     12980     12983     12985     12983     12985     12987     12988
     12983     12985     12987     12989     12983     12985     12987     12990
     12984     12983     12985     12986     12984     12983     12985     12987
     12985     12987     12990     12991     12985     12987     12990     12992
     12985     12987     12990     12993     12986     12985     12987     12988
     12986     12985     12987     12989     12986     12985     12987     12990
     12987     12990     12993     12994     12987     12990     12993     12995
     12987     12990     12993     12996     12988     12987     12990     12991
     12988     12987     12990     12992     12988     12987     12990     12993
     12989     12987     12990     12991     12989     12987     12990     12992
     12989     12987     12990     12993     12990     12993     12996     12997
     12990     12993     12996     12998     12990     12993     12996     12999
     12991     12990     12993     12994     12991     12990     12993     12995
     12991     12990     12993     12996     12992     12990     12993     12994
     12992     12990     12993     12995     12992     12990     12993     12996
     12993     12996     12999     13000     12993     12996     12999     13001
     12993     12996     12999     13002     12994     12993     12996     12997
     12994     12993     12996     12998     12994     12993     12996     12999
     12995     12993     12996     12997     12995     12993     12996     12998
     12995     12993     12996     12999     12996     12999     13002     13003
     12996     12999     13002     13004     12996     12999     13002     13005
     12997     12996     12999     13000     12997     12996     12999     13001
     12997     12996     12999     13002     12998     12996     12999     13000
     12998     12996     12999     13001     12998     12996     12999     13002
     12999     13002     13005     13006     12999     13002     13005     13007
     12999     13002     13005     13008     13000     12999     13002     13003
     13000     12999     13002     13004     13000     12999     13002     13005
     13001     12999     13002     13003     13001     12999     13002     13004
     13001     12999     13002     13005     13002     13005     13008     13009
     13002     13005     13008     13010     13002     13005     13008     13011
     13003     13002     13005     13006     13003     13002     13005     13007
     13003     13002     13005     13008     13004     13002     13005     13006
     13004     13002     13005     13007     13004     13002     13005     13008
     13006     13005     13008     13009     13006     13005     13008     13010
     13006     13005     13008     13011     13007     13005     13008     13009
     13007     13005     13008     13010     13007     13005     13008     13011
     13012     13015     13018     13019     13012     13015     13018     13020
     13012     13015     13018     13021     13013     13012     13015     13016
     13013     13012     13015     13017     13013     13012     13015     13018
     13014     13012     13015     13016     13014     13012     13015     13017
     13014     13012     13015     13018     13015     13018     13021     13022
     13015     13018     13021     13023     13015     13018     13021     13024
     13016     13015     13018     13019     13016     13015     13018     13020
     13016     13015     13018     13021     13017     13015     13018     13019
     13017     13015     13018     13020     13017     13015     13018     13021
     13018     13021     13024     13025     13018     13021     13024     13026
     13018     13021     13024     13027     13019     13018     13021     13022
     13019     13018     13021     13023     13019     13018     13021     13024
     13020     13018     13021     13022     13020     13018     13021     13023
     13020     13018     13021     13024     13021     13024     13027     13028
     13021     13024     13027     13029     13021     13024     13027     13030
     13022     13021     13024     13025     13022     13021     13024     13026
     13022     13021     13024     13027     13023     13021     13024     13025
     13023     13021     13024     13026     13023     13021     13024     13027
     13024     13027     13030     13031     13024     13027     13030     13032
     13025     13024     13027     13028     13025     13024     13027     13029
     13025     13024     13027     13030     13026     13024     13027     13028
     13026     13024     13027     13029     13026     13024     13027     13030
     13027     13030     13032     13033     13027     13030     13032     13034
     13028     13027     13030     13031     13028     13027     13030     13032
     13029     13027     13030     13031     13029     13027     13030     13032
     13030     13032     13034     13035     13030     13032     13034     13036
     13030     13032     13034     13037     13031     13030     13032     13033
     13031     13030     13032     13034     13032     13034     13037     13038
     13032     13034     13037     13039     13032     13034     13037     13040
     13033     13032     13034     13035     13033     13032     13034     13036
     13033     13032     13034     13037     13034     13037     13040     13041
     13034     13037     13040     13042     13034     13037     13040     13043
     13035     13034     13037     13038     13035     13034     13037     13039
     13035     13034     13037     13040     13036     13034     13037     13038
     13036     13034     13037     13039     13036     13034     13037     13040
     13037     13040     13043     13044     13037     13040     13043     13045
     13037     13040     13043     13046     13038     13037     13040     13041
     13038     13037     13040     13042     13038     13037     13040     13043
     13039     13037     13040     13041     13039     13037     13040     13042
     13039     13037     13040     13043     13040     13043     13046     13047
     13040     13043     13046     13048     13040     13043     13046     13049
     13041     13040     13043     13044     13041     13040     13043     13045
     13041     13040     13043     13046     13042     13040     13043     13044
     13042     13040     13043     13045     13042     13040     13043     13046
     13043     13046     13049     13050     13043     13046     13049     13051
     13043     13046     13049     13052     13044     13043     13046     13047
     13044     13043     13046     13048     13044     13043     13046     13049
     13045     13043     13046     13047     13045     13043     13046     13048
     13045     13043     13046     13049     13046     13049     13052     13053
     13046     13049     13052     13054     13046     13049     13052     13055
     13047     13046     13049     13050     13047     13046     13049     13051
     13047     13046     13049     13052     13048     13046     13049     13050
     13048     13046     13049     13051     13048     13046     13049     13052
     13049     13052     13055     13056     13049     13052     13055     13057
     13049     13052     13055     13058     13050     13049     13052     13053
     13050     13049     13052     13054     13050     13049     13052     13055
     13051     13049     13052     13053     13051     13049     13052     13054
     13051     13049     13052     13055     13053     13052     13055     13056
     13053     13052     13055     13057     13053     13052     13055     13058
     13054     13052     13055     13056     13054     13052     13055     13057
     13054     13052     13055     13058     13059     13060     13075     13076
     13059     13060     13075     13077     13059     13060     13075     13081
     13060     13059     13063     13064     13060     13059     13063     13065
     13060     13059     13063     13066     13060     13059     13067     13068
     13060     13059     13067     13069     13060     13059     13067     13070
     13060     13059     13071     13072     13060     13059     13071     13073
     13060     13059     13071     13074     13060     13075     13081     13078
     13061     13060     13059     13063     13061     13060     13059     13067
     13061     13060     13059     13071     13061     13060     13075     13076
     13061     13060     13075     13077     13061     13060     13075     13081
     13062     13060     13059     13063     13062     13060     13059     13067
     13062     13060     13059     13071     13062     13060     13075     13076
     13062     13060     13075     13077     13062     13060     13075     13081
     13063     13059     13060     13075     13063     13059     13067     13068
     13063     13059     13067     13069     13063     13059     13067     13070
     13063     13059     13071     13072     13063     13059     13071     13073
     13063     13059     13071     13074     13064     13063     13059     13067
     13064     13063     13059     13071     13065     13063     13059     13067
     13065     13063     13059     13071     13066     13063     13059     13067
     13066     13063     13059     13071     13067     13059     13060     13075
     13067     13059     13071     13072     13067     13059     13071     13073
     13067     13059     13071     13074     13068     13067     13059     13071
     13069     13067     13059     13071     13070     13067     13059     13071
     13071     13059     13060     13075     13075     13081     13078     13079
     13075     13081     13078     13080     13075     13081     13078     13082
     13076     13075     13081     13078     13077     13075     13081     13078
     13078     13082     13083     13084     13078     13082     13083     13085
     13078     13082     13083     13086     13079     13078     13082     13083
     13080     13078     13082     13083     13081     13078     13082     13083
     13082     13083     13086     13087     13082     13083     13086     13088
     13082     13083     13086     13094     13083     13086     13088     13089
     13083     13086     13094     13095     13083     13086     13094     13096
     13083     13086     13094     13097     13084     13083     13086     13087
     13084     13083     13086     13088     13084     13083     13086     13094
     13085     13083     13086     13087     13085     13083     13086     13088
     13085     13083     13086     13094     13086     13088     13089     13090
     13086     13088     13089     13091     13086     13094     13097     13098
     13087     13086     13088     13089     13087     13086     13094     13095
     13087     13086     13094     13096     13087     13086     13094     13097
     13088     13086     13094     13095     13088     13086     13094     13096
     13088     13086     13094     13097     13088     13089     13091     13092
     13088     13089     13091     13093     13088     13089     13091     13103
     13089     13088     13086     13094     13089     13091     13103     13104
     13089     13091     13103     13105     13089     13091     13103     13106
     13090     13089     13091     13092     13090     13089     13091     13093
     13090     13089     13091     13103     13091     13103     13106     13107
     13091     13103     13106     13108     13091     13103     13106     13109
     13092     13091     13103     13104     13092     13091     13103     13105
     13092     13091     13103     13106     13093     13091     13103     13104
     13093     13091     13103     13105     13093     13091     13103     13106
     13094     13097     13098     13099     13094     13097     13098     13100
     13095     13094     13097     13098     13096     13094     13097     13098
     13097     13098     13100     13101     13097     13098     13100     13102
     13097     13098     13100     13150     13098     13100     13150     13151
     13098     13100     13150     13152     13098     13100     13150     13153
     13099     13098     13100     13101     13099     13098     13100     13102
     13099     13098     13100     13150     13100     13150     13153     13154
     13100     13150     13153     13155     13100     13150     13153     13156
     13101     13100     13150     13151     13101     13100     13150     13152
     13101     13100     13150     13153     13102     13100     13150     13151
     13102     13100     13150     13152     13102     13100     13150     13153
     13103     13106     13109     13110     13103     13106     13109     13111
     13103     13106     13109     13112     13104     13103     13106     13107
     13104     13103     13106     13108     13104     13103     13106     13109
     13105     13103     13106     13107     13105     13103     13106     13108
     13105     13103     13106     13109     13106     13109     13112     13113
     13106     13109     13112     13114     13106     13109     13112     13115
     13107     13106     13109     13110     13107     13106     13109     13111
     13107     13106     13109     13112     13108     13106     13109     13110
     13108     13106     13109     13111     13108     13106     13109     13112
     13109     13112     13115     13116     13109     13112     13115     13117
     13109     13112     13115     13118     13110     13109     13112     13113
     13110     13109     13112     13114     13110     13109     13112     13115
     13111     13109     13112     13113     13111     13109     13112     13114
     13111     13109     13112     13115     13112     13115     13118     13119
     13112     13115     13118     13120     13112     13115     13118     13121
     13113     13112     13115     13116     13113     13112     13115     13117
     13113     13112     13115     13118     13114     13112     13115     13116
     13114     13112     13115     13117     13114     13112     13115     13118
     13115     13118     13121     13122     13115     13118     13121     13123
     13116     13115     13118     13119     13116     13115     13118     13120
     13116     13115     13118     13121     13117     13115     13118     13119
     13117     13115     13118     13120     13117     13115     13118     13121
     13118     13121     13123     13124     13118     13121     13123     13125
     13119     13118     13121     13122     13119     13118     13121     13123
     13120     13118     13121     13122     13120     13118     13121     13123
     13121     13123     13125     13126     13121     13123     13125     13127
     13121     13123     13125     13128     13122     13121     13123     13124
     13122     13121     13123     13125     13123     13125     13128     13129
     13123     13125     13128     13130     13123     13125     13128     13131
     13124     13123     13125     13126     13124     13123     13125     13127
     13124     13123     13125     13128     13125     13128     13131     13132
     13125     13128     13131     13133     13125     13128     13131     13134
     13126     13125     13128     13129     13126     13125     13128     13130
     13126     13125     13128     13131     13127     13125     13128     13129
     13127     13125     13128     13130     13127     13125     13128     13131
     13128     13131     13134     13135     13128     13131     13134     13136
     13128     13131     13134     13137     13129     13128     13131     13132
     13129     13128     13131     13133     13129     13128     13131     13134
     13130     13128     13131     13132     13130     13128     13131     13133
     13130     13128     13131     13134     13131     13134     13137     13138
     13131     13134     13137     13139     13131     13134     13137     13140
     13132     13131     13134     13135     13132     13131     13134     13136
     13132     13131     13134     13137     13133     13131     13134     13135
     13133     13131     13134     13136     13133     13131     13134     13137
     13134     13137     13140     13141     13134     13137     13140     13142
     13134     13137     13140     13143     13135     13134     13137     13138
     13135     13134     13137     13139     13135     13134     13137     13140
     13136     13134     13137     13138     13136     13134     13137     13139
     13136     13134     13137     13140     13137     13140     13143     13144
     13137     13140     13143     13145     13137     13140     13143     13146
     13138     13137     13140     13141     13138     13137     13140     13142
     13138     13137     13140     13143     13139     13137     13140     13141
     13139     13137     13140     13142     13139     13137     13140     13143
     13140     13143     13146     13147     13140     13143     13146     13148
     13140     13143     13146     13149     13141     13140     13143     13144
     13141     13140     13143     13145     13141     13140     13143     13146
     13142     13140     13143     13144     13142     13140     13143     13145
     13142     13140     13143     13146     13144     13143     13146     13147
     13144     13143     13146     13148     13144     13143     13146     13149
     13145     13143     13146     13147     13145     13143     13146     13148
     13145     13143     13146     13149     13150     13153     13156     13157
     13150     13153     13156     13158     13150     13153     13156     13159
     13151     13150     13153     13154     13151     13150     13153     13155
     13151     13150     13153     13156     13152     13150     13153     13154
     13152     13150     13153     13155     13152     13150     13153     13156
     13153     13156     13159     13160     13153     13156     13159     13161
     13153     13156     13159     13162     13154     13153     13156     13157
     13154     13153     13156     13158     13154     13153     13156     13159
     13155     13153     13156     13157     13155     13153     13156     13158
     13155     13153     13156     13159     13156     13159     13162     13163
     13156     13159     13162     13164     13156     13159     13162     13165
     13157     13156     13159     13160     13157     13156     13159     13161
     13157     13156     13159     13162     13158     13156     13159     13160
     13158     13156     13159     13161     13158     13156     13159     13162
     13159     13162     13165     13166     13159     13162     13165     13167
     13159     13162     13165     13168     13160     13159     13162     13163
     13160     13159     13162     13164     13160     13159     13162     13165
     13161     13159     13162     13163     13161     13159     13162     13164
     13161     13159     13162     13165     13162     13165     13168     13169
     13162     13165     13168     13170     13163     13162     13165     13166
     13163     13162     13165     13167     13163     13162     13165     13168
     13164     13162     13165     13166     13164     13162     13165     13167
     13164     13162     13165     13168     13165     13168     13170     13171
     13165     13168     13170     13172     13166     13165     13168     13169
     13166     13165     13168     13170     13167     13165     13168     13169
     13167     13165     13168     13170     13168     13170     13172     13173
     13168     13170     13172     13174     13168     13170     13172     13175
     13169     13168     13170     13171     13169     13168     13170     13172
     13170     13172     13175     13176     13170     13172     13175     13177
     13170     13172     13175     13178     13171     13170     13172     13173
     13171     13170     13172     13174     13171     13170     13172     13175
     13172     13175     13178     13179     13172     13175     13178     13180
     13172     13175     13178     13181     13173     13172     13175     13176
     13173     13172     13175     13177     13173     13172     13175     13178
     13174     13172     13175     13176     13174     13172     13175     13177
     13174     13172     13175     13178     13175     13178     13181     13182
     13175     13178     13181     13183     13175     13178     13181     13184
     13176     13175     13178     13179     13176     13175     13178     13180
     13176     13175     13178     13181     13177     13175     13178     13179
     13177     13175     13178     13180     13177     13175     13178     13181
     13178     13181     13184     13185     13178     13181     13184     13186
     13178     13181     13184     13187     13179     13178     13181     13182
     13179     13178     13181     13183     13179     13178     13181     13184
     13180     13178     13181     13182     13180     13178     13181     13183
     13180     13178     13181     13184     13181     13184     13187     13188
     13181     13184     13187     13189     13181     13184     13187     13190
     13182     13181     13184     13185     13182     13181     13184     13186
     13182     13181     13184     13187     13183     13181     13184     13185
     13183     13181     13184     13186     13183     13181     13184     13187
     13184     13187     13190     13191     13184     13187     13190     13192
     13184     13187     13190     13193     13185     13184     13187     13188
     13185     13184     13187     13189     13185     13184     13187     13190
     13186     13184     13187     13188     13186     13184     13187     13189
     13186     13184     13187     13190     13187     13190     13193     13194
     13187     13190     13193     13195     13187     13190     13193     13196
     13188     13187     13190     13191     13188     13187     13190     13192
     13188     13187     13190     13193     13189     13187     13190     13191
     13189     13187     13190     13192     13189     13187     13190     13193
     13191     13190     13193     13194     13191     13190     13193     13195
     13191     13190     13193     13196     13192     13190     13193     13194
     13192     13190     13193     13195     13192     13190     13193     13196
     13197     13198     13213     13214     13197     13198     13213     13215
     13197     13198     13213     13219     13198     13197     13201     13202
     13198     13197     13201     13203     13198     13197     13201     13204
     13198     13197     13205     13206     13198     13197     13205     13207
     13198     13197     13205     13208     13198     13197     13209     13210
     13198     13197     13209     13211     13198     13197     13209     13212
     13198     13213     13219     13216     13199     13198     13197     13201
     13199     13198     13197     13205     13199     13198     13197     13209
     13199     13198     13213     13214     13199     13198     13213     13215
     13199     13198     13213     13219     13200     13198     13197     13201
     13200     13198     13197     13205     13200     13198     13197     13209
     13200     13198     13213     13214     13200     13198     13213     13215
     13200     13198     13213     13219     13201     13197     13198     13213
     13201     13197     13205     13206     13201     13197     13205     13207
     13201     13197     13205     13208     13201     13197     13209     13210
     13201     13197     13209     13211     13201     13197     13209     13212
     13202     13201     13197     13205     13202     13201     13197     13209
     13203     13201     13197     13205     13203     13201     13197     13209
     13204     13201     13197     13205     13204     13201     13197     13209
     13205     13197     13198     13213     13205     13197     13209     13210
     13205     13197     13209     13211     13205     13197     13209     13212
     13206     13205     13197     13209     13207     13205     13197     13209
     13208     13205     13197     13209     13209     13197     13198     13213
     13213     13219     13216     13217     13213     13219     13216     13218
     13213     13219     13216     13220     13214     13213     13219     13216
     13215     13213     13219     13216     13216     13220     13221     13222
     13216     13220     13221     13223     13216     13220     13221     13224
     13217     13216     13220     13221     13218     13216     13220     13221
     13219     13216     13220     13221     13220     13221     13224     13225
     13220     13221     13224     13226     13220     13221     13224     13232
     13221     13224     13226     13227     13221     13224     13232     13233
     13221     13224     13232     13234     13221     13224     13232     13235
     13222     13221     13224     13225     13222     13221     13224     13226
     13222     13221     13224     13232     13223     13221     13224     13225
     13223     13221     13224     13226     13223     13221     13224     13232
     13224     13226     13227     13228     13224     13226     13227     13229
     13224     13232     13235     13236     13225     13224     13226     13227
     13225     13224     13232     13233     13225     13224     13232     13234
     13225     13224     13232     13235     13226     13224     13232     13233
     13226     13224     13232     13234     13226     13224     13232     13235
     13226     13227     13229     13230     13226     13227     13229     13231
     13226     13227     13229     13241     13227     13226     13224     13232
     13227     13229     13241     13242     13227     13229     13241     13243
     13227     13229     13241     13244     13228     13227     13229     13230
     13228     13227     13229     13231     13228     13227     13229     13241
     13229     13241     13244     13245     13229     13241     13244     13246
     13229     13241     13244     13247     13230     13229     13241     13242
     13230     13229     13241     13243     13230     13229     13241     13244
     13231     13229     13241     13242     13231     13229     13241     13243
     13231     13229     13241     13244     13232     13235     13236     13237
     13232     13235     13236     13238     13233     13232     13235     13236
     13234     13232     13235     13236     13235     13236     13238     13239
     13235     13236     13238     13240     13235     13236     13238     13288
     13236     13238     13288     13289     13236     13238     13288     13290
     13236     13238     13288     13291     13237     13236     13238     13239
     13237     13236     13238     13240     13237     13236     13238     13288
     13238     13288     13291     13292     13238     13288     13291     13293
     13238     13288     13291     13294     13239     13238     13288     13289
     13239     13238     13288     13290     13239     13238     13288     13291
     13240     13238     13288     13289     13240     13238     13288     13290
     13240     13238     13288     13291     13241     13244     13247     13248
     13241     13244     13247     13249     13241     13244     13247     13250
     13242     13241     13244     13245     13242     13241     13244     13246
     13242     13241     13244     13247     13243     13241     13244     13245
     13243     13241     13244     13246     13243     13241     13244     13247
     13244     13247     13250     13251     13244     13247     13250     13252
     13244     13247     13250     13253     13245     13244     13247     13248
     13245     13244     13247     13249     13245     13244     13247     13250
     13246     13244     13247     13248     13246     13244     13247     13249
     13246     13244     13247     13250     13247     13250     13253     13254
     13247     13250     13253     13255     13247     13250     13253     13256
     13248     13247     13250     13251     13248     13247     13250     13252
     13248     13247     13250     13253     13249     13247     13250     13251
     13249     13247     13250     13252     13249     13247     13250     13253
     13250     13253     13256     13257     13250     13253     13256     13258
     13250     13253     13256     13259     13251     13250     13253     13254
     13251     13250     13253     13255     13251     13250     13253     13256
     13252     13250     13253     13254     13252     13250     13253     13255
     13252     13250     13253     13256     13253     13256     13259     13260
     13253     13256     13259     13261     13254     13253     13256     13257
     13254     13253     13256     13258     13254     13253     13256     13259
     13255     13253     13256     13257     13255     13253     13256     13258
     13255     13253     13256     13259     13256     13259     13261     13262
     13256     13259     13261     13263     13257     13256     13259     13260
     13257     13256     13259     13261     13258     13256     13259     13260
     13258     13256     13259     13261     13259     13261     13263     13264
     13259     13261     13263     13265     13259     13261     13263     13266
     13260     13259     13261     13262     13260     13259     13261     13263
     13261     13263     13266     13267     13261     13263     13266     13268
     13261     13263     13266     13269     13262     13261     13263     13264
     13262     13261     13263     13265     13262     13261     13263     13266
     13263     13266     13269     13270     13263     13266     13269     13271
     13263     13266     13269     13272     13264     13263     13266     13267
     13264     13263     13266     13268     13264     13263     13266     13269
     13265     13263     13266     13267     13265     13263     13266     13268
     13265     13263     13266     13269     13266     13269     13272     13273
     13266     13269     13272     13274     13266     13269     13272     13275
     13267     13266     13269     13270     13267     13266     13269     13271
     13267     13266     13269     13272     13268     13266     13269     13270
     13268     13266     13269     13271     13268     13266     13269     13272
     13269     13272     13275     13276     13269     13272     13275     13277
     13269     13272     13275     13278     13270     13269     13272     13273
     13270     13269     13272     13274     13270     13269     13272     13275
     13271     13269     13272     13273     13271     13269     13272     13274
     13271     13269     13272     13275     13272     13275     13278     13279
     13272     13275     13278     13280     13272     13275     13278     13281
     13273     13272     13275     13276     13273     13272     13275     13277
     13273     13272     13275     13278     13274     13272     13275     13276
     13274     13272     13275     13277     13274     13272     13275     13278
     13275     13278     13281     13282     13275     13278     13281     13283
     13275     13278     13281     13284     13276     13275     13278     13279
     13276     13275     13278     13280     13276     13275     13278     13281
     13277     13275     13278     13279     13277     13275     13278     13280
     13277     13275     13278     13281     13278     13281     13284     13285
     13278     13281     13284     13286     13278     13281     13284     13287
     13279     13278     13281     13282     13279     13278     13281     13283
     13279     13278     13281     13284     13280     13278     13281     13282
     13280     13278     13281     13283     13280     13278     13281     13284
     13282     13281     13284     13285     13282     13281     13284     13286
     13282     13281     13284     13287     13283     13281     13284     13285
     13283     13281     13284     13286     13283     13281     13284     13287
     13288     13291     13294     13295     13288     13291     13294     13296
     13288     13291     13294     13297     13289     13288     13291     13292
     13289     13288     13291     13293     13289     13288     13291     13294
     13290     13288     13291     13292     13290     13288     13291     13293
     13290     13288     13291     13294     13291     13294     13297     13298
     13291     13294     13297     13299     13291     13294     13297     13300
     13292     13291     13294     13295     13292     13291     13294     13296
     13292     13291     13294     13297     13293     13291     13294     13295
     13293     13291     13294     13296     13293     13291     13294     13297
     13294     13297     13300     13301     13294     13297     13300     13302
     13294     13297     13300     13303     13295     13294     13297     13298
     13295     13294     13297     13299     13295     13294     13297     13300
     13296     13294     13297     13298     13296     13294     13297     13299
     13296     13294     13297     13300     13297     13300     13303     13304
     13297     13300     13303     13305     13297     13300     13303     13306
     13298     13297     13300     13301     13298     13297     13300     13302
     13298     13297     13300     13303     13299     13297     13300     13301
     13299     13297     13300     13302     13299     13297     13300     13303
     13300     13303     13306     13307     13300     13303     13306     13308
     13301     13300     13303     13304     13301     13300     13303     13305
     13301     13300     13303     13306     13302     13300     13303     13304
     13302     13300     13303     13305     13302     13300     13303     13306
     13303     13306     13308     13309     13303     13306     13308     13310
     13304     13303     13306     13307     13304     13303     13306     13308
     13305     13303     13306     13307     13305     13303     13306     13308
     13306     13308     13310     13311     13306     13308     13310     13312
     13306     13308     13310     13313     13307     13306     13308     13309
     13307     13306     13308     13310     13308     13310     13313     13314
     13308     13310     13313     13315     13308     13310     13313     13316
     13309     13308     13310     13311     13309     13308     13310     13312
     13309     13308     13310     13313     13310     13313     13316     13317
     13310     13313     13316     13318     13310     13313     13316     13319
     13311     13310     13313     13314     13311     13310     13313     13315
     13311     13310     13313     13316     13312     13310     13313     13314
     13312     13310     13313     13315     13312     13310     13313     13316
     13313     13316     13319     13320     13313     13316     13319     13321
     13313     13316     13319     13322     13314     13313     13316     13317
     13314     13313     13316     13318     13314     13313     13316     13319
     13315     13313     13316     13317     13315     13313     13316     13318
     13315     13313     13316     13319     13316     13319     13322     13323
     13316     13319     13322     13324     13316     13319     13322     13325
     13317     13316     13319     13320     13317     13316     13319     13321
     13317     13316     13319     13322     13318     13316     13319     13320
     13318     13316     13319     13321     13318     13316     13319     13322
     13319     13322     13325     13326     13319     13322     13325     13327
     13319     13322     13325     13328     13320     13319     13322     13323
     13320     13319     13322     13324     13320     13319     13322     13325
     13321     13319     13322     13323     13321     13319     13322     13324
     13321     13319     13322     13325     13322     13325     13328     13329
     13322     13325     13328     13330     13322     13325     13328     13331
     13323     13322     13325     13326     13323     13322     13325     13327
     13323     13322     13325     13328     13324     13322     13325     13326
     13324     13322     13325     13327     13324     13322     13325     13328
     13325     13328     13331     13332     13325     13328     13331     13333
     13325     13328     13331     13334     13326     13325     13328     13329
     13326     13325     13328     13330     13326     13325     13328     13331
     13327     13325     13328     13329     13327     13325     13328     13330
     13327     13325     13328     13331     13329     13328     13331     13332
     13329     13328     13331     13333     13329     13328     13331     13334
     13330     13328     13331     13332     13330     13328     13331     13333
     13330     13328     13331     13334     13335     13336     13351     13352
     13335     13336     13351     13353     13335     13336     13351     13357
     13336     13335     13339     13340     13336     13335     13339     13341
     13336     13335     13339     13342     13336     13335     13343     13344
     13336     13335     13343     13345     13336     13335     13343     13346
     13336     13335     13347     13348     13336     13335     13347     13349
     13336     13335     13347     13350     13336     13351     13357     13354
     13337     13336     13335     13339     13337     13336     13335     13343
     13337     13336     13335     13347     13337     13336     13351     13352
     13337     13336     13351     13353     13337     13336     13351     13357
     13338     13336     13335     13339     13338     13336     13335     13343
     13338     13336     13335     13347     13338     13336     13351     13352
     13338     13336     13351     13353     13338     13336     13351     13357
     13339     13335     13336     13351     13339     13335     13343     13344
     13339     13335     13343     13345     13339     13335     13343     13346
     13339     13335     13347     13348     13339     13335     13347     13349
     13339     13335     13347     13350     13340     13339     13335     13343
     13340     13339     13335     13347     13341     13339     13335     13343
     13341     13339     13335     13347     13342     13339     13335     13343
     13342     13339     13335     13347     13343     13335     13336     13351
     13343     13335     13347     13348     13343     13335     13347     13349
     13343     13335     13347     13350     13344     13343     13335     13347
     13345     13343     13335     13347     13346     13343     13335     13347
     13347     13335     13336     13351     13351     13357     13354     13355
     13351     13357     13354     13356     13351     13357     13354     13358
     13352     13351     13357     13354     13353     13351     13357     13354
     13354     13358     13359     13360     13354     13358     13359     13361
     13354     13358     13359     13362     13355     13354     13358     13359
     13356     13354     13358     13359     13357     13354     13358     13359
     13358     13359     13362     13363     13358     13359     13362     13364
     13358     13359     13362     13370     13359     13362     13364     13365
     13359     13362     13370     13371     13359     13362     13370     13372
     13359     13362     13370     13373     13360     13359     13362     13363
     13360     13359     13362     13364     13360     13359     13362     13370
     13361     13359     13362     13363     13361     13359     13362     13364
     13361     13359     13362     13370     13362     13364     13365     13366
     13362     13364     13365     13367     13362     13370     13373     13374
     13363     13362     13364     13365     13363     13362     13370     13371
     13363     13362     13370     13372     13363     13362     13370     13373
     13364     13362     13370     13371     13364     13362     13370     13372
     13364     13362     13370     13373     13364     13365     13367     13368
     13364     13365     13367     13369     13364     13365     13367     13379
     13365     13364     13362     13370     13365     13367     13379     13380
     13365     13367     13379     13381     13365     13367     13379     13382
     13366     13365     13367     13368     13366     13365     13367     13369
     13366     13365     13367     13379     13367     13379     13382     13383
     13367     13379     13382     13384     13367     13379     13382     13385
     13368     13367     13379     13380     13368     13367     13379     13381
     13368     13367     13379     13382     13369     13367     13379     13380
     13369     13367     13379     13381     13369     13367     13379     13382
     13370     13373     13374     13375     13370     13373     13374     13376
     13371     13370     13373     13374     13372     13370     13373     13374
     13373     13374     13376     13377     13373     13374     13376     13378
     13373     13374     13376     13426     13374     13376     13426     13427
     13374     13376     13426     13428     13374     13376     13426     13429
     13375     13374     13376     13377     13375     13374     13376     13378
     13375     13374     13376     13426     13376     13426     13429     13430
     13376     13426     13429     13431     13376     13426     13429     13432
     13377     13376     13426     13427     13377     13376     13426     13428
     13377     13376     13426     13429     13378     13376     13426     13427
     13378     13376     13426     13428     13378     13376     13426     13429
     13379     13382     13385     13386     13379     13382     13385     13387
     13379     13382     13385     13388     13380     13379     13382     13383
     13380     13379     13382     13384     13380     13379     13382     13385
     13381     13379     13382     13383     13381     13379     13382     13384
     13381     13379     13382     13385     13382     13385     13388     13389
     13382     13385     13388     13390     13382     13385     13388     13391
     13383     13382     13385     13386     13383     13382     13385     13387
     13383     13382     13385     13388     13384     13382     13385     13386
     13384     13382     13385     13387     13384     13382     13385     13388
     13385     13388     13391     13392     13385     13388     13391     13393
     13385     13388     13391     13394     13386     13385     13388     13389
     13386     13385     13388     13390     13386     13385     13388     13391
     13387     13385     13388     13389     13387     13385     13388     13390
     13387     13385     13388     13391     13388     13391     13394     13395
     13388     13391     13394     13396     13388     13391     13394     13397
     13389     13388     13391     13392     13389     13388     13391     13393
     13389     13388     13391     13394     13390     13388     13391     13392
     13390     13388     13391     13393     13390     13388     13391     13394
     13391     13394     13397     13398     13391     13394     13397     13399
     13392     13391     13394     13395     13392     13391     13394     13396
     13392     13391     13394     13397     13393     13391     13394     13395
     13393     13391     13394     13396     13393     13391     13394     13397
     13394     13397     13399     13400     13394     13397     13399     13401
     13395     13394     13397     13398     13395     13394     13397     13399
     13396     13394     13397     13398     13396     13394     13397     13399
     13397     13399     13401     13402     13397     13399     13401     13403
     13397     13399     13401     13404     13398     13397     13399     13400
     13398     13397     13399     13401     13399     13401     13404     13405
     13399     13401     13404     13406     13399     13401     13404     13407
     13400     13399     13401     13402     13400     13399     13401     13403
     13400     13399     13401     13404     13401     13404     13407     13408
     13401     13404     13407     13409     13401     13404     13407     13410
     13402     13401     13404     13405     13402     13401     13404     13406
     13402     13401     13404     13407     13403     13401     13404     13405
     13403     13401     13404     13406     13403     13401     13404     13407
     13404     13407     13410     13411     13404     13407     13410     13412
     13404     13407     13410     13413     13405     13404     13407     13408
     13405     13404     13407     13409     13405     13404     13407     13410
     13406     13404     13407     13408     13406     13404     13407     13409
     13406     13404     13407     13410     13407     13410     13413     13414
     13407     13410     13413     13415     13407     13410     13413     13416
     13408     13407     13410     13411     13408     13407     13410     13412
     13408     13407     13410     13413     13409     13407     13410     13411
     13409     13407     13410     13412     13409     13407     13410     13413
     13410     13413     13416     13417     13410     13413     13416     13418
     13410     13413     13416     13419     13411     13410     13413     13414
     13411     13410     13413     13415     13411     13410     13413     13416
     13412     13410     13413     13414     13412     13410     13413     13415
     13412     13410     13413     13416     13413     13416     13419     13420
     13413     13416     13419     13421     13413     13416     13419     13422
     13414     13413     13416     13417     13414     13413     13416     13418
     13414     13413     13416     13419     13415     13413     13416     13417
     13415     13413     13416     13418     13415     13413     13416     13419
     13416     13419     13422     13423     13416     13419     13422     13424
     13416     13419     13422     13425     13417     13416     13419     13420
     13417     13416     13419     13421     13417     13416     13419     13422
     13418     13416     13419     13420     13418     13416     13419     13421
     13418     13416     13419     13422     13420     13419     13422     13423
     13420     13419     13422     13424     13420     13419     13422     13425
     13421     13419     13422     13423     13421     13419     13422     13424
     13421     13419     13422     13425     13426     13429     13432     13433
     13426     13429     13432     13434     13426     13429     13432     13435
     13427     13426     13429     13430     13427     13426     13429     13431
     13427     13426     13429     13432     13428     13426     13429     13430
     13428     13426     13429     13431     13428     13426     13429     13432
     13429     13432     13435     13436     13429     13432     13435     13437
     13429     13432     13435     13438     13430     13429     13432     13433
     13430     13429     13432     13434     13430     13429     13432     13435
     13431     13429     13432     13433     13431     13429     13432     13434
     13431     13429     13432     13435     13432     13435     13438     13439
     13432     13435     13438     13440     13432     13435     13438     13441
     13433     13432     13435     13436     13433     13432     13435     13437
     13433     13432     13435     13438     13434     13432     13435     13436
     13434     13432     13435     13437     13434     13432     13435     13438
     13435     13438     13441     13442     13435     13438     13441     13443
     13435     13438     13441     13444     13436     13435     13438     13439
     13436     13435     13438     13440     13436     13435     13438     13441
     13437     13435     13438     13439     13437     13435     13438     13440
     13437     13435     13438     13441     13438     13441     13444     13445
     13438     13441     13444     13446     13439     13438     13441     13442
     13439     13438     13441     13443     13439     13438     13441     13444
     13440     13438     13441     13442     13440     13438     13441     13443
     13440     13438     13441     13444     13441     13444     13446     13447
     13441     13444     13446     13448     13442     13441     13444     13445
     13442     13441     13444     13446     13443     13441     13444     13445
     13443     13441     13444     13446     13444     13446     13448     13449
     13444     13446     13448     13450     13444     13446     13448     13451
     13445     13444     13446     13447     13445     13444     13446     13448
     13446     13448     13451     13452     13446     13448     13451     13453
     13446     13448     13451     13454     13447     13446     13448     13449
     13447     13446     13448     13450     13447     13446     13448     13451
     13448     13451     13454     13455     13448     13451     13454     13456
     13448     13451     13454     13457     13449     13448     13451     13452
     13449     13448     13451     13453     13449     13448     13451     13454
     13450     13448     13451     13452     13450     13448     13451     13453
     13450     13448     13451     13454     13451     13454     13457     13458
     13451     13454     13457     13459     13451     13454     13457     13460
     13452     13451     13454     13455     13452     13451     13454     13456
     13452     13451     13454     13457     13453     13451     13454     13455
     13453     13451     13454     13456     13453     13451     13454     13457
     13454     13457     13460     13461     13454     13457     13460     13462
     13454     13457     13460     13463     13455     13454     13457     13458
     13455     13454     13457     13459     13455     13454     13457     13460
     13456     13454     13457     13458     13456     13454     13457     13459
     13456     13454     13457     13460     13457     13460     13463     13464
     13457     13460     13463     13465     13457     13460     13463     13466
     13458     13457     13460     13461     13458     13457     13460     13462
     13458     13457     13460     13463     13459     13457     13460     13461
     13459     13457     13460     13462     13459     13457     13460     13463
     13460     13463     13466     13467     13460     13463     13466     13468
     13460     13463     13466     13469     13461     13460     13463     13464
     13461     13460     13463     13465     13461     13460     13463     13466
     13462     13460     13463     13464     13462     13460     13463     13465
     13462     13460     13463     13466     13463     13466     13469     13470
     13463     13466     13469     13471     13463     13466     13469     13472
     13464     13463     13466     13467     13464     13463     13466     13468
     13464     13463     13466     13469     13465     13463     13466     13467
     13465     13463     13466     13468     13465     13463     13466     13469
     13467     13466     13469     13470     13467     13466     13469     13471
     13467     13466     13469     13472     13468     13466     13469     13470
     13468     13466     13469     13471     13468     13466     13469     13472
     13473     13474     13489     13490     13473     13474     13489     13491
     13473     13474     13489     13495     13474     13473     13477     13478
     13474     13473     13477     13479     13474     13473     13477     13480
     13474     13473     13481     13482     13474     13473     13481     13483
     13474     13473     13481     13484     13474     13473     13485     13486
     13474     13473     13485     13487     13474     13473     13485     13488
     13474     13489     13495     13492     13475     13474     13473     13477
     13475     13474     13473     13481     13475     13474     13473     13485
     13475     13474     13489     13490     13475     13474     13489     13491
     13475     13474     13489     13495     13476     13474     13473     13477
     13476     13474     13473     13481     13476     13474     13473     13485
     13476     13474     13489     13490     13476     13474     13489     13491
     13476     13474     13489     13495     13477     13473     13474     13489
     13477     13473     13481     13482     13477     13473     13481     13483
     13477     13473     13481     13484     13477     13473     13485     13486
     13477     13473     13485     13487     13477     13473     13485     13488
     13478     13477     13473     13481     13478     13477     13473     13485
     13479     13477     13473     13481     13479     13477     13473     13485
     13480     13477     13473     13481     13480     13477     13473     13485
     13481     13473     13474     13489     13481     13473     13485     13486
     13481     13473     13485     13487     13481     13473     13485     13488
     13482     13481     13473     13485     13483     13481     13473     13485
     13484     13481     13473     13485     13485     13473     13474     13489
     13489     13495     13492     13493     13489     13495     13492     13494
     13489     13495     13492     13496     13490     13489     13495     13492
     13491     13489     13495     13492     13492     13496     13497     13498
     13492     13496     13497     13499     13492     13496     13497     13500
     13493     13492     13496     13497     13494     13492     13496     13497
     13495     13492     13496     13497     13496     13497     13500     13501
     13496     13497     13500     13502     13496     13497     13500     13508
     13497     13500     13502     13503     13497     13500     13508     13509
     13497     13500     13508     13510     13497     13500     13508     13511
     13498     13497     13500     13501     13498     13497     13500     13502
     13498     13497     13500     13508     13499     13497     13500     13501
     13499     13497     13500     13502     13499     13497     13500     13508
     13500     13502     13503     13504     13500     13502     13503     13505
     13500     13508     13511     13512     13501     13500     13502     13503
     13501     13500     13508     13509     13501     13500     13508     13510
     13501     13500     13508     13511     13502     13500     13508     13509
     13502     13500     13508     13510     13502     13500     13508     13511
     13502     13503     13505     13506     13502     13503     13505     13507
     13502     13503     13505     13517     13503     13502     13500     13508
     13503     13505     13517     13518     13503     13505     13517     13519
     13503     13505     13517     13520     13504     13503     13505     13506
     13504     13503     13505     13507     13504     13503     13505     13517
     13505     13517     13520     13521     13505     13517     13520     13522
     13505     13517     13520     13523     13506     13505     13517     13518
     13506     13505     13517     13519     13506     13505     13517     13520
     13507     13505     13517     13518     13507     13505     13517     13519
     13507     13505     13517     13520     13508     13511     13512     13513
     13508     13511     13512     13514     13509     13508     13511     13512
     13510     13508     13511     13512     13511     13512     13514     13515
     13511     13512     13514     13516     13511     13512     13514     13564
     13512     13514     13564     13565     13512     13514     13564     13566
     13512     13514     13564     13567     13513     13512     13514     13515
     13513     13512     13514     13516     13513     13512     13514     13564
     13514     13564     13567     13568     13514     13564     13567     13569
     13514     13564     13567     13570     13515     13514     13564     13565
     13515     13514     13564     13566     13515     13514     13564     13567
     13516     13514     13564     13565     13516     13514     13564     13566
     13516     13514     13564     13567     13517     13520     13523     13524
     13517     13520     13523     13525     13517     13520     13523     13526
     13518     13517     13520     13521     13518     13517     13520     13522
     13518     13517     13520     13523     13519     13517     13520     13521
     13519     13517     13520     13522     13519     13517     13520     13523
     13520     13523     13526     13527     13520     13523     13526     13528
     13520     13523     13526     13529     13521     13520     13523     13524
     13521     13520     13523     13525     13521     13520     13523     13526
     13522     13520     13523     13524     13522     13520     13523     13525
     13522     13520     13523     13526     13523     13526     13529     13530
     13523     13526     13529     13531     13523     13526     13529     13532
     13524     13523     13526     13527     13524     13523     13526     13528
     13524     13523     13526     13529     13525     13523     13526     13527
     13525     13523     13526     13528     13525     13523     13526     13529
     13526     13529     13532     13533     13526     13529     13532     13534
     13526     13529     13532     13535     13527     13526     13529     13530
     13527     13526     13529     13531     13527     13526     13529     13532
     13528     13526     13529     13530     13528     13526     13529     13531
     13528     13526     13529     13532     13529     13532     13535     13536
     13529     13532     13535     13537     13530     13529     13532     13533
     13530     13529     13532     13534     13530     13529     13532     13535
     13531     13529     13532     13533     13531     13529     13532     13534
     13531     13529     13532     13535     13532     13535     13537     13538
     13532     13535     13537     13539     13533     13532     13535     13536
     13533     13532     13535     13537     13534     13532     13535     13536
     13534     13532     13535     13537     13535     13537     13539     13540
     13535     13537     13539     13541     13535     13537     13539     13542
     13536     13535     13537     13538     13536     13535     13537     13539
     13537     13539     13542     13543     13537     13539     13542     13544
     13537     13539     13542     13545     13538     13537     13539     13540
     13538     13537     13539     13541     13538     13537     13539     13542
     13539     13542     13545     13546     13539     13542     13545     13547
     13539     13542     13545     13548     13540     13539     13542     13543
     13540     13539     13542     13544     13540     13539     13542     13545
     13541     13539     13542     13543     13541     13539     13542     13544
     13541     13539     13542     13545     13542     13545     13548     13549
     13542     13545     13548     13550     13542     13545     13548     13551
     13543     13542     13545     13546     13543     13542     13545     13547
     13543     13542     13545     13548     13544     13542     13545     13546
     13544     13542     13545     13547     13544     13542     13545     13548
     13545     13548     13551     13552     13545     13548     13551     13553
     13545     13548     13551     13554     13546     13545     13548     13549
     13546     13545     13548     13550     13546     13545     13548     13551
     13547     13545     13548     13549     13547     13545     13548     13550
     13547     13545     13548     13551     13548     13551     13554     13555
     13548     13551     13554     13556     13548     13551     13554     13557
     13549     13548     13551     13552     13549     13548     13551     13553
     13549     13548     13551     13554     13550     13548     13551     13552
     13550     13548     13551     13553     13550     13548     13551     13554
     13551     13554     13557     13558     13551     13554     13557     13559
     13551     13554     13557     13560     13552     13551     13554     13555
     13552     13551     13554     13556     13552     13551     13554     13557
     13553     13551     13554     13555     13553     13551     13554     13556
     13553     13551     13554     13557     13554     13557     13560     13561
     13554     13557     13560     13562     13554     13557     13560     13563
     13555     13554     13557     13558     13555     13554     13557     13559
     13555     13554     13557     13560     13556     13554     13557     13558
     13556     13554     13557     13559     13556     13554     13557     13560
     13558     13557     13560     13561     13558     13557     13560     13562
     13558     13557     13560     13563     13559     13557     13560     13561
     13559     13557     13560     13562     13559     13557     13560     13563
     13564     13567     13570     13571     13564     13567     13570     13572
     13564     13567     13570     13573     13565     13564     13567     13568
     13565     13564     13567     13569     13565     13564     13567     13570
     13566     13564     13567     13568     13566     13564     13567     13569
     13566     13564     13567     13570     13567     13570     13573     13574
     13567     13570     13573     13575     13567     13570     13573     13576
     13568     13567     13570     13571     13568     13567     13570     13572
     13568     13567     13570     13573     13569     13567     13570     13571
     13569     13567     13570     13572     13569     13567     13570     13573
     13570     13573     13576     13577     13570     13573     13576     13578
     13570     13573     13576     13579     13571     13570     13573     13574
     13571     13570     13573     13575     13571     13570     13573     13576
     13572     13570     13573     13574     13572     13570     13573     13575
     13572     13570     13573     13576     13573     13576     13579     13580
     13573     13576     13579     13581     13573     13576     13579     13582
     13574     13573     13576     13577     13574     13573     13576     13578
     13574     13573     13576     13579     13575     13573     13576     13577
     13575     13573     13576     13578     13575     13573     13576     13579
     13576     13579     13582     13583     13576     13579     13582     13584
     13577     13576     13579     13580     13577     13576     13579     13581
     13577     13576     13579     13582     13578     13576     13579     13580
     13578     13576     13579     13581     13578     13576     13579     13582
     13579     13582     13584     13585     13579     13582     13584     13586
     13580     13579     13582     13583     13580     13579     13582     13584
     13581     13579     13582     13583     13581     13579     13582     13584
     13582     13584     13586     13587     13582     13584     13586     13588
     13582     13584     13586     13589     13583     13582     13584     13585
     13583     13582     13584     13586     13584     13586     13589     13590
     13584     13586     13589     13591     13584     13586     13589     13592
     13585     13584     13586     13587     13585     13584     13586     13588
     13585     13584     13586     13589     13586     13589     13592     13593
     13586     13589     13592     13594     13586     13589     13592     13595
     13587     13586     13589     13590     13587     13586     13589     13591
     13587     13586     13589     13592     13588     13586     13589     13590
     13588     13586     13589     13591     13588     13586     13589     13592
     13589     13592     13595     13596     13589     13592     13595     13597
     13589     13592     13595     13598     13590     13589     13592     13593
     13590     13589     13592     13594     13590     13589     13592     13595
     13591     13589     13592     13593     13591     13589     13592     13594
     13591     13589     13592     13595     13592     13595     13598     13599
     13592     13595     13598     13600     13592     13595     13598     13601
     13593     13592     13595     13596     13593     13592     13595     13597
     13593     13592     13595     13598     13594     13592     13595     13596
     13594     13592     13595     13597     13594     13592     13595     13598
     13595     13598     13601     13602     13595     13598     13601     13603
     13595     13598     13601     13604     13596     13595     13598     13599
     13596     13595     13598     13600     13596     13595     13598     13601
     13597     13595     13598     13599     13597     13595     13598     13600
     13597     13595     13598     13601     13598     13601     13604     13605
     13598     13601     13604     13606     13598     13601     13604     13607
     13599     13598     13601     13602     13599     13598     13601     13603
     13599     13598     13601     13604     13600     13598     13601     13602
     13600     13598     13601     13603     13600     13598     13601     13604
     13601     13604     13607     13608     13601     13604     13607     13609
     13601     13604     13607     13610     13602     13601     13604     13605
     13602     13601     13604     13606     13602     13601     13604     13607
     13603     13601     13604     13605     13603     13601     13604     13606
     13603     13601     13604     13607     13605     13604     13607     13608
     13605     13604     13607     13609     13605     13604     13607     13610
     13606     13604     13607     13608     13606     13604     13607     13609
     13606     13604     13607     13610     13611     13612     13627     13628
     13611     13612     13627     13629     13611     13612     13627     13633
     13612     13611     13615     13616     13612     13611     13615     13617
     13612     13611     13615     13618     13612     13611     13619     13620
     13612     13611     13619     13621     13612     13611     13619     13622
     13612     13611     13623     13624     13612     13611     13623     13625
     13612     13611     13623     13626     13612     13627     13633     13630
     13613     13612     13611     13615     13613     13612     13611     13619
     13613     13612     13611     13623     13613     13612     13627     13628
     13613     13612     13627     13629     13613     13612     13627     13633
     13614     13612     13611     13615     13614     13612     13611     13619
     13614     13612     13611     13623     13614     13612     13627     13628
     13614     13612     13627     13629     13614     13612     13627     13633
     13615     13611     13612     13627     13615     13611     13619     13620
     13615     13611     13619     13621     13615     13611     13619     13622
     13615     13611     13623     13624     13615     13611     13623     13625
     13615     13611     13623     13626     13616     13615     13611     13619
     13616     13615     13611     13623     13617     13615     13611     13619
     13617     13615     13611     13623     13618     13615     13611     13619
     13618     13615     13611     13623     13619     13611     13612     13627
     13619     13611     13623     13624     13619     13611     13623     13625
     13619     13611     13623     13626     13620     13619     13611     13623
     13621     13619     13611     13623     13622     13619     13611     13623
     13623     13611     13612     13627     13627     13633     13630     13631
     13627     13633     13630     13632     13627     13633     13630     13634
     13628     13627     13633     13630     13629     13627     13633     13630
     13630     13634     13635     13636     13630     13634     13635     13637
     13630     13634     13635     13638     13631     13630     13634     13635
     13632     13630     13634     13635     13633     13630     13634     13635
     13634     13635     13638     13639     13634     13635     13638     13640
     13634     13635     13638     13646     13635     13638     13640     13641
     13635     13638     13646     13647     13635     13638     13646     13648
     13635     13638     13646     13649     13636     13635     13638     13639
     13636     13635     13638     13640     13636     13635     13638     13646
     13637     13635     13638     13639     13637     13635     13638     13640
     13637     13635     13638     13646     13638     13640     13641     13642
     13638     13640     13641     13643     13638     13646     13649     13650
     13639     13638     13640     13641     13639     13638     13646     13647
     13639     13638     13646     13648     13639     13638     13646     13649
     13640     13638     13646     13647     13640     13638     13646     13648
     13640     13638     13646     13649     13640     13641     13643     13644
     13640     13641     13643     13645     13640     13641     13643     13655
     13641     13640     13638     13646     13641     13643     13655     13656
     13641     13643     13655     13657     13641     13643     13655     13658
     13642     13641     13643     13644     13642     13641     13643     13645
     13642     13641     13643     13655     13643     13655     13658     13659
     13643     13655     13658     13660     13643     13655     13658     13661
     13644     13643     13655     13656     13644     13643     13655     13657
     13644     13643     13655     13658     13645     13643     13655     13656
     13645     13643     13655     13657     13645     13643     13655     13658
     13646     13649     13650     13651     13646     13649     13650     13652
     13647     13646     13649     13650     13648     13646     13649     13650
     13649     13650     13652     13653     13649     13650     13652     13654
     13649     13650     13652     13702     13650     13652     13702     13703
     13650     13652     13702     13704     13650     13652     13702     13705
     13651     13650     13652     13653     13651     13650     13652     13654
     13651     13650     13652     13702     13652     13702     13705     13706
     13652     13702     13705     13707     13652     13702     13705     13708
     13653     13652     13702     13703     13653     13652     13702     13704
     13653     13652     13702     13705     13654     13652     13702     13703
     13654     13652     13702     13704     13654     13652     13702     13705
     13655     13658     13661     13662     13655     13658     13661     13663
     13655     13658     13661     13664     13656     13655     13658     13659
     13656     13655     13658     13660     13656     13655     13658     13661
     13657     13655     13658     13659     13657     13655     13658     13660
     13657     13655     13658     13661     13658     13661     13664     13665
     13658     13661     13664     13666     13658     13661     13664     13667
     13659     13658     13661     13662     13659     13658     13661     13663
     13659     13658     13661     13664     13660     13658     13661     13662
     13660     13658     13661     13663     13660     13658     13661     13664
     13661     13664     13667     13668     13661     13664     13667     13669
     13661     13664     13667     13670     13662     13661     13664     13665
     13662     13661     13664     13666     13662     13661     13664     13667
     13663     13661     13664     13665     13663     13661     13664     13666
     13663     13661     13664     13667     13664     13667     13670     13671
     13664     13667     13670     13672     13664     13667     13670     13673
     13665     13664     13667     13668     13665     13664     13667     13669
     13665     13664     13667     13670     13666     13664     13667     13668
     13666     13664     13667     13669     13666     13664     13667     13670
     13667     13670     13673     13674     13667     13670     13673     13675
     13668     13667     13670     13671     13668     13667     13670     13672
     13668     13667     13670     13673     13669     13667     13670     13671
     13669     13667     13670     13672     13669     13667     13670     13673
     13670     13673     13675     13676     13670     13673     13675     13677
     13671     13670     13673     13674     13671     13670     13673     13675
     13672     13670     13673     13674     13672     13670     13673     13675
     13673     13675     13677     13678     13673     13675     13677     13679
     13673     13675     13677     13680     13674     13673     13675     13676
     13674     13673     13675     13677     13675     13677     13680     13681
     13675     13677     13680     13682     13675     13677     13680     13683
     13676     13675     13677     13678     13676     13675     13677     13679
     13676     13675     13677     13680     13677     13680     13683     13684
     13677     13680     13683     13685     13677     13680     13683     13686
     13678     13677     13680     13681     13678     13677     13680     13682
     13678     13677     13680     13683     13679     13677     13680     13681
     13679     13677     13680     13682     13679     13677     13680     13683
     13680     13683     13686     13687     13680     13683     13686     13688
     13680     13683     13686     13689     13681     13680     13683     13684
     13681     13680     13683     13685     13681     13680     13683     13686
     13682     13680     13683     13684     13682     13680     13683     13685
     13682     13680     13683     13686     13683     13686     13689     13690
     13683     13686     13689     13691     13683     13686     13689     13692
     13684     13683     13686     13687     13684     13683     13686     13688
     13684     13683     13686     13689     13685     13683     13686     13687
     13685     13683     13686     13688     13685     13683     13686     13689
     13686     13689     13692     13693     13686     13689     13692     13694
     13686     13689     13692     13695     13687     13686     13689     13690
     13687     13686     13689     13691     13687     13686     13689     13692
     13688     13686     13689     13690     13688     13686     13689     13691
     13688     13686     13689     13692     13689     13692     13695     13696
     13689     13692     13695     13697     13689     13692     13695     13698
     13690     13689     13692     13693     13690     13689     13692     13694
     13690     13689     13692     13695     13691     13689     13692     13693
     13691     13689     13692     13694     13691     13689     13692     13695
     13692     13695     13698     13699     13692     13695     13698     13700
     13692     13695     13698     13701     13693     13692     13695     13696
     13693     13692     13695     13697     13693     13692     13695     13698
     13694     13692     13695     13696     13694     13692     13695     13697
     13694     13692     13695     13698     13696     13695     13698     13699
     13696     13695     13698     13700     13696     13695     13698     13701
     13697     13695     13698     13699     13697     13695     13698     13700
     13697     13695     13698     13701     13702     13705     13708     13709
     13702     13705     13708     13710     13702     13705     13708     13711
     13703     13702     13705     13706     13703     13702     13705     13707
     13703     13702     13705     13708     13704     13702     13705     13706
     13704     13702     13705     13707     13704     13702     13705     13708
     13705     13708     13711     13712     13705     13708     13711     13713
     13705     13708     13711     13714     13706     13705     13708     13709
     13706     13705     13708     13710     13706     13705     13708     13711
     13707     13705     13708     13709     13707     13705     13708     13710
     13707     13705     13708     13711     13708     13711     13714     13715
     13708     13711     13714     13716     13708     13711     13714     13717
     13709     13708     13711     13712     13709     13708     13711     13713
     13709     13708     13711     13714     13710     13708     13711     13712
     13710     13708     13711     13713     13710     13708     13711     13714
     13711     13714     13717     13718     13711     13714     13717     13719
     13711     13714     13717     13720     13712     13711     13714     13715
     13712     13711     13714     13716     13712     13711     13714     13717
     13713     13711     13714     13715     13713     13711     13714     13716
     13713     13711     13714     13717     13714     13717     13720     13721
     13714     13717     13720     13722     13715     13714     13717     13718
     13715     13714     13717     13719     13715     13714     13717     13720
     13716     13714     13717     13718     13716     13714     13717     13719
     13716     13714     13717     13720     13717     13720     13722     13723
     13717     13720     13722     13724     13718     13717     13720     13721
     13718     13717     13720     13722     13719     13717     13720     13721
     13719     13717     13720     13722     13720     13722     13724     13725
     13720     13722     13724     13726     13720     13722     13724     13727
     13721     13720     13722     13723     13721     13720     13722     13724
     13722     13724     13727     13728     13722     13724     13727     13729
     13722     13724     13727     13730     13723     13722     13724     13725
     13723     13722     13724     13726     13723     13722     13724     13727
     13724     13727     13730     13731     13724     13727     13730     13732
     13724     13727     13730     13733     13725     13724     13727     13728
     13725     13724     13727     13729     13725     13724     13727     13730
     13726     13724     13727     13728     13726     13724     13727     13729
     13726     13724     13727     13730     13727     13730     13733     13734
     13727     13730     13733     13735     13727     13730     13733     13736
     13728     13727     13730     13731     13728     13727     13730     13732
     13728     13727     13730     13733     13729     13727     13730     13731
     13729     13727     13730     13732     13729     13727     13730     13733
     13730     13733     13736     13737     13730     13733     13736     13738
     13730     13733     13736     13739     13731     13730     13733     13734
     13731     13730     13733     13735     13731     13730     13733     13736
     13732     13730     13733     13734     13732     13730     13733     13735
     13732     13730     13733     13736     13733     13736     13739     13740
     13733     13736     13739     13741     13733     13736     13739     13742
     13734     13733     13736     13737     13734     13733     13736     13738
     13734     13733     13736     13739     13735     13733     13736     13737
     13735     13733     13736     13738     13735     13733     13736     13739
     13736     13739     13742     13743     13736     13739     13742     13744
     13736     13739     13742     13745     13737     13736     13739     13740
     13737     13736     13739     13741     13737     13736     13739     13742
     13738     13736     13739     13740     13738     13736     13739     13741
     13738     13736     13739     13742     13739     13742     13745     13746
     13739     13742     13745     13747     13739     13742     13745     13748
     13740     13739     13742     13743     13740     13739     13742     13744
     13740     13739     13742     13745     13741     13739     13742     13743
     13741     13739     13742     13744     13741     13739     13742     13745
     13743     13742     13745     13746     13743     13742     13745     13747
     13743     13742     13745     13748     13744     13742     13745     13746
     13744     13742     13745     13747     13744     13742     13745     13748
     13749     13750     13765     13766     13749     13750     13765     13767
     13749     13750     13765     13771     13750     13749     13753     13754
     13750     13749     13753     13755     13750     13749     13753     13756
     13750     13749     13757     13758     13750     13749     13757     13759
     13750     13749     13757     13760     13750     13749     13761     13762
     13750     13749     13761     13763     13750     13749     13761     13764
     13750     13765     13771     13768     13751     13750     13749     13753
     13751     13750     13749     13757     13751     13750     13749     13761
     13751     13750     13765     13766     13751     13750     13765     13767
     13751     13750     13765     13771     13752     13750     13749     13753
     13752     13750     13749     13757     13752     13750     13749     13761
     13752     13750     13765     13766     13752     13750     13765     13767
     13752     13750     13765     13771     13753     13749     13750     13765
     13753     13749     13757     13758     13753     13749     13757     13759
     13753     13749     13757     13760     13753     13749     13761     13762
     13753     13749     13761     13763     13753     13749     13761     13764
     13754     13753     13749     13757     13754     13753     13749     13761
     13755     13753     13749     13757     13755     13753     13749     13761
     13756     13753     13749     13757     13756     13753     13749     13761
     13757     13749     13750     13765     13757     13749     13761     13762
     13757     13749     13761     13763     13757     13749     13761     13764
     13758     13757     13749     13761     13759     13757     13749     13761
     13760     13757     13749     13761     13761     13749     13750     13765
     13765     13771     13768     13769     13765     13771     13768     13770
     13765     13771     13768     13772     13766     13765     13771     13768
     13767     13765     13771     13768     13768     13772     13773     13774
     13768     13772     13773     13775     13768     13772     13773     13776
     13769     13768     13772     13773     13770     13768     13772     13773
     13771     13768     13772     13773     13772     13773     13776     13777
     13772     13773     13776     13778     13772     13773     13776     13784
     13773     13776     13778     13779     13773     13776     13784     13785
     13773     13776     13784     13786     13773     13776     13784     13787
     13774     13773     13776     13777     13774     13773     13776     13778
     13774     13773     13776     13784     13775     13773     13776     13777
     13775     13773     13776     13778     13775     13773     13776     13784
     13776     13778     13779     13780     13776     13778     13779     13781
     13776     13784     13787     13788     13777     13776     13778     13779
     13777     13776     13784     13785     13777     13776     13784     13786
     13777     13776     13784     13787     13778     13776     13784     13785
     13778     13776     13784     13786     13778     13776     13784     13787
     13778     13779     13781     13782     13778     13779     13781     13783
     13778     13779     13781     13793     13779     13778     13776     13784
     13779     13781     13793     13794     13779     13781     13793     13795
     13779     13781     13793     13796     13780     13779     13781     13782
     13780     13779     13781     13783     13780     13779     13781     13793
     13781     13793     13796     13797     13781     13793     13796     13798
     13781     13793     13796     13799     13782     13781     13793     13794
     13782     13781     13793     13795     13782     13781     13793     13796
     13783     13781     13793     13794     13783     13781     13793     13795
     13783     13781     13793     13796     13784     13787     13788     13789
     13784     13787     13788     13790     13785     13784     13787     13788
     13786     13784     13787     13788     13787     13788     13790     13791
     13787     13788     13790     13792     13787     13788     13790     13840
     13788     13790     13840     13841     13788     13790     13840     13842
     13788     13790     13840     13843     13789     13788     13790     13791
     13789     13788     13790     13792     13789     13788     13790     13840
     13790     13840     13843     13844     13790     13840     13843     13845
     13790     13840     13843     13846     13791     13790     13840     13841
     13791     13790     13840     13842     13791     13790     13840     13843
     13792     13790     13840     13841     13792     13790     13840     13842
     13792     13790     13840     13843     13793     13796     13799     13800
     13793     13796     13799     13801     13793     13796     13799     13802
     13794     13793     13796     13797     13794     13793     13796     13798
     13794     13793     13796     13799     13795     13793     13796     13797
     13795     13793     13796     13798     13795     13793     13796     13799
     13796     13799     13802     13803     13796     13799     13802     13804
     13796     13799     13802     13805     13797     13796     13799     13800
     13797     13796     13799     13801     13797     13796     13799     13802
     13798     13796     13799     13800     13798     13796     13799     13801
     13798     13796     13799     13802     13799     13802     13805     13806
     13799     13802     13805     13807     13799     13802     13805     13808
     13800     13799     13802     13803     13800     13799     13802     13804
     13800     13799     13802     13805     13801     13799     13802     13803
     13801     13799     13802     13804     13801     13799     13802     13805
     13802     13805     13808     13809     13802     13805     13808     13810
     13802     13805     13808     13811     13803     13802     13805     13806
     13803     13802     13805     13807     13803     13802     13805     13808
     13804     13802     13805     13806     13804     13802     13805     13807
     13804     13802     13805     13808     13805     13808     13811     13812
     13805     13808     13811     13813     13806     13805     13808     13809
     13806     13805     13808     13810     13806     13805     13808     13811
     13807     13805     13808     13809     13807     13805     13808     13810
     13807     13805     13808     13811     13808     13811     13813     13814
     13808     13811     13813     13815     13809     13808     13811     13812
     13809     13808     13811     13813     13810     13808     13811     13812
     13810     13808     13811     13813     13811     13813     13815     13816
     13811     13813     13815     13817     13811     13813     13815     13818
     13812     13811     13813     13814     13812     13811     13813     13815
     13813     13815     13818     13819     13813     13815     13818     13820
     13813     13815     13818     13821     13814     13813     13815     13816
     13814     13813     13815     13817     13814     13813     13815     13818
     13815     13818     13821     13822     13815     13818     13821     13823
     13815     13818     13821     13824     13816     13815     13818     13819
     13816     13815     13818     13820     13816     13815     13818     13821
     13817     13815     13818     13819     13817     13815     13818     13820
     13817     13815     13818     13821     13818     13821     13824     13825
     13818     13821     13824     13826     13818     13821     13824     13827
     13819     13818     13821     13822     13819     13818     13821     13823
     13819     13818     13821     13824     13820     13818     13821     13822
     13820     13818     13821     13823     13820     13818     13821     13824
     13821     13824     13827     13828     13821     13824     13827     13829
     13821     13824     13827     13830     13822     13821     13824     13825
     13822     13821     13824     13826     13822     13821     13824     13827
     13823     13821     13824     13825     13823     13821     13824     13826
     13823     13821     13824     13827     13824     13827     13830     13831
     13824     13827     13830     13832     13824     13827     13830     13833
     13825     13824     13827     13828     13825     13824     13827     13829
     13825     13824     13827     13830     13826     13824     13827     13828
     13826     13824     13827     13829     13826     13824     13827     13830
     13827     13830     13833     13834     13827     13830     13833     13835
     13827     13830     13833     13836     13828     13827     13830     13831
     13828     13827     13830     13832     13828     13827     13830     13833
     13829     13827     13830     13831     13829     13827     13830     13832
     13829     13827     13830     13833     13830     13833     13836     13837
     13830     13833     13836     13838     13830     13833     13836     13839
     13831     13830     13833     13834     13831     13830     13833     13835
     13831     13830     13833     13836     13832     13830     13833     13834
     13832     13830     13833     13835     13832     13830     13833     13836
     13834     13833     13836     13837     13834     13833     13836     13838
     13834     13833     13836     13839     13835     13833     13836     13837
     13835     13833     13836     13838     13835     13833     13836     13839
     13840     13843     13846     13847     13840     13843     13846     13848
     13840     13843     13846     13849     13841     13840     13843     13844
     13841     13840     13843     13845     13841     13840     13843     13846
     13842     13840     13843     13844     13842     13840     13843     13845
     13842     13840     13843     13846     13843     13846     13849     13850
     13843     13846     13849     13851     13843     13846     13849     13852
     13844     13843     13846     13847     13844     13843     13846     13848
     13844     13843     13846     13849     13845     13843     13846     13847
     13845     13843     13846     13848     13845     13843     13846     13849
     13846     13849     13852     13853     13846     13849     13852     13854
     13846     13849     13852     13855     13847     13846     13849     13850
     13847     13846     13849     13851     13847     13846     13849     13852
     13848     13846     13849     13850     13848     13846     13849     13851
     13848     13846     13849     13852     13849     13852     13855     13856
     13849     13852     13855     13857     13849     13852     13855     13858
     13850     13849     13852     13853     13850     13849     13852     13854
     13850     13849     13852     13855     13851     13849     13852     13853
     13851     13849     13852     13854     13851     13849     13852     13855
     13852     13855     13858     13859     13852     13855     13858     13860
     13853     13852     13855     13856     13853     13852     13855     13857
     13853     13852     13855     13858     13854     13852     13855     13856
     13854     13852     13855     13857     13854     13852     13855     13858
     13855     13858     13860     13861     13855     13858     13860     13862
     13856     13855     13858     13859     13856     13855     13858     13860
     13857     13855     13858     13859     13857     13855     13858     13860
     13858     13860     13862     13863     13858     13860     13862     13864
     13858     13860     13862     13865     13859     13858     13860     13861
     13859     13858     13860     13862     13860     13862     13865     13866
     13860     13862     13865     13867     13860     13862     13865     13868
     13861     13860     13862     13863     13861     13860     13862     13864
     13861     13860     13862     13865     13862     13865     13868     13869
     13862     13865     13868     13870     13862     13865     13868     13871
     13863     13862     13865     13866     13863     13862     13865     13867
     13863     13862     13865     13868     13864     13862     13865     13866
     13864     13862     13865     13867     13864     13862     13865     13868
     13865     13868     13871     13872     13865     13868     13871     13873
     13865     13868     13871     13874     13866     13865     13868     13869
     13866     13865     13868     13870     13866     13865     13868     13871
     13867     13865     13868     13869     13867     13865     13868     13870
     13867     13865     13868     13871     13868     13871     13874     13875
     13868     13871     13874     13876     13868     13871     13874     13877
     13869     13868     13871     13872     13869     13868     13871     13873
     13869     13868     13871     13874     13870     13868     13871     13872
     13870     13868     13871     13873     13870     13868     13871     13874
     13871     13874     13877     13878     13871     13874     13877     13879
     13871     13874     13877     13880     13872     13871     13874     13875
     13872     13871     13874     13876     13872     13871     13874     13877
     13873     13871     13874     13875     13873     13871     13874     13876
     13873     13871     13874     13877     13874     13877     13880     13881
     13874     13877     13880     13882     13874     13877     13880     13883
     13875     13874     13877     13878     13875     13874     13877     13879
     13875     13874     13877     13880     13876     13874     13877     13878
     13876     13874     13877     13879     13876     13874     13877     13880
     13877     13880     13883     13884     13877     13880     13883     13885
     13877     13880     13883     13886     13878     13877     13880     13881
     13878     13877     13880     13882     13878     13877     13880     13883
     13879     13877     13880     13881     13879     13877     13880     13882
     13879     13877     13880     13883     13881     13880     13883     13884
     13881     13880     13883     13885     13881     13880     13883     13886
     13882     13880     13883     13884     13882     13880     13883     13885
     13882     13880     13883     13886     13887     13888     13903     13904
     13887     13888     13903     13905     13887     13888     13903     13909
     13888     13887     13891     13892     13888     13887     13891     13893
     13888     13887     13891     13894     13888     13887     13895     13896
     13888     13887     13895     13897     13888     13887     13895     13898
     13888     13887     13899     13900     13888     13887     13899     13901
     13888     13887     13899     13902     13888     13903     13909     13906
     13889     13888     13887     13891     13889     13888     13887     13895
     13889     13888     13887     13899     13889     13888     13903     13904
     13889     13888     13903     13905     13889     13888     13903     13909
     13890     13888     13887     13891     13890     13888     13887     13895
     13890     13888     13887     13899     13890     13888     13903     13904
     13890     13888     13903     13905     13890     13888     13903     13909
     13891     13887     13888     13903     13891     13887     13895     13896
     13891     13887     13895     13897     13891     13887     13895     13898
     13891     13887     13899     13900     13891     13887     13899     13901
     13891     13887     13899     13902     13892     13891     13887     13895
     13892     13891     13887     13899     13893     13891     13887     13895
     13893     13891     13887     13899     13894     13891     13887     13895
     13894     13891     13887     13899     13895     13887     13888     13903
     13895     13887     13899     13900     13895     13887     13899     13901
     13895     13887     13899     13902     13896     13895     13887     13899
     13897     13895     13887     13899     13898     13895     13887     13899
     13899     13887     13888     13903     13903     13909     13906     13907
     13903     13909     13906     13908     13903     13909     13906     13910
     13904     13903     13909     13906     13905     13903     13909     13906
     13906     13910     13911     13912     13906     13910     13911     13913
     13906     13910     13911     13914     13907     13906     13910     13911
     13908     13906     13910     13911     13909     13906     13910     13911
     13910     13911     13914     13915     13910     13911     13914     13916
     13910     13911     13914     13922     13911     13914     13916     13917
     13911     13914     13922     13923     13911     13914     13922     13924
     13911     13914     13922     13925     13912     13911     13914     13915
     13912     13911     13914     13916     13912     13911     13914     13922
     13913     13911     13914     13915     13913     13911     13914     13916
     13913     13911     13914     13922     13914     13916     13917     13918
     13914     13916     13917     13919     13914     13922     13925     13926
     13915     13914     13916     13917     13915     13914     13922     13923
     13915     13914     13922     13924     13915     13914     13922     13925
     13916     13914     13922     13923     13916     13914     13922     13924
     13916     13914     13922     13925     13916     13917     13919     13920
     13916     13917     13919     13921     13916     13917     13919     13931
     13917     13916     13914     13922     13917     13919     13931     13932
     13917     13919     13931     13933     13917     13919     13931     13934
     13918     13917     13919     13920     13918     13917     13919     13921
     13918     13917     13919     13931     13919     13931     13934     13935
     13919     13931     13934     13936     13919     13931     13934     13937
     13920     13919     13931     13932     13920     13919     13931     13933
     13920     13919     13931     13934     13921     13919     13931     13932
     13921     13919     13931     13933     13921     13919     13931     13934
     13922     13925     13926     13927     13922     13925     13926     13928
     13923     13922     13925     13926     13924     13922     13925     13926
     13925     13926     13928     13929     13925     13926     13928     13930
     13925     13926     13928     13978     13926     13928     13978     13979
     13926     13928     13978     13980     13926     13928     13978     13981
     13927     13926     13928     13929     13927     13926     13928     13930
     13927     13926     13928     13978     13928     13978     13981     13982
     13928     13978     13981     13983     13928     13978     13981     13984
     13929     13928     13978     13979     13929     13928     13978     13980
     13929     13928     13978     13981     13930     13928     13978     13979
     13930     13928     13978     13980     13930     13928     13978     13981
     13931     13934     13937     13938     13931     13934     13937     13939
     13931     13934     13937     13940     13932     13931     13934     13935
     13932     13931     13934     13936     13932     13931     13934     13937
     13933     13931     13934     13935     13933     13931     13934     13936
     13933     13931     13934     13937     13934     13937     13940     13941
     13934     13937     13940     13942     13934     13937     13940     13943
     13935     13934     13937     13938     13935     13934     13937     13939
     13935     13934     13937     13940     13936     13934     13937     13938
     13936     13934     13937     13939     13936     13934     13937     13940
     13937     13940     13943     13944     13937     13940     13943     13945
     13937     13940     13943     13946     13938     13937     13940     13941
     13938     13937     13940     13942     13938     13937     13940     13943
     13939     13937     13940     13941     13939     13937     13940     13942
     13939     13937     13940     13943     13940     13943     13946     13947
     13940     13943     13946     13948     13940     13943     13946     13949
     13941     13940     13943     13944     13941     13940     13943     13945
     13941     13940     13943     13946     13942     13940     13943     13944
     13942     13940     13943     13945     13942     13940     13943     13946
     13943     13946     13949     13950     13943     13946     13949     13951
     13944     13943     13946     13947     13944     13943     13946     13948
     13944     13943     13946     13949     13945     13943     13946     13947
     13945     13943     13946     13948     13945     13943     13946     13949
     13946     13949     13951     13952     13946     13949     13951     13953
     13947     13946     13949     13950     13947     13946     13949     13951
     13948     13946     13949     13950     13948     13946     13949     13951
     13949     13951     13953     13954     13949     13951     13953     13955
     13949     13951     13953     13956     13950     13949     13951     13952
     13950     13949     13951     13953     13951     13953     13956     13957
     13951     13953     13956     13958     13951     13953     13956     13959
     13952     13951     13953     13954     13952     13951     13953     13955
     13952     13951     13953     13956     13953     13956     13959     13960
     13953     13956     13959     13961     13953     13956     13959     13962
     13954     13953     13956     13957     13954     13953     13956     13958
     13954     13953     13956     13959     13955     13953     13956     13957
     13955     13953     13956     13958     13955     13953     13956     13959
     13956     13959     13962     13963     13956     13959     13962     13964
     13956     13959     13962     13965     13957     13956     13959     13960
     13957     13956     13959     13961     13957     13956     13959     13962
     13958     13956     13959     13960     13958     13956     13959     13961
     13958     13956     13959     13962     13959     13962     13965     13966
     13959     13962     13965     13967     13959     13962     13965     13968
     13960     13959     13962     13963     13960     13959     13962     13964
     13960     13959     13962     13965     13961     13959     13962     13963
     13961     13959     13962     13964     13961     13959     13962     13965
     13962     13965     13968     13969     13962     13965     13968     13970
     13962     13965     13968     13971     13963     13962     13965     13966
     13963     13962     13965     13967     13963     13962     13965     13968
     13964     13962     13965     13966     13964     13962     13965     13967
     13964     13962     13965     13968     13965     13968     13971     13972
     13965     13968     13971     13973     13965     13968     13971     13974
     13966     13965     13968     13969     13966     13965     13968     13970
     13966     13965     13968     13971     13967     13965     13968     13969
     13967     13965     13968     13970     13967     13965     13968     13971
     13968     13971     13974     13975     13968     13971     13974     13976
     13968     13971     13974     13977     13969     13968     13971     13972
     13969     13968     13971     13973     13969     13968     13971     13974
     13970     13968     13971     13972     13970     13968     13971     13973
     13970     13968     13971     13974     13972     13971     13974     13975
     13972     13971     13974     13976     13972     13971     13974     13977
     13973     13971     13974     13975     13973     13971     13974     13976
     13973     13971     13974     13977     13978     13981     13984     13985
     13978     13981     13984     13986     13978     13981     13984     13987
     13979     13978     13981     13982     13979     13978     13981     13983
     13979     13978     13981     13984     13980     13978     13981     13982
     13980     13978     13981     13983     13980     13978     13981     13984
     13981     13984     13987     13988     13981     13984     13987     13989
     13981     13984     13987     13990     13982     13981     13984     13985
     13982     13981     13984     13986     13982     13981     13984     13987
     13983     13981     13984     13985     13983     13981     13984     13986
     13983     13981     13984     13987     13984     13987     13990     13991
     13984     13987     13990     13992     13984     13987     13990     13993
     13985     13984     13987     13988     13985     13984     13987     13989
     13985     13984     13987     13990     13986     13984     13987     13988
     13986     13984     13987     13989     13986     13984     13987     13990
     13987     13990     13993     13994     13987     13990     13993     13995
     13987     13990     13993     13996     13988     13987     13990     13991
     13988     13987     13990     13992     13988     13987     13990     13993
     13989     13987     13990     13991     13989     13987     13990     13992
     13989     13987     13990     13993     13990     13993     13996     13997
     13990     13993     13996     13998     13991     13990     13993     13994
     13991     13990     13993     13995     13991     13990     13993     13996
     13992     13990     13993     13994     13992     13990     13993     13995
     13992     13990     13993     13996     13993     13996     13998     13999
     13993     13996     13998     14000     13994     13993     13996     13997
     13994     13993     13996     13998     13995     13993     13996     13997
     13995     13993     13996     13998     13996     13998     14000     14001
     13996     13998     14000     14002     13996     13998     14000     14003
     13997     13996     13998     13999     13997     13996     13998     14000
     13998     14000     14003     14004     13998     14000     14003     14005
     13998     14000     14003     14006     13999     13998     14000     14001
     13999     13998     14000     14002     13999     13998     14000     14003
     14000     14003     14006     14007     14000     14003     14006     14008
     14000     14003     14006     14009     14001     14000     14003     14004
     14001     14000     14003     14005     14001     14000     14003     14006
     14002     14000     14003     14004     14002     14000     14003     14005
     14002     14000     14003     14006     14003     14006     14009     14010
     14003     14006     14009     14011     14003     14006     14009     14012
     14004     14003     14006     14007     14004     14003     14006     14008
     14004     14003     14006     14009     14005     14003     14006     14007
     14005     14003     14006     14008     14005     14003     14006     14009
     14006     14009     14012     14013     14006     14009     14012     14014
     14006     14009     14012     14015     14007     14006     14009     14010
     14007     14006     14009     14011     14007     14006     14009     14012
     14008     14006     14009     14010     14008     14006     14009     14011
     14008     14006     14009     14012     14009     14012     14015     14016
     14009     14012     14015     14017     14009     14012     14015     14018
     14010     14009     14012     14013     14010     14009     14012     14014
     14010     14009     14012     14015     14011     14009     14012     14013
     14011     14009     14012     14014     14011     14009     14012     14015
     14012     14015     14018     14019     14012     14015     14018     14020
     14012     14015     14018     14021     14013     14012     14015     14016
     14013     14012     14015     14017     14013     14012     14015     14018
     14014     14012     14015     14016     14014     14012     14015     14017
     14014     14012     14015     14018     14015     14018     14021     14022
     14015     14018     14021     14023     14015     14018     14021     14024
     14016     14015     14018     14019     14016     14015     14018     14020
     14016     14015     14018     14021     14017     14015     14018     14019
     14017     14015     14018     14020     14017     14015     14018     14021
     14019     14018     14021     14022     14019     14018     14021     14023
     14019     14018     14021     14024     14020     14018     14021     14022
     14020     14018     14021     14023     14020     14018     14021     14024
     14025     14026     14041     14042     14025     14026     14041     14043
     14025     14026     14041     14047     14026     14025     14029     14030
     14026     14025     14029     14031     14026     14025     14029     14032
     14026     14025     14033     14034     14026     14025     14033     14035
     14026     14025     14033     14036     14026     14025     14037     14038
     14026     14025     14037     14039     14026     14025     14037     14040
     14026     14041     14047     14044     14027     14026     14025     14029
     14027     14026     14025     14033     14027     14026     14025     14037
     14027     14026     14041     14042     14027     14026     14041     14043
     14027     14026     14041     14047     14028     14026     14025     14029
     14028     14026     14025     14033     14028     14026     14025     14037
     14028     14026     14041     14042     14028     14026     14041     14043
     14028     14026     14041     14047     14029     14025     14026     14041
     14029     14025     14033     14034     14029     14025     14033     14035
     14029     14025     14033     14036     14029     14025     14037     14038
     14029     14025     14037     14039     14029     14025     14037     14040
     14030     14029     14025     14033     14030     14029     14025     14037
     14031     14029     14025     14033     14031     14029     14025     14037
     14032     14029     14025     14033     14032     14029     14025     14037
     14033     14025     14026     14041     14033     14025     14037     14038
     14033     14025     14037     14039     14033     14025     14037     14040
     14034     14033     14025     14037     14035     14033     14025     14037
     14036     14033     14025     14037     14037     14025     14026     14041
     14041     14047     14044     14045     14041     14047     14044     14046
     14041     14047     14044     14048     14042     14041     14047     14044
     14043     14041     14047     14044     14044     14048     14049     14050
     14044     14048     14049     14051     14044     14048     14049     14052
     14045     14044     14048     14049     14046     14044     14048     14049
     14047     14044     14048     14049     14048     14049     14052     14053
     14048     14049     14052     14054     14048     14049     14052     14060
     14049     14052     14054     14055     14049     14052     14060     14061
     14049     14052     14060     14062     14049     14052     14060     14063
     14050     14049     14052     14053     14050     14049     14052     14054
     14050     14049     14052     14060     14051     14049     14052     14053
     14051     14049     14052     14054     14051     14049     14052     14060
     14052     14054     14055     14056     14052     14054     14055     14057
     14052     14060     14063     14064     14053     14052     14054     14055
     14053     14052     14060     14061     14053     14052     14060     14062
     14053     14052     14060     14063     14054     14052     14060     14061
     14054     14052     14060     14062     14054     14052     14060     14063
     14054     14055     14057     14058     14054     14055     14057     14059
     14054     14055     14057     14069     14055     14054     14052     14060
     14055     14057     14069     14070     14055     14057     14069     14071
     14055     14057     14069     14072     14056     14055     14057     14058
     14056     14055     14057     14059     14056     14055     14057     14069
     14057     14069     14072     14073     14057     14069     14072     14074
     14057     14069     14072     14075     14058     14057     14069     14070
     14058     14057     14069     14071     14058     14057     14069     14072
     14059     14057     14069     14070     14059     14057     14069     14071
     14059     14057     14069     14072     14060     14063     14064     14065
     14060     14063     14064     14066     14061     14060     14063     14064
     14062     14060     14063     14064     14063     14064     14066     14067
     14063     14064     14066     14068     14063     14064     14066     14116
     14064     14066     14116     14117     14064     14066     14116     14118
     14064     14066     14116     14119     14065     14064     14066     14067
     14065     14064     14066     14068     14065     14064     14066     14116
     14066     14116     14119     14120     14066     14116     14119     14121
     14066     14116     14119     14122     14067     14066     14116     14117
     14067     14066     14116     14118     14067     14066     14116     14119
     14068     14066     14116     14117     14068     14066     14116     14118
     14068     14066     14116     14119     14069     14072     14075     14076
     14069     14072     14075     14077     14069     14072     14075     14078
     14070     14069     14072     14073     14070     14069     14072     14074
     14070     14069     14072     14075     14071     14069     14072     14073
     14071     14069     14072     14074     14071     14069     14072     14075
     14072     14075     14078     14079     14072     14075     14078     14080
     14072     14075     14078     14081     14073     14072     14075     14076
     14073     14072     14075     14077     14073     14072     14075     14078
     14074     14072     14075     14076     14074     14072     14075     14077
     14074     14072     14075     14078     14075     14078     14081     14082
     14075     14078     14081     14083     14075     14078     14081     14084
     14076     14075     14078     14079     14076     14075     14078     14080
     14076     14075     14078     14081     14077     14075     14078     14079
     14077     14075     14078     14080     14077     14075     14078     14081
     14078     14081     14084     14085     14078     14081     14084     14086
     14078     14081     14084     14087     14079     14078     14081     14082
     14079     14078     14081     14083     14079     14078     14081     14084
     14080     14078     14081     14082     14080     14078     14081     14083
     14080     14078     14081     14084     14081     14084     14087     14088
     14081     14084     14087     14089     14082     14081     14084     14085
     14082     14081     14084     14086     14082     14081     14084     14087
     14083     14081     14084     14085     14083     14081     14084     14086
     14083     14081     14084     14087     14084     14087     14089     14090
     14084     14087     14089     14091     14085     14084     14087     14088
     14085     14084     14087     14089     14086     14084     14087     14088
     14086     14084     14087     14089     14087     14089     14091     14092
     14087     14089     14091     14093     14087     14089     14091     14094
     14088     14087     14089     14090     14088     14087     14089     14091
     14089     14091     14094     14095     14089     14091     14094     14096
     14089     14091     14094     14097     14090     14089     14091     14092
     14090     14089     14091     14093     14090     14089     14091     14094
     14091     14094     14097     14098     14091     14094     14097     14099
     14091     14094     14097     14100     14092     14091     14094     14095
     14092     14091     14094     14096     14092     14091     14094     14097
     14093     14091     14094     14095     14093     14091     14094     14096
     14093     14091     14094     14097     14094     14097     14100     14101
     14094     14097     14100     14102     14094     14097     14100     14103
     14095     14094     14097     14098     14095     14094     14097     14099
     14095     14094     14097     14100     14096     14094     14097     14098
     14096     14094     14097     14099     14096     14094     14097     14100
     14097     14100     14103     14104     14097     14100     14103     14105
     14097     14100     14103     14106     14098     14097     14100     14101
     14098     14097     14100     14102     14098     14097     14100     14103
     14099     14097     14100     14101     14099     14097     14100     14102
     14099     14097     14100     14103     14100     14103     14106     14107
     14100     14103     14106     14108     14100     14103     14106     14109
     14101     14100     14103     14104     14101     14100     14103     14105
     14101     14100     14103     14106     14102     14100     14103     14104
     14102     14100     14103     14105     14102     14100     14103     14106
     14103     14106     14109     14110     14103     14106     14109     14111
     14103     14106     14109     14112     14104     14103     14106     14107
     14104     14103     14106     14108     14104     14103     14106     14109
     14105     14103     14106     14107     14105     14103     14106     14108
     14105     14103     14106     14109     14106     14109     14112     14113
     14106     14109     14112     14114     14106     14109     14112     14115
     14107     14106     14109     14110     14107     14106     14109     14111
     14107     14106     14109     14112     14108     14106     14109     14110
     14108     14106     14109     14111     14108     14106     14109     14112
     14110     14109     14112     14113     14110     14109     14112     14114
     14110     14109     14112     14115     14111     14109     14112     14113
     14111     14109     14112     14114     14111     14109     14112     14115
     14116     14119     14122     14123     14116     14119     14122     14124
     14116     14119     14122     14125     14117     14116     14119     14120
     14117     14116     14119     14121     14117     14116     14119     14122
     14118     14116     14119     14120     14118     14116     14119     14121
     14118     14116     14119     14122     14119     14122     14125     14126
     14119     14122     14125     14127     14119     14122     14125     14128
     14120     14119     14122     14123     14120     14119     14122     14124
     14120     14119     14122     14125     14121     14119     14122     14123
     14121     14119     14122     14124     14121     14119     14122     14125
     14122     14125     14128     14129     14122     14125     14128     14130
     14122     14125     14128     14131     14123     14122     14125     14126
     14123     14122     14125     14127     14123     14122     14125     14128
     14124     14122     14125     14126     14124     14122     14125     14127
     14124     14122     14125     14128     14125     14128     14131     14132
     14125     14128     14131     14133     14125     14128     14131     14134
     14126     14125     14128     14129     14126     14125     14128     14130
     14126     14125     14128     14131     14127     14125     14128     14129
     14127     14125     14128     14130     14127     14125     14128     14131
     14128     14131     14134     14135     14128     14131     14134     14136
     14129     14128     14131     14132     14129     14128     14131     14133
     14129     14128     14131     14134     14130     14128     14131     14132
     14130     14128     14131     14133     14130     14128     14131     14134
     14131     14134     14136     14137     14131     14134     14136     14138
     14132     14131     14134     14135     14132     14131     14134     14136
     14133     14131     14134     14135     14133     14131     14134     14136
     14134     14136     14138     14139     14134     14136     14138     14140
     14134     14136     14138     14141     14135     14134     14136     14137
     14135     14134     14136     14138     14136     14138     14141     14142
     14136     14138     14141     14143     14136     14138     14141     14144
     14137     14136     14138     14139     14137     14136     14138     14140
     14137     14136     14138     14141     14138     14141     14144     14145
     14138     14141     14144     14146     14138     14141     14144     14147
     14139     14138     14141     14142     14139     14138     14141     14143
     14139     14138     14141     14144     14140     14138     14141     14142
     14140     14138     14141     14143     14140     14138     14141     14144
     14141     14144     14147     14148     14141     14144     14147     14149
     14141     14144     14147     14150     14142     14141     14144     14145
     14142     14141     14144     14146     14142     14141     14144     14147
     14143     14141     14144     14145     14143     14141     14144     14146
     14143     14141     14144     14147     14144     14147     14150     14151
     14144     14147     14150     14152     14144     14147     14150     14153
     14145     14144     14147     14148     14145     14144     14147     14149
     14145     14144     14147     14150     14146     14144     14147     14148
     14146     14144     14147     14149     14146     14144     14147     14150
     14147     14150     14153     14154     14147     14150     14153     14155
     14147     14150     14153     14156     14148     14147     14150     14151
     14148     14147     14150     14152     14148     14147     14150     14153
     14149     14147     14150     14151     14149     14147     14150     14152
     14149     14147     14150     14153     14150     14153     14156     14157
     14150     14153     14156     14158     14150     14153     14156     14159
     14151     14150     14153     14154     14151     14150     14153     14155
     14151     14150     14153     14156     14152     14150     14153     14154
     14152     14150     14153     14155     14152     14150     14153     14156
     14153     14156     14159     14160     14153     14156     14159     14161
     14153     14156     14159     14162     14154     14153     14156     14157
     14154     14153     14156     14158     14154     14153     14156     14159
     14155     14153     14156     14157     14155     14153     14156     14158
     14155     14153     14156     14159     14157     14156     14159     14160
     14157     14156     14159     14161     14157     14156     14159     14162
     14158     14156     14159     14160     14158     14156     14159     14161
     14158     14156     14159     14162     14163     14164     14179     14180
     14163     14164     14179     14181     14163     14164     14179     14185
     14164     14163     14167     14168     14164     14163     14167     14169
     14164     14163     14167     14170     14164     14163     14171     14172
     14164     14163     14171     14173     14164     14163     14171     14174
     14164     14163     14175     14176     14164     14163     14175     14177
     14164     14163     14175     14178     14164     14179     14185     14182
     14165     14164     14163     14167     14165     14164     14163     14171
     14165     14164     14163     14175     14165     14164     14179     14180
     14165     14164     14179     14181     14165     14164     14179     14185
     14166     14164     14163     14167     14166     14164     14163     14171
     14166     14164     14163     14175     14166     14164     14179     14180
     14166     14164     14179     14181     14166     14164     14179     14185
     14167     14163     14164     14179     14167     14163     14171     14172
     14167     14163     14171     14173     14167     14163     14171     14174
     14167     14163     14175     14176     14167     14163     14175     14177
     14167     14163     14175     14178     14168     14167     14163     14171
     14168     14167     14163     14175     14169     14167     14163     14171
     14169     14167     14163     14175     14170     14167     14163     14171
     14170     14167     14163     14175     14171     14163     14164     14179
     14171     14163     14175     14176     14171     14163     14175     14177
     14171     14163     14175     14178     14172     14171     14163     14175
     14173     14171     14163     14175     14174     14171     14163     14175
     14175     14163     14164     14179     14179     14185     14182     14183
     14179     14185     14182     14184     14179     14185     14182     14186
     14180     14179     14185     14182     14181     14179     14185     14182
     14182     14186     14187     14188     14182     14186     14187     14189
     14182     14186     14187     14190     14183     14182     14186     14187
     14184     14182     14186     14187     14185     14182     14186     14187
     14186     14187     14190     14191     14186     14187     14190     14192
     14186     14187     14190     14198     14187     14190     14192     14193
     14187     14190     14198     14199     14187     14190     14198     14200
     14187     14190     14198     14201     14188     14187     14190     14191
     14188     14187     14190     14192     14188     14187     14190     14198
     14189     14187     14190     14191     14189     14187     14190     14192
     14189     14187     14190     14198     14190     14192     14193     14194
     14190     14192     14193     14195     14190     14198     14201     14202
     14191     14190     14192     14193     14191     14190     14198     14199
     14191     14190     14198     14200     14191     14190     14198     14201
     14192     14190     14198     14199     14192     14190     14198     14200
     14192     14190     14198     14201     14192     14193     14195     14196
     14192     14193     14195     14197     14192     14193     14195     14207
     14193     14192     14190     14198     14193     14195     14207     14208
     14193     14195     14207     14209     14193     14195     14207     14210
     14194     14193     14195     14196     14194     14193     14195     14197
     14194     14193     14195     14207     14195     14207     14210     14211
     14195     14207     14210     14212     14195     14207     14210     14213
     14196     14195     14207     14208     14196     14195     14207     14209
     14196     14195     14207     14210     14197     14195     14207     14208
     14197     14195     14207     14209     14197     14195     14207     14210
     14198     14201     14202     14203     14198     14201     14202     14204
     14199     14198     14201     14202     14200     14198     14201     14202
     14201     14202     14204     14205     14201     14202     14204     14206
     14201     14202     14204     14254     14202     14204     14254     14255
     14202     14204     14254     14256     14202     14204     14254     14257
     14203     14202     14204     14205     14203     14202     14204     14206
     14203     14202     14204     14254     14204     14254     14257     14258
     14204     14254     14257     14259     14204     14254     14257     14260
     14205     14204     14254     14255     14205     14204     14254     14256
     14205     14204     14254     14257     14206     14204     14254     14255
     14206     14204     14254     14256     14206     14204     14254     14257
     14207     14210     14213     14214     14207     14210     14213     14215
     14207     14210     14213     14216     14208     14207     14210     14211
     14208     14207     14210     14212     14208     14207     14210     14213
     14209     14207     14210     14211     14209     14207     14210     14212
     14209     14207     14210     14213     14210     14213     14216     14217
     14210     14213     14216     14218     14210     14213     14216     14219
     14211     14210     14213     14214     14211     14210     14213     14215
     14211     14210     14213     14216     14212     14210     14213     14214
     14212     14210     14213     14215     14212     14210     14213     14216
     14213     14216     14219     14220     14213     14216     14219     14221
     14213     14216     14219     14222     14214     14213     14216     14217
     14214     14213     14216     14218     14214     14213     14216     14219
     14215     14213     14216     14217     14215     14213     14216     14218
     14215     14213     14216     14219     14216     14219     14222     14223
     14216     14219     14222     14224     14216     14219     14222     14225
     14217     14216     14219     14220     14217     14216     14219     14221
     14217     14216     14219     14222     14218     14216     14219     14220
     14218     14216     14219     14221     14218     14216     14219     14222
     14219     14222     14225     14226     14219     14222     14225     14227
     14220     14219     14222     14223     14220     14219     14222     14224
     14220     14219     14222     14225     14221     14219     14222     14223
     14221     14219     14222     14224     14221     14219     14222     14225
     14222     14225     14227     14228     14222     14225     14227     14229
     14223     14222     14225     14226     14223     14222     14225     14227
     14224     14222     14225     14226     14224     14222     14225     14227
     14225     14227     14229     14230     14225     14227     14229     14231
     14225     14227     14229     14232     14226     14225     14227     14228
     14226     14225     14227     14229     14227     14229     14232     14233
     14227     14229     14232     14234     14227     14229     14232     14235
     14228     14227     14229     14230     14228     14227     14229     14231
     14228     14227     14229     14232     14229     14232     14235     14236
     14229     14232     14235     14237     14229     14232     14235     14238
     14230     14229     14232     14233     14230     14229     14232     14234
     14230     14229     14232     14235     14231     14229     14232     14233
     14231     14229     14232     14234     14231     14229     14232     14235
     14232     14235     14238     14239     14232     14235     14238     14240
     14232     14235     14238     14241     14233     14232     14235     14236
     14233     14232     14235     14237     14233     14232     14235     14238
     14234     14232     14235     14236     14234     14232     14235     14237
     14234     14232     14235     14238     14235     14238     14241     14242
     14235     14238     14241     14243     14235     14238     14241     14244
     14236     14235     14238     14239     14236     14235     14238     14240
     14236     14235     14238     14241     14237     14235     14238     14239
     14237     14235     14238     14240     14237     14235     14238     14241
     14238     14241     14244     14245     14238     14241     14244     14246
     14238     14241     14244     14247     14239     14238     14241     14242
     14239     14238     14241     14243     14239     14238     14241     14244
     14240     14238     14241     14242     14240     14238     14241     14243
     14240     14238     14241     14244     14241     14244     14247     14248
     14241     14244     14247     14249     14241     14244     14247     14250
     14242     14241     14244     14245     14242     14241     14244     14246
     14242     14241     14244     14247     14243     14241     14244     14245
     14243     14241     14244     14246     14243     14241     14244     14247
     14244     14247     14250     14251     14244     14247     14250     14252
     14244     14247     14250     14253     14245     14244     14247     14248
     14245     14244     14247     14249     14245     14244     14247     14250
     14246     14244     14247     14248     14246     14244     14247     14249
     14246     14244     14247     14250     14248     14247     14250     14251
     14248     14247     14250     14252     14248     14247     14250     14253
     14249     14247     14250     14251     14249     14247     14250     14252
     14249     14247     14250     14253     14254     14257     14260     14261
     14254     14257     14260     14262     14254     14257     14260     14263
     14255     14254     14257     14258     14255     14254     14257     14259
     14255     14254     14257     14260     14256     14254     14257     14258
     14256     14254     14257     14259     14256     14254     14257     14260
     14257     14260     14263     14264     14257     14260     14263     14265
     14257     14260     14263     14266     14258     14257     14260     14261
     14258     14257     14260     14262     14258     14257     14260     14263
     14259     14257     14260     14261     14259     14257     14260     14262
     14259     14257     14260     14263     14260     14263     14266     14267
     14260     14263     14266     14268     14260     14263     14266     14269
     14261     14260     14263     14264     14261     14260     14263     14265
     14261     14260     14263     14266     14262     14260     14263     14264
     14262     14260     14263     14265     14262     14260     14263     14266
     14263     14266     14269     14270     14263     14266     14269     14271
     14263     14266     14269     14272     14264     14263     14266     14267
     14264     14263     14266     14268     14264     14263     14266     14269
     14265     14263     14266     14267     14265     14263     14266     14268
     14265     14263     14266     14269     14266     14269     14272     14273
     14266     14269     14272     14274     14267     14266     14269     14270
     14267     14266     14269     14271     14267     14266     14269     14272
     14268     14266     14269     14270     14268     14266     14269     14271
     14268     14266     14269     14272     14269     14272     14274     14275
     14269     14272     14274     14276     14270     14269     14272     14273
     14270     14269     14272     14274     14271     14269     14272     14273
     14271     14269     14272     14274     14272     14274     14276     14277
     14272     14274     14276     14278     14272     14274     14276     14279
     14273     14272     14274     14275     14273     14272     14274     14276
     14274     14276     14279     14280     14274     14276     14279     14281
     14274     14276     14279     14282     14275     14274     14276     14277
     14275     14274     14276     14278     14275     14274     14276     14279
     14276     14279     14282     14283     14276     14279     14282     14284
     14276     14279     14282     14285     14277     14276     14279     14280
     14277     14276     14279     14281     14277     14276     14279     14282
     14278     14276     14279     14280     14278     14276     14279     14281
     14278     14276     14279     14282     14279     14282     14285     14286
     14279     14282     14285     14287     14279     14282     14285     14288
     14280     14279     14282     14283     14280     14279     14282     14284
     14280     14279     14282     14285     14281     14279     14282     14283
     14281     14279     14282     14284     14281     14279     14282     14285
     14282     14285     14288     14289     14282     14285     14288     14290
     14282     14285     14288     14291     14283     14282     14285     14286
     14283     14282     14285     14287     14283     14282     14285     14288
     14284     14282     14285     14286     14284     14282     14285     14287
     14284     14282     14285     14288     14285     14288     14291     14292
     14285     14288     14291     14293     14285     14288     14291     14294
     14286     14285     14288     14289     14286     14285     14288     14290
     14286     14285     14288     14291     14287     14285     14288     14289
     14287     14285     14288     14290     14287     14285     14288     14291
     14288     14291     14294     14295     14288     14291     14294     14296
     14288     14291     14294     14297     14289     14288     14291     14292
     14289     14288     14291     14293     14289     14288     14291     14294
     14290     14288     14291     14292     14290     14288     14291     14293
     14290     14288     14291     14294     14291     14294     14297     14298
     14291     14294     14297     14299     14291     14294     14297     14300
     14292     14291     14294     14295     14292     14291     14294     14296
     14292     14291     14294     14297     14293     14291     14294     14295
     14293     14291     14294     14296     14293     14291     14294     14297
     14295     14294     14297     14298     14295     14294     14297     14299
     14295     14294     14297     14300     14296     14294     14297     14298
     14296     14294     14297     14299     14296     14294     14297     14300
     14301     14302     14317     14318     14301     14302     14317     14319
     14301     14302     14317     14323     14302     14301     14305     14306
     14302     14301     14305     14307     14302     14301     14305     14308
     14302     14301     14309     14310     14302     14301     14309     14311
     14302     14301     14309     14312     14302     14301     14313     14314
     14302     14301     14313     14315     14302     14301     14313     14316
     14302     14317     14323     14320     14303     14302     14301     14305
     14303     14302     14301     14309     14303     14302     14301     14313
     14303     14302     14317     14318     14303     14302     14317     14319
     14303     14302     14317     14323     14304     14302     14301     14305
     14304     14302     14301     14309     14304     14302     14301     14313
     14304     14302     14317     14318     14304     14302     14317     14319
     14304     14302     14317     14323     14305     14301     14302     14317
     14305     14301     14309     14310     14305     14301     14309     14311
     14305     14301     14309     14312     14305     14301     14313     14314
     14305     14301     14313     14315     14305     14301     14313     14316
     14306     14305     14301     14309     14306     14305     14301     14313
     14307     14305     14301     14309     14307     14305     14301     14313
     14308     14305     14301     14309     14308     14305     14301     14313
     14309     14301     14302     14317     14309     14301     14313     14314
     14309     14301     14313     14315     14309     14301     14313     14316
     14310     14309     14301     14313     14311     14309     14301     14313
     14312     14309     14301     14313     14313     14301     14302     14317
     14317     14323     14320     14321     14317     14323     14320     14322
     14317     14323     14320     14324     14318     14317     14323     14320
     14319     14317     14323     14320     14320     14324     14325     14326
     14320     14324     14325     14327     14320     14324     14325     14328
     14321     14320     14324     14325     14322     14320     14324     14325
     14323     14320     14324     14325     14324     14325     14328     14329
     14324     14325     14328     14330     14324     14325     14328     14336
     14325     14328     14330     14331     14325     14328     14336     14337
     14325     14328     14336     14338     14325     14328     14336     14339
     14326     14325     14328     14329     14326     14325     14328     14330
     14326     14325     14328     14336     14327     14325     14328     14329
     14327     14325     14328     14330     14327     14325     14328     14336
     14328     14330     14331     14332     14328     14330     14331     14333
     14328     14336     14339     14340     14329     14328     14330     14331
     14329     14328     14336     14337     14329     14328     14336     14338
     14329     14328     14336     14339     14330     14328     14336     14337
     14330     14328     14336     14338     14330     14328     14336     14339
     14330     14331     14333     14334     14330     14331     14333     14335
     14330     14331     14333     14345     14331     14330     14328     14336
     14331     14333     14345     14346     14331     14333     14345     14347
     14331     14333     14345     14348     14332     14331     14333     14334
     14332     14331     14333     14335     14332     14331     14333     14345
     14333     14345     14348     14349     14333     14345     14348     14350
     14333     14345     14348     14351     14334     14333     14345     14346
     14334     14333     14345     14347     14334     14333     14345     14348
     14335     14333     14345     14346     14335     14333     14345     14347
     14335     14333     14345     14348     14336     14339     14340     14341
     14336     14339     14340     14342     14337     14336     14339     14340
     14338     14336     14339     14340     14339     14340     14342     14343
     14339     14340     14342     14344     14339     14340     14342     14392
     14340     14342     14392     14393     14340     14342     14392     14394
     14340     14342     14392     14395     14341     14340     14342     14343
     14341     14340     14342     14344     14341     14340     14342     14392
     14342     14392     14395     14396     14342     14392     14395     14397
     14342     14392     14395     14398     14343     14342     14392     14393
     14343     14342     14392     14394     14343     14342     14392     14395
     14344     14342     14392     14393     14344     14342     14392     14394
     14344     14342     14392     14395     14345     14348     14351     14352
     14345     14348     14351     14353     14345     14348     14351     14354
     14346     14345     14348     14349     14346     14345     14348     14350
     14346     14345     14348     14351     14347     14345     14348     14349
     14347     14345     14348     14350     14347     14345     14348     14351
     14348     14351     14354     14355     14348     14351     14354     14356
     14348     14351     14354     14357     14349     14348     14351     14352
     14349     14348     14351     14353     14349     14348     14351     14354
     14350     14348     14351     14352     14350     14348     14351     14353
     14350     14348     14351     14354     14351     14354     14357     14358
     14351     14354     14357     14359     14351     14354     14357     14360
     14352     14351     14354     14355     14352     14351     14354     14356
     14352     14351     14354     14357     14353     14351     14354     14355
     14353     14351     14354     14356     14353     14351     14354     14357
     14354     14357     14360     14361     14354     14357     14360     14362
     14354     14357     14360     14363     14355     14354     14357     14358
     14355     14354     14357     14359     14355     14354     14357     14360
     14356     14354     14357     14358     14356     14354     14357     14359
     14356     14354     14357     14360     14357     14360     14363     14364
     14357     14360     14363     14365     14358     14357     14360     14361
     14358     14357     14360     14362     14358     14357     14360     14363
     14359     14357     14360     14361     14359     14357     14360     14362
     14359     14357     14360     14363     14360     14363     14365     14366
     14360     14363     14365     14367     14361     14360     14363     14364
     14361     14360     14363     14365     14362     14360     14363     14364
     14362     14360     14363     14365     14363     14365     14367     14368
     14363     14365     14367     14369     14363     14365     14367     14370
     14364     14363     14365     14366     14364     14363     14365     14367
     14365     14367     14370     14371     14365     14367     14370     14372
     14365     14367     14370     14373     14366     14365     14367     14368
     14366     14365     14367     14369     14366     14365     14367     14370
     14367     14370     14373     14374     14367     14370     14373     14375
     14367     14370     14373     14376     14368     14367     14370     14371
     14368     14367     14370     14372     14368     14367     14370     14373
     14369     14367     14370     14371     14369     14367     14370     14372
     14369     14367     14370     14373     14370     14373     14376     14377
     14370     14373     14376     14378     14370     14373     14376     14379
     14371     14370     14373     14374     14371     14370     14373     14375
     14371     14370     14373     14376     14372     14370     14373     14374
     14372     14370     14373     14375     14372     14370     14373     14376
     14373     14376     14379     14380     14373     14376     14379     14381
     14373     14376     14379     14382     14374     14373     14376     14377
     14374     14373     14376     14378     14374     14373     14376     14379
     14375     14373     14376     14377     14375     14373     14376     14378
     14375     14373     14376     14379     14376     14379     14382     14383
     14376     14379     14382     14384     14376     14379     14382     14385
     14377     14376     14379     14380     14377     14376     14379     14381
     14377     14376     14379     14382     14378     14376     14379     14380
     14378     14376     14379     14381     14378     14376     14379     14382
     14379     14382     14385     14386     14379     14382     14385     14387
     14379     14382     14385     14388     14380     14379     14382     14383
     14380     14379     14382     14384     14380     14379     14382     14385
     14381     14379     14382     14383     14381     14379     14382     14384
     14381     14379     14382     14385     14382     14385     14388     14389
     14382     14385     14388     14390     14382     14385     14388     14391
     14383     14382     14385     14386     14383     14382     14385     14387
     14383     14382     14385     14388     14384     14382     14385     14386
     14384     14382     14385     14387     14384     14382     14385     14388
     14386     14385     14388     14389     14386     14385     14388     14390
     14386     14385     14388     14391     14387     14385     14388     14389
     14387     14385     14388     14390     14387     14385     14388     14391
     14392     14395     14398     14399     14392     14395     14398     14400
     14392     14395     14398     14401     14393     14392     14395     14396
     14393     14392     14395     14397     14393     14392     14395     14398
     14394     14392     14395     14396     14394     14392     14395     14397
     14394     14392     14395     14398     14395     14398     14401     14402
     14395     14398     14401     14403     14395     14398     14401     14404
     14396     14395     14398     14399     14396     14395     14398     14400
     14396     14395     14398     14401     14397     14395     14398     14399
     14397     14395     14398     14400     14397     14395     14398     14401
     14398     14401     14404     14405     14398     14401     14404     14406
     14398     14401     14404     14407     14399     14398     14401     14402
     14399     14398     14401     14403     14399     14398     14401     14404
     14400     14398     14401     14402     14400     14398     14401     14403
     14400     14398     14401     14404     14401     14404     14407     14408
     14401     14404     14407     14409     14401     14404     14407     14410
     14402     14401     14404     14405     14402     14401     14404     14406
     14402     14401     14404     14407     14403     14401     14404     14405
     14403     14401     14404     14406     14403     14401     14404     14407
     14404     14407     14410     14411     14404     14407     14410     14412
     14405     14404     14407     14408     14405     14404     14407     14409
     14405     14404     14407     14410     14406     14404     14407     14408
     14406     14404     14407     14409     14406     14404     14407     14410
     14407     14410     14412     14413     14407     14410     14412     14414
     14408     14407     14410     14411     14408     14407     14410     14412
     14409     14407     14410     14411     14409     14407     14410     14412
     14410     14412     14414     14415     14410     14412     14414     14416
     14410     14412     14414     14417     14411     14410     14412     14413
     14411     14410     14412     14414     14412     14414     14417     14418
     14412     14414     14417     14419     14412     14414     14417     14420
     14413     14412     14414     14415     14413     14412     14414     14416
     14413     14412     14414     14417     14414     14417     14420     14421
     14414     14417     14420     14422     14414     14417     14420     14423
     14415     14414     14417     14418     14415     14414     14417     14419
     14415     14414     14417     14420     14416     14414     14417     14418
     14416     14414     14417     14419     14416     14414     14417     14420
     14417     14420     14423     14424     14417     14420     14423     14425
     14417     14420     14423     14426     14418     14417     14420     14421
     14418     14417     14420     14422     14418     14417     14420     14423
     14419     14417     14420     14421     14419     14417     14420     14422
     14419     14417     14420     14423     14420     14423     14426     14427
     14420     14423     14426     14428     14420     14423     14426     14429
     14421     14420     14423     14424     14421     14420     14423     14425
     14421     14420     14423     14426     14422     14420     14423     14424
     14422     14420     14423     14425     14422     14420     14423     14426
     14423     14426     14429     14430     14423     14426     14429     14431
     14423     14426     14429     14432     14424     14423     14426     14427
     14424     14423     14426     14428     14424     14423     14426     14429
     14425     14423     14426     14427     14425     14423     14426     14428
     14425     14423     14426     14429     14426     14429     14432     14433
     14426     14429     14432     14434     14426     14429     14432     14435
     14427     14426     14429     14430     14427     14426     14429     14431
     14427     14426     14429     14432     14428     14426     14429     14430
     14428     14426     14429     14431     14428     14426     14429     14432
     14429     14432     14435     14436     14429     14432     14435     14437
     14429     14432     14435     14438     14430     14429     14432     14433
     14430     14429     14432     14434     14430     14429     14432     14435
     14431     14429     14432     14433     14431     14429     14432     14434
     14431     14429     14432     14435     14433     14432     14435     14436
     14433     14432     14435     14437     14433     14432     14435     14438
     14434     14432     14435     14436     14434     14432     14435     14437
     14434     14432     14435     14438     14439     14440     14455     14456
     14439     14440     14455     14457     14439     14440     14455     14461
     14440     14439     14443     14444     14440     14439     14443     14445
     14440     14439     14443     14446     14440     14439     14447     14448
     14440     14439     14447     14449     14440     14439     14447     14450
     14440     14439     14451     14452     14440     14439     14451     14453
     14440     14439     14451     14454     14440     14455     14461     14458
     14441     14440     14439     14443     14441     14440     14439     14447
     14441     14440     14439     14451     14441     14440     14455     14456
     14441     14440     14455     14457     14441     14440     14455     14461
     14442     14440     14439     14443     14442     14440     14439     14447
     14442     14440     14439     14451     14442     14440     14455     14456
     14442     14440     14455     14457     14442     14440     14455     14461
     14443     14439     14440     14455     14443     14439     14447     14448
     14443     14439     14447     14449     14443     14439     14447     14450
     14443     14439     14451     14452     14443     14439     14451     14453
     14443     14439     14451     14454     14444     14443     14439     14447
     14444     14443     14439     14451     14445     14443     14439     14447
     14445     14443     14439     14451     14446     14443     14439     14447
     14446     14443     14439     14451     14447     14439     14440     14455
     14447     14439     14451     14452     14447     14439     14451     14453
     14447     14439     14451     14454     14448     14447     14439     14451
     14449     14447     14439     14451     14450     14447     14439     14451
     14451     14439     14440     14455     14455     14461     14458     14459
     14455     14461     14458     14460     14455     14461     14458     14462
     14456     14455     14461     14458     14457     14455     14461     14458
     14458     14462     14463     14464     14458     14462     14463     14465
     14458     14462     14463     14466     14459     14458     14462     14463
     14460     14458     14462     14463     14461     14458     14462     14463
     14462     14463     14466     14467     14462     14463     14466     14468
     14462     14463     14466     14474     14463     14466     14468     14469
     14463     14466     14474     14475     14463     14466     14474     14476
     14463     14466     14474     14477     14464     14463     14466     14467
     14464     14463     14466     14468     14464     14463     14466     14474
     14465     14463     14466     14467     14465     14463     14466     14468
     14465     14463     14466     14474     14466     14468     14469     14470
     14466     14468     14469     14471     14466     14474     14477     14478
     14467     14466     14468     14469     14467     14466     14474     14475
     14467     14466     14474     14476     14467     14466     14474     14477
     14468     14466     14474     14475     14468     14466     14474     14476
     14468     14466     14474     14477     14468     14469     14471     14472
     14468     14469     14471     14473     14468     14469     14471     14483
     14469     14468     14466     14474     14469     14471     14483     14484
     14469     14471     14483     14485     14469     14471     14483     14486
     14470     14469     14471     14472     14470     14469     14471     14473
     14470     14469     14471     14483     14471     14483     14486     14487
     14471     14483     14486     14488     14471     14483     14486     14489
     14472     14471     14483     14484     14472     14471     14483     14485
     14472     14471     14483     14486     14473     14471     14483     14484
     14473     14471     14483     14485     14473     14471     14483     14486
     14474     14477     14478     14479     14474     14477     14478     14480
     14475     14474     14477     14478     14476     14474     14477     14478
     14477     14478     14480     14481     14477     14478     14480     14482
     14477     14478     14480     14530     14478     14480     14530     14531
     14478     14480     14530     14532     14478     14480     14530     14533
     14479     14478     14480     14481     14479     14478     14480     14482
     14479     14478     14480     14530     14480     14530     14533     14534
     14480     14530     14533     14535     14480     14530     14533     14536
     14481     14480     14530     14531     14481     14480     14530     14532
     14481     14480     14530     14533     14482     14480     14530     14531
     14482     14480     14530     14532     14482     14480     14530     14533
     14483     14486     14489     14490     14483     14486     14489     14491
     14483     14486     14489     14492     14484     14483     14486     14487
     14484     14483     14486     14488     14484     14483     14486     14489
     14485     14483     14486     14487     14485     14483     14486     14488
     14485     14483     14486     14489     14486     14489     14492     14493
     14486     14489     14492     14494     14486     14489     14492     14495
     14487     14486     14489     14490     14487     14486     14489     14491
     14487     14486     14489     14492     14488     14486     14489     14490
     14488     14486     14489     14491     14488     14486     14489     14492
     14489     14492     14495     14496     14489     14492     14495     14497
     14489     14492     14495     14498     14490     14489     14492     14493
     14490     14489     14492     14494     14490     14489     14492     14495
     14491     14489     14492     14493     14491     14489     14492     14494
     14491     14489     14492     14495     14492     14495     14498     14499
     14492     14495     14498     14500     14492     14495     14498     14501
     14493     14492     14495     14496     14493     14492     14495     14497
     14493     14492     14495     14498     14494     14492     14495     14496
     14494     14492     14495     14497     14494     14492     14495     14498
     14495     14498     14501     14502     14495     14498     14501     14503
     14496     14495     14498     14499     14496     14495     14498     14500
     14496     14495     14498     14501     14497     14495     14498     14499
     14497     14495     14498     14500     14497     14495     14498     14501
     14498     14501     14503     14504     14498     14501     14503     14505
     14499     14498     14501     14502     14499     14498     14501     14503
     14500     14498     14501     14502     14500     14498     14501     14503
     14501     14503     14505     14506     14501     14503     14505     14507
     14501     14503     14505     14508     14502     14501     14503     14504
     14502     14501     14503     14505     14503     14505     14508     14509
     14503     14505     14508     14510     14503     14505     14508     14511
     14504     14503     14505     14506     14504     14503     14505     14507
     14504     14503     14505     14508     14505     14508     14511     14512
     14505     14508     14511     14513     14505     14508     14511     14514
     14506     14505     14508     14509     14506     14505     14508     14510
     14506     14505     14508     14511     14507     14505     14508     14509
     14507     14505     14508     14510     14507     14505     14508     14511
     14508     14511     14514     14515     14508     14511     14514     14516
     14508     14511     14514     14517     14509     14508     14511     14512
     14509     14508     14511     14513     14509     14508     14511     14514
     14510     14508     14511     14512     14510     14508     14511     14513
     14510     14508     14511     14514     14511     14514     14517     14518
     14511     14514     14517     14519     14511     14514     14517     14520
     14512     14511     14514     14515     14512     14511     14514     14516
     14512     14511     14514     14517     14513     14511     14514     14515
     14513     14511     14514     14516     14513     14511     14514     14517
     14514     14517     14520     14521     14514     14517     14520     14522
     14514     14517     14520     14523     14515     14514     14517     14518
     14515     14514     14517     14519     14515     14514     14517     14520
     14516     14514     14517     14518     14516     14514     14517     14519
     14516     14514     14517     14520     14517     14520     14523     14524
     14517     14520     14523     14525     14517     14520     14523     14526
     14518     14517     14520     14521     14518     14517     14520     14522
     14518     14517     14520     14523     14519     14517     14520     14521
     14519     14517     14520     14522     14519     14517     14520     14523
     14520     14523     14526     14527     14520     14523     14526     14528
     14520     14523     14526     14529     14521     14520     14523     14524
     14521     14520     14523     14525     14521     14520     14523     14526
     14522     14520     14523     14524     14522     14520     14523     14525
     14522     14520     14523     14526     14524     14523     14526     14527
     14524     14523     14526     14528     14524     14523     14526     14529
     14525     14523     14526     14527     14525     14523     14526     14528
     14525     14523     14526     14529     14530     14533     14536     14537
     14530     14533     14536     14538     14530     14533     14536     14539
     14531     14530     14533     14534     14531     14530     14533     14535
     14531     14530     14533     14536     14532     14530     14533     14534
     14532     14530     14533     14535     14532     14530     14533     14536
     14533     14536     14539     14540     14533     14536     14539     14541
     14533     14536     14539     14542     14534     14533     14536     14537
     14534     14533     14536     14538     14534     14533     14536     14539
     14535     14533     14536     14537     14535     14533     14536     14538
     14535     14533     14536     14539     14536     14539     14542     14543
     14536     14539     14542     14544     14536     14539     14542     14545
     14537     14536     14539     14540     14537     14536     14539     14541
     14537     14536     14539     14542     14538     14536     14539     14540
     14538     14536     14539     14541     14538     14536     14539     14542
     14539     14542     14545     14546     14539     14542     14545     14547
     14539     14542     14545     14548     14540     14539     14542     14543
     14540     14539     14542     14544     14540     14539     14542     14545
     14541     14539     14542     14543     14541     14539     14542     14544
     14541     14539     14542     14545     14542     14545     14548     14549
     14542     14545     14548     14550     14543     14542     14545     14546
     14543     14542     14545     14547     14543     14542     14545     14548
     14544     14542     14545     14546     14544     14542     14545     14547
     14544     14542     14545     14548     14545     14548     14550     14551
     14545     14548     14550     14552     14546     14545     14548     14549
     14546     14545     14548     14550     14547     14545     14548     14549
     14547     14545     14548     14550     14548     14550     14552     14553
     14548     14550     14552     14554     14548     14550     14552     14555
     14549     14548     14550     14551     14549     14548     14550     14552
     14550     14552     14555     14556     14550     14552     14555     14557
     14550     14552     14555     14558     14551     14550     14552     14553
     14551     14550     14552     14554     14551     14550     14552     14555
     14552     14555     14558     14559     14552     14555     14558     14560
     14552     14555     14558     14561     14553     14552     14555     14556
     14553     14552     14555     14557     14553     14552     14555     14558
     14554     14552     14555     14556     14554     14552     14555     14557
     14554     14552     14555     14558     14555     14558     14561     14562
     14555     14558     14561     14563     14555     14558     14561     14564
     14556     14555     14558     14559     14556     14555     14558     14560
     14556     14555     14558     14561     14557     14555     14558     14559
     14557     14555     14558     14560     14557     14555     14558     14561
     14558     14561     14564     14565     14558     14561     14564     14566
     14558     14561     14564     14567     14559     14558     14561     14562
     14559     14558     14561     14563     14559     14558     14561     14564
     14560     14558     14561     14562     14560     14558     14561     14563
     14560     14558     14561     14564     14561     14564     14567     14568
     14561     14564     14567     14569     14561     14564     14567     14570
     14562     14561     14564     14565     14562     14561     14564     14566
     14562     14561     14564     14567     14563     14561     14564     14565
     14563     14561     14564     14566     14563     14561     14564     14567
     14564     14567     14570     14571     14564     14567     14570     14572
     14564     14567     14570     14573     14565     14564     14567     14568
     14565     14564     14567     14569     14565     14564     14567     14570
     14566     14564     14567     14568     14566     14564     14567     14569
     14566     14564     14567     14570     14567     14570     14573     14574
     14567     14570     14573     14575     14567     14570     14573     14576
     14568     14567     14570     14571     14568     14567     14570     14572
     14568     14567     14570     14573     14569     14567     14570     14571
     14569     14567     14570     14572     14569     14567     14570     14573
     14571     14570     14573     14574     14571     14570     14573     14575
     14571     14570     14573     14576     14572     14570     14573     14574
     14572     14570     14573     14575     14572     14570     14573     14576
     14577     14578     14593     14594     14577     14578     14593     14595
     14577     14578     14593     14599     14578     14577     14581     14582
     14578     14577     14581     14583     14578     14577     14581     14584
     14578     14577     14585     14586     14578     14577     14585     14587
     14578     14577     14585     14588     14578     14577     14589     14590
     14578     14577     14589     14591     14578     14577     14589     14592
     14578     14593     14599     14596     14579     14578     14577     14581
     14579     14578     14577     14585     14579     14578     14577     14589
     14579     14578     14593     14594     14579     14578     14593     14595
     14579     14578     14593     14599     14580     14578     14577     14581
     14580     14578     14577     14585     14580     14578     14577     14589
     14580     14578     14593     14594     14580     14578     14593     14595
     14580     14578     14593     14599     14581     14577     14578     14593
     14581     14577     14585     14586     14581     14577     14585     14587
     14581     14577     14585     14588     14581     14577     14589     14590
     14581     14577     14589     14591     14581     14577     14589     14592
     14582     14581     14577     14585     14582     14581     14577     14589
     14583     14581     14577     14585     14583     14581     14577     14589
     14584     14581     14577     14585     14584     14581     14577     14589
     14585     14577     14578     14593     14585     14577     14589     14590
     14585     14577     14589     14591     14585     14577     14589     14592
     14586     14585     14577     14589     14587     14585     14577     14589
     14588     14585     14577     14589     14589     14577     14578     14593
     14593     14599     14596     14597     14593     14599     14596     14598
     14593     14599     14596     14600     14594     14593     14599     14596
     14595     14593     14599     14596     14596     14600     14601     14602
     14596     14600     14601     14603     14596     14600     14601     14604
     14597     14596     14600     14601     14598     14596     14600     14601
     14599     14596     14600     14601     14600     14601     14604     14605
     14600     14601     14604     14606     14600     14601     14604     14612
     14601     14604     14606     14607     14601     14604     14612     14613
     14601     14604     14612     14614     14601     14604     14612     14615
     14602     14601     14604     14605     14602     14601     14604     14606
     14602     14601     14604     14612     14603     14601     14604     14605
     14603     14601     14604     14606     14603     14601     14604     14612
     14604     14606     14607     14608     14604     14606     14607     14609
     14604     14612     14615     14616     14605     14604     14606     14607
     14605     14604     14612     14613     14605     14604     14612     14614
     14605     14604     14612     14615     14606     14604     14612     14613
     14606     14604     14612     14614     14606     14604     14612     14615
     14606     14607     14609     14610     14606     14607     14609     14611
     14606     14607     14609     14621     14607     14606     14604     14612
     14607     14609     14621     14622     14607     14609     14621     14623
     14607     14609     14621     14624     14608     14607     14609     14610
     14608     14607     14609     14611     14608     14607     14609     14621
     14609     14621     14624     14625     14609     14621     14624     14626
     14609     14621     14624     14627     14610     14609     14621     14622
     14610     14609     14621     14623     14610     14609     14621     14624
     14611     14609     14621     14622     14611     14609     14621     14623
     14611     14609     14621     14624     14612     14615     14616     14617
     14612     14615     14616     14618     14613     14612     14615     14616
     14614     14612     14615     14616     14615     14616     14618     14619
     14615     14616     14618     14620     14615     14616     14618     14668
     14616     14618     14668     14669     14616     14618     14668     14670
     14616     14618     14668     14671     14617     14616     14618     14619
     14617     14616     14618     14620     14617     14616     14618     14668
     14618     14668     14671     14672     14618     14668     14671     14673
     14618     14668     14671     14674     14619     14618     14668     14669
     14619     14618     14668     14670     14619     14618     14668     14671
     14620     14618     14668     14669     14620     14618     14668     14670
     14620     14618     14668     14671     14621     14624     14627     14628
     14621     14624     14627     14629     14621     14624     14627     14630
     14622     14621     14624     14625     14622     14621     14624     14626
     14622     14621     14624     14627     14623     14621     14624     14625
     14623     14621     14624     14626     14623     14621     14624     14627
     14624     14627     14630     14631     14624     14627     14630     14632
     14624     14627     14630     14633     14625     14624     14627     14628
     14625     14624     14627     14629     14625     14624     14627     14630
     14626     14624     14627     14628     14626     14624     14627     14629
     14626     14624     14627     14630     14627     14630     14633     14634
     14627     14630     14633     14635     14627     14630     14633     14636
     14628     14627     14630     14631     14628     14627     14630     14632
     14628     14627     14630     14633     14629     14627     14630     14631
     14629     14627     14630     14632     14629     14627     14630     14633
     14630     14633     14636     14637     14630     14633     14636     14638
     14630     14633     14636     14639     14631     14630     14633     14634
     14631     14630     14633     14635     14631     14630     14633     14636
     14632     14630     14633     14634     14632     14630     14633     14635
     14632     14630     14633     14636     14633     14636     14639     14640
     14633     14636     14639     14641     14634     14633     14636     14637
     14634     14633     14636     14638     14634     14633     14636     14639
     14635     14633     14636     14637     14635     14633     14636     14638
     14635     14633     14636     14639     14636     14639     14641     14642
     14636     14639     14641     14643     14637     14636     14639     14640
     14637     14636     14639     14641     14638     14636     14639     14640
     14638     14636     14639     14641     14639     14641     14643     14644
     14639     14641     14643     14645     14639     14641     14643     14646
     14640     14639     14641     14642     14640     14639     14641     14643
     14641     14643     14646     14647     14641     14643     14646     14648
     14641     14643     14646     14649     14642     14641     14643     14644
     14642     14641     14643     14645     14642     14641     14643     14646
     14643     14646     14649     14650     14643     14646     14649     14651
     14643     14646     14649     14652     14644     14643     14646     14647
     14644     14643     14646     14648     14644     14643     14646     14649
     14645     14643     14646     14647     14645     14643     14646     14648
     14645     14643     14646     14649     14646     14649     14652     14653
     14646     14649     14652     14654     14646     14649     14652     14655
     14647     14646     14649     14650     14647     14646     14649     14651
     14647     14646     14649     14652     14648     14646     14649     14650
     14648     14646     14649     14651     14648     14646     14649     14652
     14649     14652     14655     14656     14649     14652     14655     14657
     14649     14652     14655     14658     14650     14649     14652     14653
     14650     14649     14652     14654     14650     14649     14652     14655
     14651     14649     14652     14653     14651     14649     14652     14654
     14651     14649     14652     14655     14652     14655     14658     14659
     14652     14655     14658     14660     14652     14655     14658     14661
     14653     14652     14655     14656     14653     14652     14655     14657
     14653     14652     14655     14658     14654     14652     14655     14656
     14654     14652     14655     14657     14654     14652     14655     14658
     14655     14658     14661     14662     14655     14658     14661     14663
     14655     14658     14661     14664     14656     14655     14658     14659
     14656     14655     14658     14660     14656     14655     14658     14661
     14657     14655     14658     14659     14657     14655     14658     14660
     14657     14655     14658     14661     14658     14661     14664     14665
     14658     14661     14664     14666     14658     14661     14664     14667
     14659     14658     14661     14662     14659     14658     14661     14663
     14659     14658     14661     14664     14660     14658     14661     14662
     14660     14658     14661     14663     14660     14658     14661     14664
     14662     14661     14664     14665     14662     14661     14664     14666
     14662     14661     14664     14667     14663     14661     14664     14665
     14663     14661     14664     14666     14663     14661     14664     14667
     14668     14671     14674     14675     14668     14671     14674     14676
     14668     14671     14674     14677     14669     14668     14671     14672
     14669     14668     14671     14673     14669     14668     14671     14674
     14670     14668     14671     14672     14670     14668     14671     14673
     14670     14668     14671     14674     14671     14674     14677     14678
     14671     14674     14677     14679     14671     14674     14677     14680
     14672     14671     14674     14675     14672     14671     14674     14676
     14672     14671     14674     14677     14673     14671     14674     14675
     14673     14671     14674     14676     14673     14671     14674     14677
     14674     14677     14680     14681     14674     14677     14680     14682
     14674     14677     14680     14683     14675     14674     14677     14678
     14675     14674     14677     14679     14675     14674     14677     14680
     14676     14674     14677     14678     14676     14674     14677     14679
     14676     14674     14677     14680     14677     14680     14683     14684
     14677     14680     14683     14685     14677     14680     14683     14686
     14678     14677     14680     14681     14678     14677     14680     14682
     14678     14677     14680     14683     14679     14677     14680     14681
     14679     14677     14680     14682     14679     14677     14680     14683
     14680     14683     14686     14687     14680     14683     14686     14688
     14681     14680     14683     14684     14681     14680     14683     14685
     14681     14680     14683     14686     14682     14680     14683     14684
     14682     14680     14683     14685     14682     14680     14683     14686
     14683     14686     14688     14689     14683     14686     14688     14690
     14684     14683     14686     14687     14684     14683     14686     14688
     14685     14683     14686     14687     14685     14683     14686     14688
     14686     14688     14690     14691     14686     14688     14690     14692
     14686     14688     14690     14693     14687     14686     14688     14689
     14687     14686     14688     14690     14688     14690     14693     14694
     14688     14690     14693     14695     14688     14690     14693     14696
     14689     14688     14690     14691     14689     14688     14690     14692
     14689     14688     14690     14693     14690     14693     14696     14697
     14690     14693     14696     14698     14690     14693     14696     14699
     14691     14690     14693     14694     14691     14690     14693     14695
     14691     14690     14693     14696     14692     14690     14693     14694
     14692     14690     14693     14695     14692     14690     14693     14696
     14693     14696     14699     14700     14693     14696     14699     14701
     14693     14696     14699     14702     14694     14693     14696     14697
     14694     14693     14696     14698     14694     14693     14696     14699
     14695     14693     14696     14697     14695     14693     14696     14698
     14695     14693     14696     14699     14696     14699     14702     14703
     14696     14699     14702     14704     14696     14699     14702     14705
     14697     14696     14699     14700     14697     14696     14699     14701
     14697     14696     14699     14702     14698     14696     14699     14700
     14698     14696     14699     14701     14698     14696     14699     14702
     14699     14702     14705     14706     14699     14702     14705     14707
     14699     14702     14705     14708     14700     14699     14702     14703
     14700     14699     14702     14704     14700     14699     14702     14705
     14701     14699     14702     14703     14701     14699     14702     14704
     14701     14699     14702     14705     14702     14705     14708     14709
     14702     14705     14708     14710     14702     14705     14708     14711
     14703     14702     14705     14706     14703     14702     14705     14707
     14703     14702     14705     14708     14704     14702     14705     14706
     14704     14702     14705     14707     14704     14702     14705     14708
     14705     14708     14711     14712     14705     14708     14711     14713
     14705     14708     14711     14714     14706     14705     14708     14709
     14706     14705     14708     14710     14706     14705     14708     14711
     14707     14705     14708     14709     14707     14705     14708     14710
     14707     14705     14708     14711     14709     14708     14711     14712
     14709     14708     14711     14713     14709     14708     14711     14714
     14710     14708     14711     14712     14710     14708     14711     14713
     14710     14708     14711     14714     14715     14716     14731     14732
     14715     14716     14731     14733     14715     14716     14731     14737
     14716     14715     14719     14720     14716     14715     14719     14721
     14716     14715     14719     14722     14716     14715     14723     14724
     14716     14715     14723     14725     14716     14715     14723     14726
     14716     14715     14727     14728     14716     14715     14727     14729
     14716     14715     14727     14730     14716     14731     14737     14734
     14717     14716     14715     14719     14717     14716     14715     14723
     14717     14716     14715     14727     14717     14716     14731     14732
     14717     14716     14731     14733     14717     14716     14731     14737
     14718     14716     14715     14719     14718     14716     14715     14723
     14718     14716     14715     14727     14718     14716     14731     14732
     14718     14716     14731     14733     14718     14716     14731     14737
     14719     14715     14716     14731     14719     14715     14723     14724
     14719     14715     14723     14725     14719     14715     14723     14726
     14719     14715     14727     14728     14719     14715     14727     14729
     14719     14715     14727     14730     14720     14719     14715     14723
     14720     14719     14715     14727     14721     14719     14715     14723
     14721     14719     14715     14727     14722     14719     14715     14723
     14722     14719     14715     14727     14723     14715     14716     14731
     14723     14715     14727     14728     14723     14715     14727     14729
     14723     14715     14727     14730     14724     14723     14715     14727
     14725     14723     14715     14727     14726     14723     14715     14727
     14727     14715     14716     14731     14731     14737     14734     14735
     14731     14737     14734     14736     14731     14737     14734     14738
     14732     14731     14737     14734     14733     14731     14737     14734
     14734     14738     14739     14740     14734     14738     14739     14741
     14734     14738     14739     14742     14735     14734     14738     14739
     14736     14734     14738     14739     14737     14734     14738     14739
     14738     14739     14742     14743     14738     14739     14742     14744
     14738     14739     14742     14750     14739     14742     14744     14745
     14739     14742     14750     14751     14739     14742     14750     14752
     14739     14742     14750     14753     14740     14739     14742     14743
     14740     14739     14742     14744     14740     14739     14742     14750
     14741     14739     14742     14743     14741     14739     14742     14744
     14741     14739     14742     14750     14742     14744     14745     14746
     14742     14744     14745     14747     14742     14750     14753     14754
     14743     14742     14744     14745     14743     14742     14750     14751
     14743     14742     14750     14752     14743     14742     14750     14753
     14744     14742     14750     14751     14744     14742     14750     14752
     14744     14742     14750     14753     14744     14745     14747     14748
     14744     14745     14747     14749     14744     14745     14747     14759
     14745     14744     14742     14750     14745     14747     14759     14760
     14745     14747     14759     14761     14745     14747     14759     14762
     14746     14745     14747     14748     14746     14745     14747     14749
     14746     14745     14747     14759     14747     14759     14762     14763
     14747     14759     14762     14764     14747     14759     14762     14765
     14748     14747     14759     14760     14748     14747     14759     14761
     14748     14747     14759     14762     14749     14747     14759     14760
     14749     14747     14759     14761     14749     14747     14759     14762
     14750     14753     14754     14755     14750     14753     14754     14756
     14751     14750     14753     14754     14752     14750     14753     14754
     14753     14754     14756     14757     14753     14754     14756     14758
     14753     14754     14756     14806     14754     14756     14806     14807
     14754     14756     14806     14808     14754     14756     14806     14809
     14755     14754     14756     14757     14755     14754     14756     14758
     14755     14754     14756     14806     14756     14806     14809     14810
     14756     14806     14809     14811     14756     14806     14809     14812
     14757     14756     14806     14807     14757     14756     14806     14808
     14757     14756     14806     14809     14758     14756     14806     14807
     14758     14756     14806     14808     14758     14756     14806     14809
     14759     14762     14765     14766     14759     14762     14765     14767
     14759     14762     14765     14768     14760     14759     14762     14763
     14760     14759     14762     14764     14760     14759     14762     14765
     14761     14759     14762     14763     14761     14759     14762     14764
     14761     14759     14762     14765     14762     14765     14768     14769
     14762     14765     14768     14770     14762     14765     14768     14771
     14763     14762     14765     14766     14763     14762     14765     14767
     14763     14762     14765     14768     14764     14762     14765     14766
     14764     14762     14765     14767     14764     14762     14765     14768
     14765     14768     14771     14772     14765     14768     14771     14773
     14765     14768     14771     14774     14766     14765     14768     14769
     14766     14765     14768     14770     14766     14765     14768     14771
     14767     14765     14768     14769     14767     14765     14768     14770
     14767     14765     14768     14771     14768     14771     14774     14775
     14768     14771     14774     14776     14768     14771     14774     14777
     14769     14768     14771     14772     14769     14768     14771     14773
     14769     14768     14771     14774     14770     14768     14771     14772
     14770     14768     14771     14773     14770     14768     14771     14774
     14771     14774     14777     14778     14771     14774     14777     14779
     14772     14771     14774     14775     14772     14771     14774     14776
     14772     14771     14774     14777     14773     14771     14774     14775
     14773     14771     14774     14776     14773     14771     14774     14777
     14774     14777     14779     14780     14774     14777     14779     14781
     14775     14774     14777     14778     14775     14774     14777     14779
     14776     14774     14777     14778     14776     14774     14777     14779
     14777     14779     14781     14782     14777     14779     14781     14783
     14777     14779     14781     14784     14778     14777     14779     14780
     14778     14777     14779     14781     14779     14781     14784     14785
     14779     14781     14784     14786     14779     14781     14784     14787
     14780     14779     14781     14782     14780     14779     14781     14783
     14780     14779     14781     14784     14781     14784     14787     14788
     14781     14784     14787     14789     14781     14784     14787     14790
     14782     14781     14784     14785     14782     14781     14784     14786
     14782     14781     14784     14787     14783     14781     14784     14785
     14783     14781     14784     14786     14783     14781     14784     14787
     14784     14787     14790     14791     14784     14787     14790     14792
     14784     14787     14790     14793     14785     14784     14787     14788
     14785     14784     14787     14789     14785     14784     14787     14790
     14786     14784     14787     14788     14786     14784     14787     14789
     14786     14784     14787     14790     14787     14790     14793     14794
     14787     14790     14793     14795     14787     14790     14793     14796
     14788     14787     14790     14791     14788     14787     14790     14792
     14788     14787     14790     14793     14789     14787     14790     14791
     14789     14787     14790     14792     14789     14787     14790     14793
     14790     14793     14796     14797     14790     14793     14796     14798
     14790     14793     14796     14799     14791     14790     14793     14794
     14791     14790     14793     14795     14791     14790     14793     14796
     14792     14790     14793     14794     14792     14790     14793     14795
     14792     14790     14793     14796     14793     14796     14799     14800
     14793     14796     14799     14801     14793     14796     14799     14802
     14794     14793     14796     14797     14794     14793     14796     14798
     14794     14793     14796     14799     14795     14793     14796     14797
     14795     14793     14796     14798     14795     14793     14796     14799
     14796     14799     14802     14803     14796     14799     14802     14804
     14796     14799     14802     14805     14797     14796     14799     14800
     14797     14796     14799     14801     14797     14796     14799     14802
     14798     14796     14799     14800     14798     14796     14799     14801
     14798     14796     14799     14802     14800     14799     14802     14803
     14800     14799     14802     14804     14800     14799     14802     14805
     14801     14799     14802     14803     14801     14799     14802     14804
     14801     14799     14802     14805     14806     14809     14812     14813
     14806     14809     14812     14814     14806     14809     14812     14815
     14807     14806     14809     14810     14807     14806     14809     14811
     14807     14806     14809     14812     14808     14806     14809     14810
     14808     14806     14809     14811     14808     14806     14809     14812
     14809     14812     14815     14816     14809     14812     14815     14817
     14809     14812     14815     14818     14810     14809     14812     14813
     14810     14809     14812     14814     14810     14809     14812     14815
     14811     14809     14812     14813     14811     14809     14812     14814
     14811     14809     14812     14815     14812     14815     14818     14819
     14812     14815     14818     14820     14812     14815     14818     14821
     14813     14812     14815     14816     14813     14812     14815     14817
     14813     14812     14815     14818     14814     14812     14815     14816
     14814     14812     14815     14817     14814     14812     14815     14818
     14815     14818     14821     14822     14815     14818     14821     14823
     14815     14818     14821     14824     14816     14815     14818     14819
     14816     14815     14818     14820     14816     14815     14818     14821
     14817     14815     14818     14819     14817     14815     14818     14820
     14817     14815     14818     14821     14818     14821     14824     14825
     14818     14821     14824     14826     14819     14818     14821     14822
     14819     14818     14821     14823     14819     14818     14821     14824
     14820     14818     14821     14822     14820     14818     14821     14823
     14820     14818     14821     14824     14821     14824     14826     14827
     14821     14824     14826     14828     14822     14821     14824     14825
     14822     14821     14824     14826     14823     14821     14824     14825
     14823     14821     14824     14826     14824     14826     14828     14829
     14824     14826     14828     14830     14824     14826     14828     14831
     14825     14824     14826     14827     14825     14824     14826     14828
     14826     14828     14831     14832     14826     14828     14831     14833
     14826     14828     14831     14834     14827     14826     14828     14829
     14827     14826     14828     14830     14827     14826     14828     14831
     14828     14831     14834     14835     14828     14831     14834     14836
     14828     14831     14834     14837     14829     14828     14831     14832
     14829     14828     14831     14833     14829     14828     14831     14834
     14830     14828     14831     14832     14830     14828     14831     14833
     14830     14828     14831     14834     14831     14834     14837     14838
     14831     14834     14837     14839     14831     14834     14837     14840
     14832     14831     14834     14835     14832     14831     14834     14836
     14832     14831     14834     14837     14833     14831     14834     14835
     14833     14831     14834     14836     14833     14831     14834     14837
     14834     14837     14840     14841     14834     14837     14840     14842
     14834     14837     14840     14843     14835     14834     14837     14838
     14835     14834     14837     14839     14835     14834     14837     14840
     14836     14834     14837     14838     14836     14834     14837     14839
     14836     14834     14837     14840     14837     14840     14843     14844
     14837     14840     14843     14845     14837     14840     14843     14846
     14838     14837     14840     14841     14838     14837     14840     14842
     14838     14837     14840     14843     14839     14837     14840     14841
     14839     14837     14840     14842     14839     14837     14840     14843
     14840     14843     14846     14847     14840     14843     14846     14848
     14840     14843     14846     14849     14841     14840     14843     14844
     14841     14840     14843     14845     14841     14840     14843     14846
     14842     14840     14843     14844     14842     14840     14843     14845
     14842     14840     14843     14846     14843     14846     14849     14850
     14843     14846     14849     14851     14843     14846     14849     14852
     14844     14843     14846     14847     14844     14843     14846     14848
     14844     14843     14846     14849     14845     14843     14846     14847
     14845     14843     14846     14848     14845     14843     14846     14849
     14847     14846     14849     14850     14847     14846     14849     14851
     14847     14846     14849     14852     14848     14846     14849     14850
     14848     14846     14849     14851     14848     14846     14849     14852
     14853     14854     14869     14870     14853     14854     14869     14871
     14853     14854     14869     14875     14854     14853     14857     14858
     14854     14853     14857     14859     14854     14853     14857     14860
     14854     14853     14861     14862     14854     14853     14861     14863
     14854     14853     14861     14864     14854     14853     14865     14866
     14854     14853     14865     14867     14854     14853     14865     14868
     14854     14869     14875     14872     14855     14854     14853     14857
     14855     14854     14853     14861     14855     14854     14853     14865
     14855     14854     14869     14870     14855     14854     14869     14871
     14855     14854     14869     14875     14856     14854     14853     14857
     14856     14854     14853     14861     14856     14854     14853     14865
     14856     14854     14869     14870     14856     14854     14869     14871
     14856     14854     14869     14875     14857     14853     14854     14869
     14857     14853     14861     14862     14857     14853     14861     14863
     14857     14853     14861     14864     14857     14853     14865     14866
     14857     14853     14865     14867     14857     14853     14865     14868
     14858     14857     14853     14861     14858     14857     14853     14865
     14859     14857     14853     14861     14859     14857     14853     14865
     14860     14857     14853     14861     14860     14857     14853     14865
     14861     14853     14854     14869     14861     14853     14865     14866
     14861     14853     14865     14867     14861     14853     14865     14868
     14862     14861     14853     14865     14863     14861     14853     14865
     14864     14861     14853     14865     14865     14853     14854     14869
     14869     14875     14872     14873     14869     14875     14872     14874
     14869     14875     14872     14876     14870     14869     14875     14872
     14871     14869     14875     14872     14872     14876     14877     14878
     14872     14876     14877     14879     14872     14876     14877     14880
     14873     14872     14876     14877     14874     14872     14876     14877
     14875     14872     14876     14877     14876     14877     14880     14881
     14876     14877     14880     14882     14876     14877     14880     14888
     14877     14880     14882     14883     14877     14880     14888     14889
     14877     14880     14888     14890     14877     14880     14888     14891
     14878     14877     14880     14881     14878     14877     14880     14882
     14878     14877     14880     14888     14879     14877     14880     14881
     14879     14877     14880     14882     14879     14877     14880     14888
     14880     14882     14883     14884     14880     14882     14883     14885
     14880     14888     14891     14892     14881     14880     14882     14883
     14881     14880     14888     14889     14881     14880     14888     14890
     14881     14880     14888     14891     14882     14880     14888     14889
     14882     14880     14888     14890     14882     14880     14888     14891
     14882     14883     14885     14886     14882     14883     14885     14887
     14882     14883     14885     14897     14883     14882     14880     14888
     14883     14885     14897     14898     14883     14885     14897     14899
     14883     14885     14897     14900     14884     14883     14885     14886
     14884     14883     14885     14887     14884     14883     14885     14897
     14885     14897     14900     14901     14885     14897     14900     14902
     14885     14897     14900     14903     14886     14885     14897     14898
     14886     14885     14897     14899     14886     14885     14897     14900
     14887     14885     14897     14898     14887     14885     14897     14899
     14887     14885     14897     14900     14888     14891     14892     14893
     14888     14891     14892     14894     14889     14888     14891     14892
     14890     14888     14891     14892     14891     14892     14894     14895
     14891     14892     14894     14896     14891     14892     14894     14944
     14892     14894     14944     14945     14892     14894     14944     14946
     14892     14894     14944     14947     14893     14892     14894     14895
     14893     14892     14894     14896     14893     14892     14894     14944
     14894     14944     14947     14948     14894     14944     14947     14949
     14894     14944     14947     14950     14895     14894     14944     14945
     14895     14894     14944     14946     14895     14894     14944     14947
     14896     14894     14944     14945     14896     14894     14944     14946
     14896     14894     14944     14947     14897     14900     14903     14904
     14897     14900     14903     14905     14897     14900     14903     14906
     14898     14897     14900     14901     14898     14897     14900     14902
     14898     14897     14900     14903     14899     14897     14900     14901
     14899     14897     14900     14902     14899     14897     14900     14903
     14900     14903     14906     14907     14900     14903     14906     14908
     14900     14903     14906     14909     14901     14900     14903     14904
     14901     14900     14903     14905     14901     14900     14903     14906
     14902     14900     14903     14904     14902     14900     14903     14905
     14902     14900     14903     14906     14903     14906     14909     14910
     14903     14906     14909     14911     14903     14906     14909     14912
     14904     14903     14906     14907     14904     14903     14906     14908
     14904     14903     14906     14909     14905     14903     14906     14907
     14905     14903     14906     14908     14905     14903     14906     14909
     14906     14909     14912     14913     14906     14909     14912     14914
     14906     14909     14912     14915     14907     14906     14909     14910
     14907     14906     14909     14911     14907     14906     14909     14912
     14908     14906     14909     14910     14908     14906     14909     14911
     14908     14906     14909     14912     14909     14912     14915     14916
     14909     14912     14915     14917     14910     14909     14912     14913
     14910     14909     14912     14914     14910     14909     14912     14915
     14911     14909     14912     14913     14911     14909     14912     14914
     14911     14909     14912     14915     14912     14915     14917     14918
     14912     14915     14917     14919     14913     14912     14915     14916
     14913     14912     14915     14917     14914     14912     14915     14916
     14914     14912     14915     14917     14915     14917     14919     14920
     14915     14917     14919     14921     14915     14917     14919     14922
     14916     14915     14917     14918     14916     14915     14917     14919
     14917     14919     14922     14923     14917     14919     14922     14924
     14917     14919     14922     14925     14918     14917     14919     14920
     14918     14917     14919     14921     14918     14917     14919     14922
     14919     14922     14925     14926     14919     14922     14925     14927
     14919     14922     14925     14928     14920     14919     14922     14923
     14920     14919     14922     14924     14920     14919     14922     14925
     14921     14919     14922     14923     14921     14919     14922     14924
     14921     14919     14922     14925     14922     14925     14928     14929
     14922     14925     14928     14930     14922     14925     14928     14931
     14923     14922     14925     14926     14923     14922     14925     14927
     14923     14922     14925     14928     14924     14922     14925     14926
     14924     14922     14925     14927     14924     14922     14925     14928
     14925     14928     14931     14932     14925     14928     14931     14933
     14925     14928     14931     14934     14926     14925     14928     14929
     14926     14925     14928     14930     14926     14925     14928     14931
     14927     14925     14928     14929     14927     14925     14928     14930
     14927     14925     14928     14931     14928     14931     14934     14935
     14928     14931     14934     14936     14928     14931     14934     14937
     14929     14928     14931     14932     14929     14928     14931     14933
     14929     14928     14931     14934     14930     14928     14931     14932
     14930     14928     14931     14933     14930     14928     14931     14934
     14931     14934     14937     14938     14931     14934     14937     14939
     14931     14934     14937     14940     14932     14931     14934     14935
     14932     14931     14934     14936     14932     14931     14934     14937
     14933     14931     14934     14935     14933     14931     14934     14936
     14933     14931     14934     14937     14934     14937     14940     14941
     14934     14937     14940     14942     14934     14937     14940     14943
     14935     14934     14937     14938     14935     14934     14937     14939
     14935     14934     14937     14940     14936     14934     14937     14938
     14936     14934     14937     14939     14936     14934     14937     14940
     14938     14937     14940     14941     14938     14937     14940     14942
     14938     14937     14940     14943     14939     14937     14940     14941
     14939     14937     14940     14942     14939     14937     14940     14943
     14944     14947     14950     14951     14944     14947     14950     14952
     14944     14947     14950     14953     14945     14944     14947     14948
     14945     14944     14947     14949     14945     14944     14947     14950
     14946     14944     14947     14948     14946     14944     14947     14949
     14946     14944     14947     14950     14947     14950     14953     14954
     14947     14950     14953     14955     14947     14950     14953     14956
     14948     14947     14950     14951     14948     14947     14950     14952
     14948     14947     14950     14953     14949     14947     14950     14951
     14949     14947     14950     14952     14949     14947     14950     14953
     14950     14953     14956     14957     14950     14953     14956     14958
     14950     14953     14956     14959     14951     14950     14953     14954
     14951     14950     14953     14955     14951     14950     14953     14956
     14952     14950     14953     14954     14952     14950     14953     14955
     14952     14950     14953     14956     14953     14956     14959     14960
     14953     14956     14959     14961     14953     14956     14959     14962
     14954     14953     14956     14957     14954     14953     14956     14958
     14954     14953     14956     14959     14955     14953     14956     14957
     14955     14953     14956     14958     14955     14953     14956     14959
     14956     14959     14962     14963     14956     14959     14962     14964
     14957     14956     14959     14960     14957     14956     14959     14961
     14957     14956     14959     14962     14958     14956     14959     14960
     14958     14956     14959     14961     14958     14956     14959     14962
     14959     14962     14964     14965     14959     14962     14964     14966
     14960     14959     14962     14963     14960     14959     14962     14964
     14961     14959     14962     14963     14961     14959     14962     14964
     14962     14964     14966     14967     14962     14964     14966     14968
     14962     14964     14966     14969     14963     14962     14964     14965
     14963     14962     14964     14966     14964     14966     14969     14970
     14964     14966     14969     14971     14964     14966     14969     14972
     14965     14964     14966     14967     14965     14964     14966     14968
     14965     14964     14966     14969     14966     14969     14972     14973
     14966     14969     14972     14974     14966     14969     14972     14975
     14967     14966     14969     14970     14967     14966     14969     14971
     14967     14966     14969     14972     14968     14966     14969     14970
     14968     14966     14969     14971     14968     14966     14969     14972
     14969     14972     14975     14976     14969     14972     14975     14977
     14969     14972     14975     14978     14970     14969     14972     14973
     14970     14969     14972     14974     14970     14969     14972     14975
     14971     14969     14972     14973     14971     14969     14972     14974
     14971     14969     14972     14975     14972     14975     14978     14979
     14972     14975     14978     14980     14972     14975     14978     14981
     14973     14972     14975     14976     14973     14972     14975     14977
     14973     14972     14975     14978     14974     14972     14975     14976
     14974     14972     14975     14977     14974     14972     14975     14978
     14975     14978     14981     14982     14975     14978     14981     14983
     14975     14978     14981     14984     14976     14975     14978     14979
     14976     14975     14978     14980     14976     14975     14978     14981
     14977     14975     14978     14979     14977     14975     14978     14980
     14977     14975     14978     14981     14978     14981     14984     14985
     14978     14981     14984     14986     14978     14981     14984     14987
     14979     14978     14981     14982     14979     14978     14981     14983
     14979     14978     14981     14984     14980     14978     14981     14982
     14980     14978     14981     14983     14980     14978     14981     14984
     14981     14984     14987     14988     14981     14984     14987     14989
     14981     14984     14987     14990     14982     14981     14984     14985
     14982     14981     14984     14986     14982     14981     14984     14987
     14983     14981     14984     14985     14983     14981     14984     14986
     14983     14981     14984     14987     14985     14984     14987     14988
     14985     14984     14987     14989     14985     14984     14987     14990
     14986     14984     14987     14988     14986     14984     14987     14989
     14986     14984     14987     14990     14991     14992     15007     15008
     14991     14992     15007     15009     14991     14992     15007     15013
     14992     14991     14995     14996     14992     14991     14995     14997
     14992     14991     14995     14998     14992     14991     14999     15000
     14992     14991     14999     15001     14992     14991     14999     15002
     14992     14991     15003     15004     14992     14991     15003     15005
     14992     14991     15003     15006     14992     15007     15013     15010
     14993     14992     14991     14995     14993     14992     14991     14999
     14993     14992     14991     15003     14993     14992     15007     15008
     14993     14992     15007     15009     14993     14992     15007     15013
     14994     14992     14991     14995     14994     14992     14991     14999
     14994     14992     14991     15003     14994     14992     15007     15008
     14994     14992     15007     15009     14994     14992     15007     15013
     14995     14991     14992     15007     14995     14991     14999     15000
     14995     14991     14999     15001     14995     14991     14999     15002
     14995     14991     15003     15004     14995     14991     15003     15005
     14995     14991     15003     15006     14996     14995     14991     14999
     14996     14995     14991     15003     14997     14995     14991     14999
     14997     14995     14991     15003     14998     14995     14991     14999
     14998     14995     14991     15003     14999     14991     14992     15007
     14999     14991     15003     15004     14999     14991     15003     15005
     14999     14991     15003     15006     15000     14999     14991     15003
     15001     14999     14991     15003     15002     14999     14991     15003
     15003     14991     14992     15007     15007     15013     15010     15011
     15007     15013     15010     15012     15007     15013     15010     15014
     15008     15007     15013     15010     15009     15007     15013     15010
     15010     15014     15015     15016     15010     15014     15015     15017
     15010     15014     15015     15018     15011     15010     15014     15015
     15012     15010     15014     15015     15013     15010     15014     15015
     15014     15015     15018     15019     15014     15015     15018     15020
     15014     15015     15018     15026     15015     15018     15020     15021
     15015     15018     15026     15027     15015     15018     15026     15028
     15015     15018     15026     15029     15016     15015     15018     15019
     15016     15015     15018     15020     15016     15015     15018     15026
     15017     15015     15018     15019     15017     15015     15018     15020
     15017     15015     15018     15026     15018     15020     15021     15022
     15018     15020     15021     15023     15018     15026     15029     15030
     15019     15018     15020     15021     15019     15018     15026     15027
     15019     15018     15026     15028     15019     15018     15026     15029
     15020     15018     15026     15027     15020     15018     15026     15028
     15020     15018     15026     15029     15020     15021     15023     15024
     15020     15021     15023     15025     15020     15021     15023     15035
     15021     15020     15018     15026     15021     15023     15035     15036
     15021     15023     15035     15037     15021     15023     15035     15038
     15022     15021     15023     15024     15022     15021     15023     15025
     15022     15021     15023     15035     15023     15035     15038     15039
     15023     15035     15038     15040     15023     15035     15038     15041
     15024     15023     15035     15036     15024     15023     15035     15037
     15024     15023     15035     15038     15025     15023     15035     15036
     15025     15023     15035     15037     15025     15023     15035     15038
     15026     15029     15030     15031     15026     15029     15030     15032
     15027     15026     15029     15030     15028     15026     15029     15030
     15029     15030     15032     15033     15029     15030     15032     15034
     15029     15030     15032     15082     15030     15032     15082     15083
     15030     15032     15082     15084     15030     15032     15082     15085
     15031     15030     15032     15033     15031     15030     15032     15034
     15031     15030     15032     15082     15032     15082     15085     15086
     15032     15082     15085     15087     15032     15082     15085     15088
     15033     15032     15082     15083     15033     15032     15082     15084
     15033     15032     15082     15085     15034     15032     15082     15083
     15034     15032     15082     15084     15034     15032     15082     15085
     15035     15038     15041     15042     15035     15038     15041     15043
     15035     15038     15041     15044     15036     15035     15038     15039
     15036     15035     15038     15040     15036     15035     15038     15041
     15037     15035     15038     15039     15037     15035     15038     15040
     15037     15035     15038     15041     15038     15041     15044     15045
     15038     15041     15044     15046     15038     15041     15044     15047
     15039     15038     15041     15042     15039     15038     15041     15043
     15039     15038     15041     15044     15040     15038     15041     15042
     15040     15038     15041     15043     15040     15038     15041     15044
     15041     15044     15047     15048     15041     15044     15047     15049
     15041     15044     15047     15050     15042     15041     15044     15045
     15042     15041     15044     15046     15042     15041     15044     15047
     15043     15041     15044     15045     15043     15041     15044     15046
     15043     15041     15044     15047     15044     15047     15050     15051
     15044     15047     15050     15052     15044     15047     15050     15053
     15045     15044     15047     15048     15045     15044     15047     15049
     15045     15044     15047     15050     15046     15044     15047     15048
     15046     15044     15047     15049     15046     15044     15047     15050
     15047     15050     15053     15054     15047     15050     15053     15055
     15048     15047     15050     15051     15048     15047     15050     15052
     15048     15047     15050     15053     15049     15047     15050     15051
     15049     15047     15050     15052     15049     15047     15050     15053
     15050     15053     15055     15056     15050     15053     15055     15057
     15051     15050     15053     15054     15051     15050     15053     15055
     15052     15050     15053     15054     15052     15050     15053     15055
     15053     15055     15057     15058     15053     15055     15057     15059
     15053     15055     15057     15060     15054     15053     15055     15056
     15054     15053     15055     15057     15055     15057     15060     15061
     15055     15057     15060     15062     15055     15057     15060     15063
     15056     15055     15057     15058     15056     15055     15057     15059
     15056     15055     15057     15060     15057     15060     15063     15064
     15057     15060     15063     15065     15057     15060     15063     15066
     15058     15057     15060     15061     15058     15057     15060     15062
     15058     15057     15060     15063     15059     15057     15060     15061
     15059     15057     15060     15062     15059     15057     15060     15063
     15060     15063     15066     15067     15060     15063     15066     15068
     15060     15063     15066     15069     15061     15060     15063     15064
     15061     15060     15063     15065     15061     15060     15063     15066
     15062     15060     15063     15064     15062     15060     15063     15065
     15062     15060     15063     15066     15063     15066     15069     15070
     15063     15066     15069     15071     15063     15066     15069     15072
     15064     15063     15066     15067     15064     15063     15066     15068
     15064     15063     15066     15069     15065     15063     15066     15067
     15065     15063     15066     15068     15065     15063     15066     15069
     15066     15069     15072     15073     15066     15069     15072     15074
     15066     15069     15072     15075     15067     15066     15069     15070
     15067     15066     15069     15071     15067     15066     15069     15072
     15068     15066     15069     15070     15068     15066     15069     15071
     15068     15066     15069     15072     15069     15072     15075     15076
     15069     15072     15075     15077     15069     15072     15075     15078
     15070     15069     15072     15073     15070     15069     15072     15074
     15070     15069     15072     15075     15071     15069     15072     15073
     15071     15069     15072     15074     15071     15069     15072     15075
     15072     15075     15078     15079     15072     15075     15078     15080
     15072     15075     15078     15081     15073     15072     15075     15076
     15073     15072     15075     15077     15073     15072     15075     15078
     15074     15072     15075     15076     15074     15072     15075     15077
     15074     15072     15075     15078     15076     15075     15078     15079
     15076     15075     15078     15080     15076     15075     15078     15081
     15077     15075     15078     15079     15077     15075     15078     15080
     15077     15075     15078     15081     15082     15085     15088     15089
     15082     15085     15088     15090     15082     15085     15088     15091
     15083     15082     15085     15086     15083     15082     15085     15087
     15083     15082     15085     15088     15084     15082     15085     15086
     15084     15082     15085     15087     15084     15082     15085     15088
     15085     15088     15091     15092     15085     15088     15091     15093
     15085     15088     15091     15094     15086     15085     15088     15089
     15086     15085     15088     15090     15086     15085     15088     15091
     15087     15085     15088     15089     15087     15085     15088     15090
     15087     15085     15088     15091     15088     15091     15094     15095
     15088     15091     15094     15096     15088     15091     15094     15097
     15089     15088     15091     15092     15089     15088     15091     15093
     15089     15088     15091     15094     15090     15088     15091     15092
     15090     15088     15091     15093     15090     15088     15091     15094
     15091     15094     15097     15098     15091     15094     15097     15099
     15091     15094     15097     15100     15092     15091     15094     15095
     15092     15091     15094     15096     15092     15091     15094     15097
     15093     15091     15094     15095     15093     15091     15094     15096
     15093     15091     15094     15097     15094     15097     15100     15101
     15094     15097     15100     15102     15095     15094     15097     15098
     15095     15094     15097     15099     15095     15094     15097     15100
     15096     15094     15097     15098     15096     15094     15097     15099
     15096     15094     15097     15100     15097     15100     15102     15103
     15097     15100     15102     15104     15098     15097     15100     15101
     15098     15097     15100     15102     15099     15097     15100     15101
     15099     15097     15100     15102     15100     15102     15104     15105
     15100     15102     15104     15106     15100     15102     15104     15107
     15101     15100     15102     15103     15101     15100     15102     15104
     15102     15104     15107     15108     15102     15104     15107     15109
     15102     15104     15107     15110     15103     15102     15104     15105
     15103     15102     15104     15106     15103     15102     15104     15107
     15104     15107     15110     15111     15104     15107     15110     15112
     15104     15107     15110     15113     15105     15104     15107     15108
     15105     15104     15107     15109     15105     15104     15107     15110
     15106     15104     15107     15108     15106     15104     15107     15109
     15106     15104     15107     15110     15107     15110     15113     15114
     15107     15110     15113     15115     15107     15110     15113     15116
     15108     15107     15110     15111     15108     15107     15110     15112
     15108     15107     15110     15113     15109     15107     15110     15111
     15109     15107     15110     15112     15109     15107     15110     15113
     15110     15113     15116     15117     15110     15113     15116     15118
     15110     15113     15116     15119     15111     15110     15113     15114
     15111     15110     15113     15115     15111     15110     15113     15116
     15112     15110     15113     15114     15112     15110     15113     15115
     15112     15110     15113     15116     15113     15116     15119     15120
     15113     15116     15119     15121     15113     15116     15119     15122
     15114     15113     15116     15117     15114     15113     15116     15118
     15114     15113     15116     15119     15115     15113     15116     15117
     15115     15113     15116     15118     15115     15113     15116     15119
     15116     15119     15122     15123     15116     15119     15122     15124
     15116     15119     15122     15125     15117     15116     15119     15120
     15117     15116     15119     15121     15117     15116     15119     15122
     15118     15116     15119     15120     15118     15116     15119     15121
     15118     15116     15119     15122     15119     15122     15125     15126
     15119     15122     15125     15127     15119     15122     15125     15128
     15120     15119     15122     15123     15120     15119     15122     15124
     15120     15119     15122     15125     15121     15119     15122     15123
     15121     15119     15122     15124     15121     15119     15122     15125
     15123     15122     15125     15126     15123     15122     15125     15127
     15123     15122     15125     15128     15124     15122     15125     15126
     15124     15122     15125     15127     15124     15122     15125     15128
     15129     15130     15145     15146     15129     15130     15145     15147
     15129     15130     15145     15151     15130     15129     15133     15134
     15130     15129     15133     15135     15130     15129     15133     15136
     15130     15129     15137     15138     15130     15129     15137     15139
     15130     15129     15137     15140     15130     15129     15141     15142
     15130     15129     15141     15143     15130     15129     15141     15144
     15130     15145     15151     15148     15131     15130     15129     15133
     15131     15130     15129     15137     15131     15130     15129     15141
     15131     15130     15145     15146     15131     15130     15145     15147
     15131     15130     15145     15151     15132     15130     15129     15133
     15132     15130     15129     15137     15132     15130     15129     15141
     15132     15130     15145     15146     15132     15130     15145     15147
     15132     15130     15145     15151     15133     15129     15130     15145
     15133     15129     15137     15138     15133     15129     15137     15139
     15133     15129     15137     15140     15133     15129     15141     15142
     15133     15129     15141     15143     15133     15129     15141     15144
     15134     15133     15129     15137     15134     15133     15129     15141
     15135     15133     15129     15137     15135     15133     15129     15141
     15136     15133     15129     15137     15136     15133     15129     15141
     15137     15129     15130     15145     15137     15129     15141     15142
     15137     15129     15141     15143     15137     15129     15141     15144
     15138     15137     15129     15141     15139     15137     15129     15141
     15140     15137     15129     15141     15141     15129     15130     15145
     15145     15151     15148     15149     15145     15151     15148     15150
     15145     15151     15148     15152     15146     15145     15151     15148
     15147     15145     15151     15148     15148     15152     15153     15154
     15148     15152     15153     15155     15148     15152     15153     15156
     15149     15148     15152     15153     15150     15148     15152     15153
     15151     15148     15152     15153     15152     15153     15156     15157
     15152     15153     15156     15158     15152     15153     15156     15164
     15153     15156     15158     15159     15153     15156     15164     15165
     15153     15156     15164     15166     15153     15156     15164     15167
     15154     15153     15156     15157     15154     15153     15156     15158
     15154     15153     15156     15164     15155     15153     15156     15157
     15155     15153     15156     15158     15155     15153     15156     15164
     15156     15158     15159     15160     15156     15158     15159     15161
     15156     15164     15167     15168     15157     15156     15158     15159
     15157     15156     15164     15165     15157     15156     15164     15166
     15157     15156     15164     15167     15158     15156     15164     15165
     15158     15156     15164     15166     15158     15156     15164     15167
     15158     15159     15161     15162     15158     15159     15161     15163
     15158     15159     15161     15173     15159     15158     15156     15164
     15159     15161     15173     15174     15159     15161     15173     15175
     15159     15161     15173     15176     15160     15159     15161     15162
     15160     15159     15161     15163     15160     15159     15161     15173
     15161     15173     15176     15177     15161     15173     15176     15178
     15161     15173     15176     15179     15162     15161     15173     15174
     15162     15161     15173     15175     15162     15161     15173     15176
     15163     15161     15173     15174     15163     15161     15173     15175
     15163     15161     15173     15176     15164     15167     15168     15169
     15164     15167     15168     15170     15165     15164     15167     15168
     15166     15164     15167     15168     15167     15168     15170     15171
     15167     15168     15170     15172     15167     15168     15170     15220
     15168     15170     15220     15221     15168     15170     15220     15222
     15168     15170     15220     15223     15169     15168     15170     15171
     15169     15168     15170     15172     15169     15168     15170     15220
     15170     15220     15223     15224     15170     15220     15223     15225
     15170     15220     15223     15226     15171     15170     15220     15221
     15171     15170     15220     15222     15171     15170     15220     15223
     15172     15170     15220     15221     15172     15170     15220     15222
     15172     15170     15220     15223     15173     15176     15179     15180
     15173     15176     15179     15181     15173     15176     15179     15182
     15174     15173     15176     15177     15174     15173     15176     15178
     15174     15173     15176     15179     15175     15173     15176     15177
     15175     15173     15176     15178     15175     15173     15176     15179
     15176     15179     15182     15183     15176     15179     15182     15184
     15176     15179     15182     15185     15177     15176     15179     15180
     15177     15176     15179     15181     15177     15176     15179     15182
     15178     15176     15179     15180     15178     15176     15179     15181
     15178     15176     15179     15182     15179     15182     15185     15186
     15179     15182     15185     15187     15179     15182     15185     15188
     15180     15179     15182     15183     15180     15179     15182     15184
     15180     15179     15182     15185     15181     15179     15182     15183
     15181     15179     15182     15184     15181     15179     15182     15185
     15182     15185     15188     15189     15182     15185     15188     15190
     15182     15185     15188     15191     15183     15182     15185     15186
     15183     15182     15185     15187     15183     15182     15185     15188
     15184     15182     15185     15186     15184     15182     15185     15187
     15184     15182     15185     15188     15185     15188     15191     15192
     15185     15188     15191     15193     15186     15185     15188     15189
     15186     15185     15188     15190     15186     15185     15188     15191
     15187     15185     15188     15189     15187     15185     15188     15190
     15187     15185     15188     15191     15188     15191     15193     15194
     15188     15191     15193     15195     15189     15188     15191     15192
     15189     15188     15191     15193     15190     15188     15191     15192
     15190     15188     15191     15193     15191     15193     15195     15196
     15191     15193     15195     15197     15191     15193     15195     15198
     15192     15191     15193     15194     15192     15191     15193     15195
     15193     15195     15198     15199     15193     15195     15198     15200
     15193     15195     15198     15201     15194     15193     15195     15196
     15194     15193     15195     15197     15194     15193     15195     15198
     15195     15198     15201     15202     15195     15198     15201     15203
     15195     15198     15201     15204     15196     15195     15198     15199
     15196     15195     15198     15200     15196     15195     15198     15201
     15197     15195     15198     15199     15197     15195     15198     15200
     15197     15195     15198     15201     15198     15201     15204     15205
     15198     15201     15204     15206     15198     15201     15204     15207
     15199     15198     15201     15202     15199     15198     15201     15203
     15199     15198     15201     15204     15200     15198     15201     15202
     15200     15198     15201     15203     15200     15198     15201     15204
     15201     15204     15207     15208     15201     15204     15207     15209
     15201     15204     15207     15210     15202     15201     15204     15205
     15202     15201     15204     15206     15202     15201     15204     15207
     15203     15201     15204     15205     15203     15201     15204     15206
     15203     15201     15204     15207     15204     15207     15210     15211
     15204     15207     15210     15212     15204     15207     15210     15213
     15205     15204     15207     15208     15205     15204     15207     15209
     15205     15204     15207     15210     15206     15204     15207     15208
     15206     15204     15207     15209     15206     15204     15207     15210
     15207     15210     15213     15214     15207     15210     15213     15215
     15207     15210     15213     15216     15208     15207     15210     15211
     15208     15207     15210     15212     15208     15207     15210     15213
     15209     15207     15210     15211     15209     15207     15210     15212
     15209     15207     15210     15213     15210     15213     15216     15217
     15210     15213     15216     15218     15210     15213     15216     15219
     15211     15210     15213     15214     15211     15210     15213     15215
     15211     15210     15213     15216     15212     15210     15213     15214
     15212     15210     15213     15215     15212     15210     15213     15216
     15214     15213     15216     15217     15214     15213     15216     15218
     15214     15213     15216     15219     15215     15213     15216     15217
     15215     15213     15216     15218     15215     15213     15216     15219
     15220     15223     15226     15227     15220     15223     15226     15228
     15220     15223     15226     15229     15221     15220     15223     15224
     15221     15220     15223     15225     15221     15220     15223     15226
     15222     15220     15223     15224     15222     15220     15223     15225
     15222     15220     15223     15226     15223     15226     15229     15230
     15223     15226     15229     15231     15223     15226     15229     15232
     15224     15223     15226     15227     15224     15223     15226     15228
     15224     15223     15226     15229     15225     15223     15226     15227
     15225     15223     15226     15228     15225     15223     15226     15229
     15226     15229     15232     15233     15226     15229     15232     15234
     15226     15229     15232     15235     15227     15226     15229     15230
     15227     15226     15229     15231     15227     15226     15229     15232
     15228     15226     15229     15230     15228     15226     15229     15231
     15228     15226     15229     15232     15229     15232     15235     15236
     15229     15232     15235     15237     15229     15232     15235     15238
     15230     15229     15232     15233     15230     15229     15232     15234
     15230     15229     15232     15235     15231     15229     15232     15233
     15231     15229     15232     15234     15231     15229     15232     15235
     15232     15235     15238     15239     15232     15235     15238     15240
     15233     15232     15235     15236     15233     15232     15235     15237
     15233     15232     15235     15238     15234     15232     15235     15236
     15234     15232     15235     15237     15234     15232     15235     15238
     15235     15238     15240     15241     15235     15238     15240     15242
     15236     15235     15238     15239     15236     15235     15238     15240
     15237     15235     15238     15239     15237     15235     15238     15240
     15238     15240     15242     15243     15238     15240     15242     15244
     15238     15240     15242     15245     15239     15238     15240     15241
     15239     15238     15240     15242     15240     15242     15245     15246
     15240     15242     15245     15247     15240     15242     15245     15248
     15241     15240     15242     15243     15241     15240     15242     15244
     15241     15240     15242     15245     15242     15245     15248     15249
     15242     15245     15248     15250     15242     15245     15248     15251
     15243     15242     15245     15246     15243     15242     15245     15247
     15243     15242     15245     15248     15244     15242     15245     15246
     15244     15242     15245     15247     15244     15242     15245     15248
     15245     15248     15251     15252     15245     15248     15251     15253
     15245     15248     15251     15254     15246     15245     15248     15249
     15246     15245     15248     15250     15246     15245     15248     15251
     15247     15245     15248     15249     15247     15245     15248     15250
     15247     15245     15248     15251     15248     15251     15254     15255
     15248     15251     15254     15256     15248     15251     15254     15257
     15249     15248     15251     15252     15249     15248     15251     15253
     15249     15248     15251     15254     15250     15248     15251     15252
     15250     15248     15251     15253     15250     15248     15251     15254
     15251     15254     15257     15258     15251     15254     15257     15259
     15251     15254     15257     15260     15252     15251     15254     15255
     15252     15251     15254     15256     15252     15251     15254     15257
     15253     15251     15254     15255     15253     15251     15254     15256
     15253     15251     15254     15257     15254     15257     15260     15261
     15254     15257     15260     15262     15254     15257     15260     15263
     15255     15254     15257     15258     15255     15254     15257     15259
     15255     15254     15257     15260     15256     15254     15257     15258
     15256     15254     15257     15259     15256     15254     15257     15260
     15257     15260     15263     15264     15257     15260     15263     15265
     15257     15260     15263     15266     15258     15257     15260     15261
     15258     15257     15260     15262     15258     15257     15260     15263
     15259     15257     15260     15261     15259     15257     15260     15262
     15259     15257     15260     15263     15261     15260     15263     15264
     15261     15260     15263     15265     15261     15260     15263     15266
     15262     15260     15263     15264     15262     15260     15263     15265
     15262     15260     15263     15266     15267     15268     15283     15284
     15267     15268     15283     15285     15267     15268     15283     15289
     15268     15267     15271     15272     15268     15267     15271     15273
     15268     15267     15271     15274     15268     15267     15275     15276
     15268     15267     15275     15277     15268     15267     15275     15278
     15268     15267     15279     15280     15268     15267     15279     15281
     15268     15267     15279     15282     15268     15283     15289     15286
     15269     15268     15267     15271     15269     15268     15267     15275
     15269     15268     15267     15279     15269     15268     15283     15284
     15269     15268     15283     15285     15269     15268     15283     15289
     15270     15268     15267     15271     15270     15268     15267     15275
     15270     15268     15267     15279     15270     15268     15283     15284
     15270     15268     15283     15285     15270     15268     15283     15289
     15271     15267     15268     15283     15271     15267     15275     15276
     15271     15267     15275     15277     15271     15267     15275     15278
     15271     15267     15279     15280     15271     15267     15279     15281
     15271     15267     15279     15282     15272     15271     15267     15275
     15272     15271     15267     15279     15273     15271     15267     15275
     15273     15271     15267     15279     15274     15271     15267     15275
     15274     15271     15267     15279     15275     15267     15268     15283
     15275     15267     15279     15280     15275     15267     15279     15281
     15275     15267     15279     15282     15276     15275     15267     15279
     15277     15275     15267     15279     15278     15275     15267     15279
     15279     15267     15268     15283     15283     15289     15286     15287
     15283     15289     15286     15288     15283     15289     15286     15290
     15284     15283     15289     15286     15285     15283     15289     15286
     15286     15290     15291     15292     15286     15290     15291     15293
     15286     15290     15291     15294     15287     15286     15290     15291
     15288     15286     15290     15291     15289     15286     15290     15291
     15290     15291     15294     15295     15290     15291     15294     15296
     15290     15291     15294     15302     15291     15294     15296     15297
     15291     15294     15302     15303     15291     15294     15302     15304
     15291     15294     15302     15305     15292     15291     15294     15295
     15292     15291     15294     15296     15292     15291     15294     15302
     15293     15291     15294     15295     15293     15291     15294     15296
     15293     15291     15294     15302     15294     15296     15297     15298
     15294     15296     15297     15299     15294     15302     15305     15306
     15295     15294     15296     15297     15295     15294     15302     15303
     15295     15294     15302     15304     15295     15294     15302     15305
     15296     15294     15302     15303     15296     15294     15302     15304
     15296     15294     15302     15305     15296     15297     15299     15300
     15296     15297     15299     15301     15296     15297     15299     15311
     15297     15296     15294     15302     15297     15299     15311     15312
     15297     15299     15311     15313     15297     15299     15311     15314
     15298     15297     15299     15300     15298     15297     15299     15301
     15298     15297     15299     15311     15299     15311     15314     15315
     15299     15311     15314     15316     15299     15311     15314     15317
     15300     15299     15311     15312     15300     15299     15311     15313
     15300     15299     15311     15314     15301     15299     15311     15312
     15301     15299     15311     15313     15301     15299     15311     15314
     15302     15305     15306     15307     15302     15305     15306     15308
     15303     15302     15305     15306     15304     15302     15305     15306
     15305     15306     15308     15309     15305     15306     15308     15310
     15305     15306     15308     15358     15306     15308     15358     15359
     15306     15308     15358     15360     15306     15308     15358     15361
     15307     15306     15308     15309     15307     15306     15308     15310
     15307     15306     15308     15358     15308     15358     15361     15362
     15308     15358     15361     15363     15308     15358     15361     15364
     15309     15308     15358     15359     15309     15308     15358     15360
     15309     15308     15358     15361     15310     15308     15358     15359
     15310     15308     15358     15360     15310     15308     15358     15361
     15311     15314     15317     15318     15311     15314     15317     15319
     15311     15314     15317     15320     15312     15311     15314     15315
     15312     15311     15314     15316     15312     15311     15314     15317
     15313     15311     15314     15315     15313     15311     15314     15316
     15313     15311     15314     15317     15314     15317     15320     15321
     15314     15317     15320     15322     15314     15317     15320     15323
     15315     15314     15317     15318     15315     15314     15317     15319
     15315     15314     15317     15320     15316     15314     15317     15318
     15316     15314     15317     15319     15316     15314     15317     15320
     15317     15320     15323     15324     15317     15320     15323     15325
     15317     15320     15323     15326     15318     15317     15320     15321
     15318     15317     15320     15322     15318     15317     15320     15323
     15319     15317     15320     15321     15319     15317     15320     15322
     15319     15317     15320     15323     15320     15323     15326     15327
     15320     15323     15326     15328     15320     15323     15326     15329
     15321     15320     15323     15324     15321     15320     15323     15325
     15321     15320     15323     15326     15322     15320     15323     15324
     15322     15320     15323     15325     15322     15320     15323     15326
     15323     15326     15329     15330     15323     15326     15329     15331
     15324     15323     15326     15327     15324     15323     15326     15328
     15324     15323     15326     15329     15325     15323     15326     15327
     15325     15323     15326     15328     15325     15323     15326     15329
     15326     15329     15331     15332     15326     15329     15331     15333
     15327     15326     15329     15330     15327     15326     15329     15331
     15328     15326     15329     15330     15328     15326     15329     15331
     15329     15331     15333     15334     15329     15331     15333     15335
     15329     15331     15333     15336     15330     15329     15331     15332
     15330     15329     15331     15333     15331     15333     15336     15337
     15331     15333     15336     15338     15331     15333     15336     15339
     15332     15331     15333     15334     15332     15331     15333     15335
     15332     15331     15333     15336     15333     15336     15339     15340
     15333     15336     15339     15341     15333     15336     15339     15342
     15334     15333     15336     15337     15334     15333     15336     15338
     15334     15333     15336     15339     15335     15333     15336     15337
     15335     15333     15336     15338     15335     15333     15336     15339
     15336     15339     15342     15343     15336     15339     15342     15344
     15336     15339     15342     15345     15337     15336     15339     15340
     15337     15336     15339     15341     15337     15336     15339     15342
     15338     15336     15339     15340     15338     15336     15339     15341
     15338     15336     15339     15342     15339     15342     15345     15346
     15339     15342     15345     15347     15339     15342     15345     15348
     15340     15339     15342     15343     15340     15339     15342     15344
     15340     15339     15342     15345     15341     15339     15342     15343
     15341     15339     15342     15344     15341     15339     15342     15345
     15342     15345     15348     15349     15342     15345     15348     15350
     15342     15345     15348     15351     15343     15342     15345     15346
     15343     15342     15345     15347     15343     15342     15345     15348
     15344     15342     15345     15346     15344     15342     15345     15347
     15344     15342     15345     15348     15345     15348     15351     15352
     15345     15348     15351     15353     15345     15348     15351     15354
     15346     15345     15348     15349     15346     15345     15348     15350
     15346     15345     15348     15351     15347     15345     15348     15349
     15347     15345     15348     15350     15347     15345     15348     15351
     15348     15351     15354     15355     15348     15351     15354     15356
     15348     15351     15354     15357     15349     15348     15351     15352
     15349     15348     15351     15353     15349     15348     15351     15354
     15350     15348     15351     15352     15350     15348     15351     15353
     15350     15348     15351     15354     15352     15351     15354     15355
     15352     15351     15354     15356     15352     15351     15354     15357
     15353     15351     15354     15355     15353     15351     15354     15356
     15353     15351     15354     15357     15358     15361     15364     15365
     15358     15361     15364     15366     15358     15361     15364     15367
     15359     15358     15361     15362     15359     15358     15361     15363
     15359     15358     15361     15364     15360     15358     15361     15362
     15360     15358     15361     15363     15360     15358     15361     15364
     15361     15364     15367     15368     15361     15364     15367     15369
     15361     15364     15367     15370     15362     15361     15364     15365
     15362     15361     15364     15366     15362     15361     15364     15367
     15363     15361     15364     15365     15363     15361     15364     15366
     15363     15361     15364     15367     15364     15367     15370     15371
     15364     15367     15370     15372     15364     15367     15370     15373
     15365     15364     15367     15368     15365     15364     15367     15369
     15365     15364     15367     15370     15366     15364     15367     15368
     15366     15364     15367     15369     15366     15364     15367     15370
     15367     15370     15373     15374     15367     15370     15373     15375
     15367     15370     15373     15376     15368     15367     15370     15371
     15368     15367     15370     15372     15368     15367     15370     15373
     15369     15367     15370     15371     15369     15367     15370     15372
     15369     15367     15370     15373     15370     15373     15376     15377
     15370     15373     15376     15378     15371     15370     15373     15374
     15371     15370     15373     15375     15371     15370     15373     15376
     15372     15370     15373     15374     15372     15370     15373     15375
     15372     15370     15373     15376     15373     15376     15378     15379
     15373     15376     15378     15380     15374     15373     15376     15377
     15374     15373     15376     15378     15375     15373     15376     15377
     15375     15373     15376     15378     15376     15378     15380     15381
     15376     15378     15380     15382     15376     15378     15380     15383
     15377     15376     15378     15379     15377     15376     15378     15380
     15378     15380     15383     15384     15378     15380     15383     15385
     15378     15380     15383     15386     15379     15378     15380     15381
     15379     15378     15380     15382     15379     15378     15380     15383
     15380     15383     15386     15387     15380     15383     15386     15388
     15380     15383     15386     15389     15381     15380     15383     15384
     15381     15380     15383     15385     15381     15380     15383     15386
     15382     15380     15383     15384     15382     15380     15383     15385
     15382     15380     15383     15386     15383     15386     15389     15390
     15383     15386     15389     15391     15383     15386     15389     15392
     15384     15383     15386     15387     15384     15383     15386     15388
     15384     15383     15386     15389     15385     15383     15386     15387
     15385     15383     15386     15388     15385     15383     15386     15389
     15386     15389     15392     15393     15386     15389     15392     15394
     15386     15389     15392     15395     15387     15386     15389     15390
     15387     15386     15389     15391     15387     15386     15389     15392
     15388     15386     15389     15390     15388     15386     15389     15391
     15388     15386     15389     15392     15389     15392     15395     15396
     15389     15392     15395     15397     15389     15392     15395     15398
     15390     15389     15392     15393     15390     15389     15392     15394
     15390     15389     15392     15395     15391     15389     15392     15393
     15391     15389     15392     15394     15391     15389     15392     15395
     15392     15395     15398     15399     15392     15395     15398     15400
     15392     15395     15398     15401     15393     15392     15395     15396
     15393     15392     15395     15397     15393     15392     15395     15398
     15394     15392     15395     15396     15394     15392     15395     15397
     15394     15392     15395     15398     15395     15398     15401     15402
     15395     15398     15401     15403     15395     15398     15401     15404
     15396     15395     15398     15399     15396     15395     15398     15400
     15396     15395     15398     15401     15397     15395     15398     15399
     15397     15395     15398     15400     15397     15395     15398     15401
     15399     15398     15401     15402     15399     15398     15401     15403
     15399     15398     15401     15404     15400     15398     15401     15402
     15400     15398     15401     15403     15400     15398     15401     15404
     15405     15406     15421     15422     15405     15406     15421     15423
     15405     15406     15421     15427     15406     15405     15409     15410
     15406     15405     15409     15411     15406     15405     15409     15412
     15406     15405     15413     15414     15406     15405     15413     15415
     15406     15405     15413     15416     15406     15405     15417     15418
     15406     15405     15417     15419     15406     15405     15417     15420
     15406     15421     15427     15424     15407     15406     15405     15409
     15407     15406     15405     15413     15407     15406     15405     15417
     15407     15406     15421     15422     15407     15406     15421     15423
     15407     15406     15421     15427     15408     15406     15405     15409
     15408     15406     15405     15413     15408     15406     15405     15417
     15408     15406     15421     15422     15408     15406     15421     15423
     15408     15406     15421     15427     15409     15405     15406     15421
     15409     15405     15413     15414     15409     15405     15413     15415
     15409     15405     15413     15416     15409     15405     15417     15418
     15409     15405     15417     15419     15409     15405     15417     15420
     15410     15409     15405     15413     15410     15409     15405     15417
     15411     15409     15405     15413     15411     15409     15405     15417
     15412     15409     15405     15413     15412     15409     15405     15417
     15413     15405     15406     15421     15413     15405     15417     15418
     15413     15405     15417     15419     15413     15405     15417     15420
     15414     15413     15405     15417     15415     15413     15405     15417
     15416     15413     15405     15417     15417     15405     15406     15421
     15421     15427     15424     15425     15421     15427     15424     15426
     15421     15427     15424     15428     15422     15421     15427     15424
     15423     15421     15427     15424     15424     15428     15429     15430
     15424     15428     15429     15431     15424     15428     15429     15432
     15425     15424     15428     15429     15426     15424     15428     15429
     15427     15424     15428     15429     15428     15429     15432     15433
     15428     15429     15432     15434     15428     15429     15432     15440
     15429     15432     15434     15435     15429     15432     15440     15441
     15429     15432     15440     15442     15429     15432     15440     15443
     15430     15429     15432     15433     15430     15429     15432     15434
     15430     15429     15432     15440     15431     15429     15432     15433
     15431     15429     15432     15434     15431     15429     15432     15440
     15432     15434     15435     15436     15432     15434     15435     15437
     15432     15440     15443     15444     15433     15432     15434     15435
     15433     15432     15440     15441     15433     15432     15440     15442
     15433     15432     15440     15443     15434     15432     15440     15441
     15434     15432     15440     15442     15434     15432     15440     15443
     15434     15435     15437     15438     15434     15435     15437     15439
     15434     15435     15437     15449     15435     15434     15432     15440
     15435     15437     15449     15450     15435     15437     15449     15451
     15435     15437     15449     15452     15436     15435     15437     15438
     15436     15435     15437     15439     15436     15435     15437     15449
     15437     15449     15452     15453     15437     15449     15452     15454
     15437     15449     15452     15455     15438     15437     15449     15450
     15438     15437     15449     15451     15438     15437     15449     15452
     15439     15437     15449     15450     15439     15437     15449     15451
     15439     15437     15449     15452     15440     15443     15444     15445
     15440     15443     15444     15446     15441     15440     15443     15444
     15442     15440     15443     15444     15443     15444     15446     15447
     15443     15444     15446     15448     15443     15444     15446     15496
     15444     15446     15496     15497     15444     15446     15496     15498
     15444     15446     15496     15499     15445     15444     15446     15447
     15445     15444     15446     15448     15445     15444     15446     15496
     15446     15496     15499     15500     15446     15496     15499     15501
     15446     15496     15499     15502     15447     15446     15496     15497
     15447     15446     15496     15498     15447     15446     15496     15499
     15448     15446     15496     15497     15448     15446     15496     15498
     15448     15446     15496     15499     15449     15452     15455     15456
     15449     15452     15455     15457     15449     15452     15455     15458
     15450     15449     15452     15453     15450     15449     15452     15454
     15450     15449     15452     15455     15451     15449     15452     15453
     15451     15449     15452     15454     15451     15449     15452     15455
     15452     15455     15458     15459     15452     15455     15458     15460
     15452     15455     15458     15461     15453     15452     15455     15456
     15453     15452     15455     15457     15453     15452     15455     15458
     15454     15452     15455     15456     15454     15452     15455     15457
     15454     15452     15455     15458     15455     15458     15461     15462
     15455     15458     15461     15463     15455     15458     15461     15464
     15456     15455     15458     15459     15456     15455     15458     15460
     15456     15455     15458     15461     15457     15455     15458     15459
     15457     15455     15458     15460     15457     15455     15458     15461
     15458     15461     15464     15465     15458     15461     15464     15466
     15458     15461     15464     15467     15459     15458     15461     15462
     15459     15458     15461     15463     15459     15458     15461     15464
     15460     15458     15461     15462     15460     15458     15461     15463
     15460     15458     15461     15464     15461     15464     15467     15468
     15461     15464     15467     15469     15462     15461     15464     15465
     15462     15461     15464     15466     15462     15461     15464     15467
     15463     15461     15464     15465     15463     15461     15464     15466
     15463     15461     15464     15467     15464     15467     15469     15470
     15464     15467     15469     15471     15465     15464     15467     15468
     15465     15464     15467     15469     15466     15464     15467     15468
     15466     15464     15467     15469     15467     15469     15471     15472
     15467     15469     15471     15473     15467     15469     15471     15474
     15468     15467     15469     15470     15468     15467     15469     15471
     15469     15471     15474     15475     15469     15471     15474     15476
     15469     15471     15474     15477     15470     15469     15471     15472
     15470     15469     15471     15473     15470     15469     15471     15474
     15471     15474     15477     15478     15471     15474     15477     15479
     15471     15474     15477     15480     15472     15471     15474     15475
     15472     15471     15474     15476     15472     15471     15474     15477
     15473     15471     15474     15475     15473     15471     15474     15476
     15473     15471     15474     15477     15474     15477     15480     15481
     15474     15477     15480     15482     15474     15477     15480     15483
     15475     15474     15477     15478     15475     15474     15477     15479
     15475     15474     15477     15480     15476     15474     15477     15478
     15476     15474     15477     15479     15476     15474     15477     15480
     15477     15480     15483     15484     15477     15480     15483     15485
     15477     15480     15483     15486     15478     15477     15480     15481
     15478     15477     15480     15482     15478     15477     15480     15483
     15479     15477     15480     15481     15479     15477     15480     15482
     15479     15477     15480     15483     15480     15483     15486     15487
     15480     15483     15486     15488     15480     15483     15486     15489
     15481     15480     15483     15484     15481     15480     15483     15485
     15481     15480     15483     15486     15482     15480     15483     15484
     15482     15480     15483     15485     15482     15480     15483     15486
     15483     15486     15489     15490     15483     15486     15489     15491
     15483     15486     15489     15492     15484     15483     15486     15487
     15484     15483     15486     15488     15484     15483     15486     15489
     15485     15483     15486     15487     15485     15483     15486     15488
     15485     15483     15486     15489     15486     15489     15492     15493
     15486     15489     15492     15494     15486     15489     15492     15495
     15487     15486     15489     15490     15487     15486     15489     15491
     15487     15486     15489     15492     15488     15486     15489     15490
     15488     15486     15489     15491     15488     15486     15489     15492
     15490     15489     15492     15493     15490     15489     15492     15494
     15490     15489     15492     15495     15491     15489     15492     15493
     15491     15489     15492     15494     15491     15489     15492     15495
     15496     15499     15502     15503     15496     15499     15502     15504
     15496     15499     15502     15505     15497     15496     15499     15500
     15497     15496     15499     15501     15497     15496     15499     15502
     15498     15496     15499     15500     15498     15496     15499     15501
     15498     15496     15499     15502     15499     15502     15505     15506
     15499     15502     15505     15507     15499     15502     15505     15508
     15500     15499     15502     15503     15500     15499     15502     15504
     15500     15499     15502     15505     15501     15499     15502     15503
     15501     15499     15502     15504     15501     15499     15502     15505
     15502     15505     15508     15509     15502     15505     15508     15510
     15502     15505     15508     15511     15503     15502     15505     15506
     15503     15502     15505     15507     15503     15502     15505     15508
     15504     15502     15505     15506     15504     15502     15505     15507
     15504     15502     15505     15508     15505     15508     15511     15512
     15505     15508     15511     15513     15505     15508     15511     15514
     15506     15505     15508     15509     15506     15505     15508     15510
     15506     15505     15508     15511     15507     15505     15508     15509
     15507     15505     15508     15510     15507     15505     15508     15511
     15508     15511     15514     15515     15508     15511     15514     15516
     15509     15508     15511     15512     15509     15508     15511     15513
     15509     15508     15511     15514     15510     15508     15511     15512
     15510     15508     15511     15513     15510     15508     15511     15514
     15511     15514     15516     15517     15511     15514     15516     15518
     15512     15511     15514     15515     15512     15511     15514     15516
     15513     15511     15514     15515     15513     15511     15514     15516
     15514     15516     15518     15519     15514     15516     15518     15520
     15514     15516     15518     15521     15515     15514     15516     15517
     15515     15514     15516     15518     15516     15518     15521     15522
     15516     15518     15521     15523     15516     15518     15521     15524
     15517     15516     15518     15519     15517     15516     15518     15520
     15517     15516     15518     15521     15518     15521     15524     15525
     15518     15521     15524     15526     15518     15521     15524     15527
     15519     15518     15521     15522     15519     15518     15521     15523
     15519     15518     15521     15524     15520     15518     15521     15522
     15520     15518     15521     15523     15520     15518     15521     15524
     15521     15524     15527     15528     15521     15524     15527     15529
     15521     15524     15527     15530     15522     15521     15524     15525
     15522     15521     15524     15526     15522     15521     15524     15527
     15523     15521     15524     15525     15523     15521     15524     15526
     15523     15521     15524     15527     15524     15527     15530     15531
     15524     15527     15530     15532     15524     15527     15530     15533
     15525     15524     15527     15528     15525     15524     15527     15529
     15525     15524     15527     15530     15526     15524     15527     15528
     15526     15524     15527     15529     15526     15524     15527     15530
     15527     15530     15533     15534     15527     15530     15533     15535
     15527     15530     15533     15536     15528     15527     15530     15531
     15528     15527     15530     15532     15528     15527     15530     15533
     15529     15527     15530     15531     15529     15527     15530     15532
     15529     15527     15530     15533     15530     15533     15536     15537
     15530     15533     15536     15538     15530     15533     15536     15539
     15531     15530     15533     15534     15531     15530     15533     15535
     15531     15530     15533     15536     15532     15530     15533     15534
     15532     15530     15533     15535     15532     15530     15533     15536
     15533     15536     15539     15540     15533     15536     15539     15541
     15533     15536     15539     15542     15534     15533     15536     15537
     15534     15533     15536     15538     15534     15533     15536     15539
     15535     15533     15536     15537     15535     15533     15536     15538
     15535     15533     15536     15539     15537     15536     15539     15540
     15537     15536     15539     15541     15537     15536     15539     15542
     15538     15536     15539     15540     15538     15536     15539     15541
     15538     15536     15539     15542     15543     15544     15559     15560
     15543     15544     15559     15561     15543     15544     15559     15565
     15544     15543     15547     15548     15544     15543     15547     15549
     15544     15543     15547     15550     15544     15543     15551     15552
     15544     15543     15551     15553     15544     15543     15551     15554
     15544     15543     15555     15556     15544     15543     15555     15557
     15544     15543     15555     15558     15544     15559     15565     15562
     15545     15544     15543     15547     15545     15544     15543     15551
     15545     15544     15543     15555     15545     15544     15559     15560
     15545     15544     15559     15561     15545     15544     15559     15565
     15546     15544     15543     15547     15546     15544     15543     15551
     15546     15544     15543     15555     15546     15544     15559     15560
     15546     15544     15559     15561     15546     15544     15559     15565
     15547     15543     15544     15559     15547     15543     15551     15552
     15547     15543     15551     15553     15547     15543     15551     15554
     15547     15543     15555     15556     15547     15543     15555     15557
     15547     15543     15555     15558     15548     15547     15543     15551
     15548     15547     15543     15555     15549     15547     15543     15551
     15549     15547     15543     15555     15550     15547     15543     15551
     15550     15547     15543     15555     15551     15543     15544     15559
     15551     15543     15555     15556     15551     15543     15555     15557
     15551     15543     15555     15558     15552     15551     15543     15555
     15553     15551     15543     15555     15554     15551     15543     15555
     15555     15543     15544     15559     15559     15565     15562     15563
     15559     15565     15562     15564     15559     15565     15562     15566
     15560     15559     15565     15562     15561     15559     15565     15562
     15562     15566     15567     15568     15562     15566     15567     15569
     15562     15566     15567     15570     15563     15562     15566     15567
     15564     15562     15566     15567     15565     15562     15566     15567
     15566     15567     15570     15571     15566     15567     15570     15572
     15566     15567     15570     15578     15567     15570     15572     15573
     15567     15570     15578     15579     15567     15570     15578     15580
     15567     15570     15578     15581     15568     15567     15570     15571
     15568     15567     15570     15572     15568     15567     15570     15578
     15569     15567     15570     15571     15569     15567     15570     15572
     15569     15567     15570     15578     15570     15572     15573     15574
     15570     15572     15573     15575     15570     15578     15581     15582
     15571     15570     15572     15573     15571     15570     15578     15579
     15571     15570     15578     15580     15571     15570     15578     15581
     15572     15570     15578     15579     15572     15570     15578     15580
     15572     15570     15578     15581     15572     15573     15575     15576
     15572     15573     15575     15577     15572     15573     15575     15587
     15573     15572     15570     15578     15573     15575     15587     15588
     15573     15575     15587     15589     15573     15575     15587     15590
     15574     15573     15575     15576     15574     15573     15575     15577
     15574     15573     15575     15587     15575     15587     15590     15591
     15575     15587     15590     15592     15575     15587     15590     15593
     15576     15575     15587     15588     15576     15575     15587     15589
     15576     15575     15587     15590     15577     15575     15587     15588
     15577     15575     15587     15589     15577     15575     15587     15590
     15578     15581     15582     15583     15578     15581     15582     15584
     15579     15578     15581     15582     15580     15578     15581     15582
     15581     15582     15584     15585     15581     15582     15584     15586
     15581     15582     15584     15634     15582     15584     15634     15635
     15582     15584     15634     15636     15582     15584     15634     15637
     15583     15582     15584     15585     15583     15582     15584     15586
     15583     15582     15584     15634     15584     15634     15637     15638
     15584     15634     15637     15639     15584     15634     15637     15640
     15585     15584     15634     15635     15585     15584     15634     15636
     15585     15584     15634     15637     15586     15584     15634     15635
     15586     15584     15634     15636     15586     15584     15634     15637
     15587     15590     15593     15594     15587     15590     15593     15595
     15587     15590     15593     15596     15588     15587     15590     15591
     15588     15587     15590     15592     15588     15587     15590     15593
     15589     15587     15590     15591     15589     15587     15590     15592
     15589     15587     15590     15593     15590     15593     15596     15597
     15590     15593     15596     15598     15590     15593     15596     15599
     15591     15590     15593     15594     15591     15590     15593     15595
     15591     15590     15593     15596     15592     15590     15593     15594
     15592     15590     15593     15595     15592     15590     15593     15596
     15593     15596     15599     15600     15593     15596     15599     15601
     15593     15596     15599     15602     15594     15593     15596     15597
     15594     15593     15596     15598     15594     15593     15596     15599
     15595     15593     15596     15597     15595     15593     15596     15598
     15595     15593     15596     15599     15596     15599     15602     15603
     15596     15599     15602     15604     15596     15599     15602     15605
     15597     15596     15599     15600     15597     15596     15599     15601
     15597     15596     15599     15602     15598     15596     15599     15600
     15598     15596     15599     15601     15598     15596     15599     15602
     15599     15602     15605     15606     15599     15602     15605     15607
     15600     15599     15602     15603     15600     15599     15602     15604
     15600     15599     15602     15605     15601     15599     15602     15603
     15601     15599     15602     15604     15601     15599     15602     15605
     15602     15605     15607     15608     15602     15605     15607     15609
     15603     15602     15605     15606     15603     15602     15605     15607
     15604     15602     15605     15606     15604     15602     15605     15607
     15605     15607     15609     15610     15605     15607     15609     15611
     15605     15607     15609     15612     15606     15605     15607     15608
     15606     15605     15607     15609     15607     15609     15612     15613
     15607     15609     15612     15614     15607     15609     15612     15615
     15608     15607     15609     15610     15608     15607     15609     15611
     15608     15607     15609     15612     15609     15612     15615     15616
     15609     15612     15615     15617     15609     15612     15615     15618
     15610     15609     15612     15613     15610     15609     15612     15614
     15610     15609     15612     15615     15611     15609     15612     15613
     15611     15609     15612     15614     15611     15609     15612     15615
     15612     15615     15618     15619     15612     15615     15618     15620
     15612     15615     15618     15621     15613     15612     15615     15616
     15613     15612     15615     15617     15613     15612     15615     15618
     15614     15612     15615     15616     15614     15612     15615     15617
     15614     15612     15615     15618     15615     15618     15621     15622
     15615     15618     15621     15623     15615     15618     15621     15624
     15616     15615     15618     15619     15616     15615     15618     15620
     15616     15615     15618     15621     15617     15615     15618     15619
     15617     15615     15618     15620     15617     15615     15618     15621
     15618     15621     15624     15625     15618     15621     15624     15626
     15618     15621     15624     15627     15619     15618     15621     15622
     15619     15618     15621     15623     15619     15618     15621     15624
     15620     15618     15621     15622     15620     15618     15621     15623
     15620     15618     15621     15624     15621     15624     15627     15628
     15621     15624     15627     15629     15621     15624     15627     15630
     15622     15621     15624     15625     15622     15621     15624     15626
     15622     15621     15624     15627     15623     15621     15624     15625
     15623     15621     15624     15626     15623     15621     15624     15627
     15624     15627     15630     15631     15624     15627     15630     15632
     15624     15627     15630     15633     15625     15624     15627     15628
     15625     15624     15627     15629     15625     15624     15627     15630
     15626     15624     15627     15628     15626     15624     15627     15629
     15626     15624     15627     15630     15628     15627     15630     15631
     15628     15627     15630     15632     15628     15627     15630     15633
     15629     15627     15630     15631     15629     15627     15630     15632
     15629     15627     15630     15633     15634     15637     15640     15641
     15634     15637     15640     15642     15634     15637     15640     15643
     15635     15634     15637     15638     15635     15634     15637     15639
     15635     15634     15637     15640     15636     15634     15637     15638
     15636     15634     15637     15639     15636     15634     15637     15640
     15637     15640     15643     15644     15637     15640     15643     15645
     15637     15640     15643     15646     15638     15637     15640     15641
     15638     15637     15640     15642     15638     15637     15640     15643
     15639     15637     15640     15641     15639     15637     15640     15642
     15639     15637     15640     15643     15640     15643     15646     15647
     15640     15643     15646     15648     15640     15643     15646     15649
     15641     15640     15643     15644     15641     15640     15643     15645
     15641     15640     15643     15646     15642     15640     15643     15644
     15642     15640     15643     15645     15642     15640     15643     15646
     15643     15646     15649     15650     15643     15646     15649     15651
     15643     15646     15649     15652     15644     15643     15646     15647
     15644     15643     15646     15648     15644     15643     15646     15649
     15645     15643     15646     15647     15645     15643     15646     15648
     15645     15643     15646     15649     15646     15649     15652     15653
     15646     15649     15652     15654     15647     15646     15649     15650
     15647     15646     15649     15651     15647     15646     15649     15652
     15648     15646     15649     15650     15648     15646     15649     15651
     15648     15646     15649     15652     15649     15652     15654     15655
     15649     15652     15654     15656     15650     15649     15652     15653
     15650     15649     15652     15654     15651     15649     15652     15653
     15651     15649     15652     15654     15652     15654     15656     15657
     15652     15654     15656     15658     15652     15654     15656     15659
     15653     15652     15654     15655     15653     15652     15654     15656
     15654     15656     15659     15660     15654     15656     15659     15661
     15654     15656     15659     15662     15655     15654     15656     15657
     15655     15654     15656     15658     15655     15654     15656     15659
     15656     15659     15662     15663     15656     15659     15662     15664
     15656     15659     15662     15665     15657     15656     15659     15660
     15657     15656     15659     15661     15657     15656     15659     15662
     15658     15656     15659     15660     15658     15656     15659     15661
     15658     15656     15659     15662     15659     15662     15665     15666
     15659     15662     15665     15667     15659     15662     15665     15668
     15660     15659     15662     15663     15660     15659     15662     15664
     15660     15659     15662     15665     15661     15659     15662     15663
     15661     15659     15662     15664     15661     15659     15662     15665
     15662     15665     15668     15669     15662     15665     15668     15670
     15662     15665     15668     15671     15663     15662     15665     15666
     15663     15662     15665     15667     15663     15662     15665     15668
     15664     15662     15665     15666     15664     15662     15665     15667
     15664     15662     15665     15668     15665     15668     15671     15672
     15665     15668     15671     15673     15665     15668     15671     15674
     15666     15665     15668     15669     15666     15665     15668     15670
     15666     15665     15668     15671     15667     15665     15668     15669
     15667     15665     15668     15670     15667     15665     15668     15671
     15668     15671     15674     15675     15668     15671     15674     15676
     15668     15671     15674     15677     15669     15668     15671     15672
     15669     15668     15671     15673     15669     15668     15671     15674
     15670     15668     15671     15672     15670     15668     15671     15673
     15670     15668     15671     15674     15671     15674     15677     15678
     15671     15674     15677     15679     15671     15674     15677     15680
     15672     15671     15674     15675     15672     15671     15674     15676
     15672     15671     15674     15677     15673     15671     15674     15675
     15673     15671     15674     15676     15673     15671     15674     15677
     15675     15674     15677     15678     15675     15674     15677     15679
     15675     15674     15677     15680     15676     15674     15677     15678
     15676     15674     15677     15679     15676     15674     15677     15680
     15681     15682     15697     15698     15681     15682     15697     15699
     15681     15682     15697     15703     15682     15681     15685     15686
     15682     15681     15685     15687     15682     15681     15685     15688
     15682     15681     15689     15690     15682     15681     15689     15691
     15682     15681     15689     15692     15682     15681     15693     15694
     15682     15681     15693     15695     15682     15681     15693     15696
     15682     15697     15703     15700     15683     15682     15681     15685
     15683     15682     15681     15689     15683     15682     15681     15693
     15683     15682     15697     15698     15683     15682     15697     15699
     15683     15682     15697     15703     15684     15682     15681     15685
     15684     15682     15681     15689     15684     15682     15681     15693
     15684     15682     15697     15698     15684     15682     15697     15699
     15684     15682     15697     15703     15685     15681     15682     15697
     15685     15681     15689     15690     15685     15681     15689     15691
     15685     15681     15689     15692     15685     15681     15693     15694
     15685     15681     15693     15695     15685     15681     15693     15696
     15686     15685     15681     15689     15686     15685     15681     15693
     15687     15685     15681     15689     15687     15685     15681     15693
     15688     15685     15681     15689     15688     15685     15681     15693
     15689     15681     15682     15697     15689     15681     15693     15694
     15689     15681     15693     15695     15689     15681     15693     15696
     15690     15689     15681     15693     15691     15689     15681     15693
     15692     15689     15681     15693     15693     15681     15682     15697
     15697     15703     15700     15701     15697     15703     15700     15702
     15697     15703     15700     15704     15698     15697     15703     15700
     15699     15697     15703     15700     15700     15704     15705     15706
     15700     15704     15705     15707     15700     15704     15705     15708
     15701     15700     15704     15705     15702     15700     15704     15705
     15703     15700     15704     15705     15704     15705     15708     15709
     15704     15705     15708     15710     15704     15705     15708     15716
     15705     15708     15710     15711     15705     15708     15716     15717
     15705     15708     15716     15718     15705     15708     15716     15719
     15706     15705     15708     15709     15706     15705     15708     15710
     15706     15705     15708     15716     15707     15705     15708     15709
     15707     15705     15708     15710     15707     15705     15708     15716
     15708     15710     15711     15712     15708     15710     15711     15713
     15708     15716     15719     15720     15709     15708     15710     15711
     15709     15708     15716     15717     15709     15708     15716     15718
     15709     15708     15716     15719     15710     15708     15716     15717
     15710     15708     15716     15718     15710     15708     15716     15719
     15710     15711     15713     15714     15710     15711     15713     15715
     15710     15711     15713     15725     15711     15710     15708     15716
     15711     15713     15725     15726     15711     15713     15725     15727
     15711     15713     15725     15728     15712     15711     15713     15714
     15712     15711     15713     15715     15712     15711     15713     15725
     15713     15725     15728     15729     15713     15725     15728     15730
     15713     15725     15728     15731     15714     15713     15725     15726
     15714     15713     15725     15727     15714     15713     15725     15728
     15715     15713     15725     15726     15715     15713     15725     15727
     15715     15713     15725     15728     15716     15719     15720     15721
     15716     15719     15720     15722     15717     15716     15719     15720
     15718     15716     15719     15720     15719     15720     15722     15723
     15719     15720     15722     15724     15719     15720     15722     15772
     15720     15722     15772     15773     15720     15722     15772     15774
     15720     15722     15772     15775     15721     15720     15722     15723
     15721     15720     15722     15724     15721     15720     15722     15772
     15722     15772     15775     15776     15722     15772     15775     15777
     15722     15772     15775     15778     15723     15722     15772     15773
     15723     15722     15772     15774     15723     15722     15772     15775
     15724     15722     15772     15773     15724     15722     15772     15774
     15724     15722     15772     15775     15725     15728     15731     15732
     15725     15728     15731     15733     15725     15728     15731     15734
     15726     15725     15728     15729     15726     15725     15728     15730
     15726     15725     15728     15731     15727     15725     15728     15729
     15727     15725     15728     15730     15727     15725     15728     15731
     15728     15731     15734     15735     15728     15731     15734     15736
     15728     15731     15734     15737     15729     15728     15731     15732
     15729     15728     15731     15733     15729     15728     15731     15734
     15730     15728     15731     15732     15730     15728     15731     15733
     15730     15728     15731     15734     15731     15734     15737     15738
     15731     15734     15737     15739     15731     15734     15737     15740
     15732     15731     15734     15735     15732     15731     15734     15736
     15732     15731     15734     15737     15733     15731     15734     15735
     15733     15731     15734     15736     15733     15731     15734     15737
     15734     15737     15740     15741     15734     15737     15740     15742
     15734     15737     15740     15743     15735     15734     15737     15738
     15735     15734     15737     15739     15735     15734     15737     15740
     15736     15734     15737     15738     15736     15734     15737     15739
     15736     15734     15737     15740     15737     15740     15743     15744
     15737     15740     15743     15745     15738     15737     15740     15741
     15738     15737     15740     15742     15738     15737     15740     15743
     15739     15737     15740     15741     15739     15737     15740     15742
     15739     15737     15740     15743     15740     15743     15745     15746
     15740     15743     15745     15747     15741     15740     15743     15744
     15741     15740     15743     15745     15742     15740     15743     15744
     15742     15740     15743     15745     15743     15745     15747     15748
     15743     15745     15747     15749     15743     15745     15747     15750
     15744     15743     15745     15746     15744     15743     15745     15747
     15745     15747     15750     15751     15745     15747     15750     15752
     15745     15747     15750     15753     15746     15745     15747     15748
     15746     15745     15747     15749     15746     15745     15747     15750
     15747     15750     15753     15754     15747     15750     15753     15755
     15747     15750     15753     15756     15748     15747     15750     15751
     15748     15747     15750     15752     15748     15747     15750     15753
     15749     15747     15750     15751     15749     15747     15750     15752
     15749     15747     15750     15753     15750     15753     15756     15757
     15750     15753     15756     15758     15750     15753     15756     15759
     15751     15750     15753     15754     15751     15750     15753     15755
     15751     15750     15753     15756     15752     15750     15753     15754
     15752     15750     15753     15755     15752     15750     15753     15756
     15753     15756     15759     15760     15753     15756     15759     15761
     15753     15756     15759     15762     15754     15753     15756     15757
     15754     15753     15756     15758     15754     15753     15756     15759
     15755     15753     15756     15757     15755     15753     15756     15758
     15755     15753     15756     15759     15756     15759     15762     15763
     15756     15759     15762     15764     15756     15759     15762     15765
     15757     15756     15759     15760     15757     15756     15759     15761
     15757     15756     15759     15762     15758     15756     15759     15760
     15758     15756     15759     15761     15758     15756     15759     15762
     15759     15762     15765     15766     15759     15762     15765     15767
     15759     15762     15765     15768     15760     15759     15762     15763
     15760     15759     15762     15764     15760     15759     15762     15765
     15761     15759     15762     15763     15761     15759     15762     15764
     15761     15759     15762     15765     15762     15765     15768     15769
     15762     15765     15768     15770     15762     15765     15768     15771
     15763     15762     15765     15766     15763     15762     15765     15767
     15763     15762     15765     15768     15764     15762     15765     15766
     15764     15762     15765     15767     15764     15762     15765     15768
     15766     15765     15768     15769     15766     15765     15768     15770
     15766     15765     15768     15771     15767     15765     15768     15769
     15767     15765     15768     15770     15767     15765     15768     15771
     15772     15775     15778     15779     15772     15775     15778     15780
     15772     15775     15778     15781     15773     15772     15775     15776
     15773     15772     15775     15777     15773     15772     15775     15778
     15774     15772     15775     15776     15774     15772     15775     15777
     15774     15772     15775     15778     15775     15778     15781     15782
     15775     15778     15781     15783     15775     15778     15781     15784
     15776     15775     15778     15779     15776     15775     15778     15780
     15776     15775     15778     15781     15777     15775     15778     15779
     15777     15775     15778     15780     15777     15775     15778     15781
     15778     15781     15784     15785     15778     15781     15784     15786
     15778     15781     15784     15787     15779     15778     15781     15782
     15779     15778     15781     15783     15779     15778     15781     15784
     15780     15778     15781     15782     15780     15778     15781     15783
     15780     15778     15781     15784     15781     15784     15787     15788
     15781     15784     15787     15789     15781     15784     15787     15790
     15782     15781     15784     15785     15782     15781     15784     15786
     15782     15781     15784     15787     15783     15781     15784     15785
     15783     15781     15784     15786     15783     15781     15784     15787
     15784     15787     15790     15791     15784     15787     15790     15792
     15785     15784     15787     15788     15785     15784     15787     15789
     15785     15784     15787     15790     15786     15784     15787     15788
     15786     15784     15787     15789     15786     15784     15787     15790
     15787     15790     15792     15793     15787     15790     15792     15794
     15788     15787     15790     15791     15788     15787     15790     15792
     15789     15787     15790     15791     15789     15787     15790     15792
     15790     15792     15794     15795     15790     15792     15794     15796
     15790     15792     15794     15797     15791     15790     15792     15793
     15791     15790     15792     15794     15792     15794     15797     15798
     15792     15794     15797     15799     15792     15794     15797     15800
     15793     15792     15794     15795     15793     15792     15794     15796
     15793     15792     15794     15797     15794     15797     15800     15801
     15794     15797     15800     15802     15794     15797     15800     15803
     15795     15794     15797     15798     15795     15794     15797     15799
     15795     15794     15797     15800     15796     15794     15797     15798
     15796     15794     15797     15799     15796     15794     15797     15800
     15797     15800     15803     15804     15797     15800     15803     15805
     15797     15800     15803     15806     15798     15797     15800     15801
     15798     15797     15800     15802     15798     15797     15800     15803
     15799     15797     15800     15801     15799     15797     15800     15802
     15799     15797     15800     15803     15800     15803     15806     15807
     15800     15803     15806     15808     15800     15803     15806     15809
     15801     15800     15803     15804     15801     15800     15803     15805
     15801     15800     15803     15806     15802     15800     15803     15804
     15802     15800     15803     15805     15802     15800     15803     15806
     15803     15806     15809     15810     15803     15806     15809     15811
     15803     15806     15809     15812     15804     15803     15806     15807
     15804     15803     15806     15808     15804     15803     15806     15809
     15805     15803     15806     15807     15805     15803     15806     15808
     15805     15803     15806     15809     15806     15809     15812     15813
     15806     15809     15812     15814     15806     15809     15812     15815
     15807     15806     15809     15810     15807     15806     15809     15811
     15807     15806     15809     15812     15808     15806     15809     15810
     15808     15806     15809     15811     15808     15806     15809     15812
     15809     15812     15815     15816     15809     15812     15815     15817
     15809     15812     15815     15818     15810     15809     15812     15813
     15810     15809     15812     15814     15810     15809     15812     15815
     15811     15809     15812     15813     15811     15809     15812     15814
     15811     15809     15812     15815     15813     15812     15815     15816
     15813     15812     15815     15817     15813     15812     15815     15818
     15814     15812     15815     15816     15814     15812     15815     15817
     15814     15812     15815     15818     15819     15820     15835     15836
     15819     15820     15835     15837     15819     15820     15835     15841
     15820     15819     15823     15824     15820     15819     15823     15825
     15820     15819     15823     15826     15820     15819     15827     15828
     15820     15819     15827     15829     15820     15819     15827     15830
     15820     15819     15831     15832     15820     15819     15831     15833
     15820     15819     15831     15834     15820     15835     15841     15838
     15821     15820     15819     15823     15821     15820     15819     15827
     15821     15820     15819     15831     15821     15820     15835     15836
     15821     15820     15835     15837     15821     15820     15835     15841
     15822     15820     15819     15823     15822     15820     15819     15827
     15822     15820     15819     15831     15822     15820     15835     15836
     15822     15820     15835     15837     15822     15820     15835     15841
     15823     15819     15820     15835     15823     15819     15827     15828
     15823     15819     15827     15829     15823     15819     15827     15830
     15823     15819     15831     15832     15823     15819     15831     15833
     15823     15819     15831     15834     15824     15823     15819     15827
     15824     15823     15819     15831     15825     15823     15819     15827
     15825     15823     15819     15831     15826     15823     15819     15827
     15826     15823     15819     15831     15827     15819     15820     15835
     15827     15819     15831     15832     15827     15819     15831     15833
     15827     15819     15831     15834     15828     15827     15819     15831
     15829     15827     15819     15831     15830     15827     15819     15831
     15831     15819     15820     15835     15835     15841     15838     15839
     15835     15841     15838     15840     15835     15841     15838     15842
     15836     15835     15841     15838     15837     15835     15841     15838
     15838     15842     15843     15844     15838     15842     15843     15845
     15838     15842     15843     15846     15839     15838     15842     15843
     15840     15838     15842     15843     15841     15838     15842     15843
     15842     15843     15846     15847     15842     15843     15846     15848
     15842     15843     15846     15854     15843     15846     15848     15849
     15843     15846     15854     15855     15843     15846     15854     15856
     15843     15846     15854     15857     15844     15843     15846     15847
     15844     15843     15846     15848     15844     15843     15846     15854
     15845     15843     15846     15847     15845     15843     15846     15848
     15845     15843     15846     15854     15846     15848     15849     15850
     15846     15848     15849     15851     15846     15854     15857     15858
     15847     15846     15848     15849     15847     15846     15854     15855
     15847     15846     15854     15856     15847     15846     15854     15857
     15848     15846     15854     15855     15848     15846     15854     15856
     15848     15846     15854     15857     15848     15849     15851     15852
     15848     15849     15851     15853     15848     15849     15851     15863
     15849     15848     15846     15854     15849     15851     15863     15864
     15849     15851     15863     15865     15849     15851     15863     15866
     15850     15849     15851     15852     15850     15849     15851     15853
     15850     15849     15851     15863     15851     15863     15866     15867
     15851     15863     15866     15868     15851     15863     15866     15869
     15852     15851     15863     15864     15852     15851     15863     15865
     15852     15851     15863     15866     15853     15851     15863     15864
     15853     15851     15863     15865     15853     15851     15863     15866
     15854     15857     15858     15859     15854     15857     15858     15860
     15855     15854     15857     15858     15856     15854     15857     15858
     15857     15858     15860     15861     15857     15858     15860     15862
     15857     15858     15860     15910     15858     15860     15910     15911
     15858     15860     15910     15912     15858     15860     15910     15913
     15859     15858     15860     15861     15859     15858     15860     15862
     15859     15858     15860     15910     15860     15910     15913     15914
     15860     15910     15913     15915     15860     15910     15913     15916
     15861     15860     15910     15911     15861     15860     15910     15912
     15861     15860     15910     15913     15862     15860     15910     15911
     15862     15860     15910     15912     15862     15860     15910     15913
     15863     15866     15869     15870     15863     15866     15869     15871
     15863     15866     15869     15872     15864     15863     15866     15867
     15864     15863     15866     15868     15864     15863     15866     15869
     15865     15863     15866     15867     15865     15863     15866     15868
     15865     15863     15866     15869     15866     15869     15872     15873
     15866     15869     15872     15874     15866     15869     15872     15875
     15867     15866     15869     15870     15867     15866     15869     15871
     15867     15866     15869     15872     15868     15866     15869     15870
     15868     15866     15869     15871     15868     15866     15869     15872
     15869     15872     15875     15876     15869     15872     15875     15877
     15869     15872     15875     15878     15870     15869     15872     15873
     15870     15869     15872     15874     15870     15869     15872     15875
     15871     15869     15872     15873     15871     15869     15872     15874
     15871     15869     15872     15875     15872     15875     15878     15879
     15872     15875     15878     15880     15872     15875     15878     15881
     15873     15872     15875     15876     15873     15872     15875     15877
     15873     15872     15875     15878     15874     15872     15875     15876
     15874     15872     15875     15877     15874     15872     15875     15878
     15875     15878     15881     15882     15875     15878     15881     15883
     15876     15875     15878     15879     15876     15875     15878     15880
     15876     15875     15878     15881     15877     15875     15878     15879
     15877     15875     15878     15880     15877     15875     15878     15881
     15878     15881     15883     15884     15878     15881     15883     15885
     15879     15878     15881     15882     15879     15878     15881     15883
     15880     15878     15881     15882     15880     15878     15881     15883
     15881     15883     15885     15886     15881     15883     15885     15887
     15881     15883     15885     15888     15882     15881     15883     15884
     15882     15881     15883     15885     15883     15885     15888     15889
     15883     15885     15888     15890     15883     15885     15888     15891
     15884     15883     15885     15886     15884     15883     15885     15887
     15884     15883     15885     15888     15885     15888     15891     15892
     15885     15888     15891     15893     15885     15888     15891     15894
     15886     15885     15888     15889     15886     15885     15888     15890
     15886     15885     15888     15891     15887     15885     15888     15889
     15887     15885     15888     15890     15887     15885     15888     15891
     15888     15891     15894     15895     15888     15891     15894     15896
     15888     15891     15894     15897     15889     15888     15891     15892
     15889     15888     15891     15893     15889     15888     15891     15894
     15890     15888     15891     15892     15890     15888     15891     15893
     15890     15888     15891     15894     15891     15894     15897     15898
     15891     15894     15897     15899     15891     15894     15897     15900
     15892     15891     15894     15895     15892     15891     15894     15896
     15892     15891     15894     15897     15893     15891     15894     15895
     15893     15891     15894     15896     15893     15891     15894     15897
     15894     15897     15900     15901     15894     15897     15900     15902
     15894     15897     15900     15903     15895     15894     15897     15898
     15895     15894     15897     15899     15895     15894     15897     15900
     15896     15894     15897     15898     15896     15894     15897     15899
     15896     15894     15897     15900     15897     15900     15903     15904
     15897     15900     15903     15905     15897     15900     15903     15906
     15898     15897     15900     15901     15898     15897     15900     15902
     15898     15897     15900     15903     15899     15897     15900     15901
     15899     15897     15900     15902     15899     15897     15900     15903
     15900     15903     15906     15907     15900     15903     15906     15908
     15900     15903     15906     15909     15901     15900     15903     15904
     15901     15900     15903     15905     15901     15900     15903     15906
     15902     15900     15903     15904     15902     15900     15903     15905
     15902     15900     15903     15906     15904     15903     15906     15907
     15904     15903     15906     15908     15904     15903     15906     15909
     15905     15903     15906     15907     15905     15903     15906     15908
     15905     15903     15906     15909     15910     15913     15916     15917
     15910     15913     15916     15918     15910     15913     15916     15919
     15911     15910     15913     15914     15911     15910     15913     15915
     15911     15910     15913     15916     15912     15910     15913     15914
     15912     15910     15913     15915     15912     15910     15913     15916
     15913     15916     15919     15920     15913     15916     15919     15921
     15913     15916     15919     15922     15914     15913     15916     15917
     15914     15913     15916     15918     15914     15913     15916     15919
     15915     15913     15916     15917     15915     15913     15916     15918
     15915     15913     15916     15919     15916     15919     15922     15923
     15916     15919     15922     15924     15916     15919     15922     15925
     15917     15916     15919     15920     15917     15916     15919     15921
     15917     15916     15919     15922     15918     15916     15919     15920
     15918     15916     15919     15921     15918     15916     15919     15922
     15919     15922     15925     15926     15919     15922     15925     15927
     15919     15922     15925     15928     15920     15919     15922     15923
     15920     15919     15922     15924     15920     15919     15922     15925
     15921     15919     15922     15923     15921     15919     15922     15924
     15921     15919     15922     15925     15922     15925     15928     15929
     15922     15925     15928     15930     15923     15922     15925     15926
     15923     15922     15925     15927     15923     15922     15925     15928
     15924     15922     15925     15926     15924     15922     15925     15927
     15924     15922     15925     15928     15925     15928     15930     15931
     15925     15928     15930     15932     15926     15925     15928     15929
     15926     15925     15928     15930     15927     15925     15928     15929
     15927     15925     15928     15930     15928     15930     15932     15933
     15928     15930     15932     15934     15928     15930     15932     15935
     15929     15928     15930     15931     15929     15928     15930     15932
     15930     15932     15935     15936     15930     15932     15935     15937
     15930     15932     15935     15938     15931     15930     15932     15933
     15931     15930     15932     15934     15931     15930     15932     15935
     15932     15935     15938     15939     15932     15935     15938     15940
     15932     15935     15938     15941     15933     15932     15935     15936
     15933     15932     15935     15937     15933     15932     15935     15938
     15934     15932     15935     15936     15934     15932     15935     15937
     15934     15932     15935     15938     15935     15938     15941     15942
     15935     15938     15941     15943     15935     15938     15941     15944
     15936     15935     15938     15939     15936     15935     15938     15940
     15936     15935     15938     15941     15937     15935     15938     15939
     15937     15935     15938     15940     15937     15935     15938     15941
     15938     15941     15944     15945     15938     15941     15944     15946
     15938     15941     15944     15947     15939     15938     15941     15942
     15939     15938     15941     15943     15939     15938     15941     15944
     15940     15938     15941     15942     15940     15938     15941     15943
     15940     15938     15941     15944     15941     15944     15947     15948
     15941     15944     15947     15949     15941     15944     15947     15950
     15942     15941     15944     15945     15942     15941     15944     15946
     15942     15941     15944     15947     15943     15941     15944     15945
     15943     15941     15944     15946     15943     15941     15944     15947
     15944     15947     15950     15951     15944     15947     15950     15952
     15944     15947     15950     15953     15945     15944     15947     15948
     15945     15944     15947     15949     15945     15944     15947     15950
     15946     15944     15947     15948     15946     15944     15947     15949
     15946     15944     15947     15950     15947     15950     15953     15954
     15947     15950     15953     15955     15947     15950     15953     15956
     15948     15947     15950     15951     15948     15947     15950     15952
     15948     15947     15950     15953     15949     15947     15950     15951
     15949     15947     15950     15952     15949     15947     15950     15953
     15951     15950     15953     15954     15951     15950     15953     15955
     15951     15950     15953     15956     15952     15950     15953     15954
     15952     15950     15953     15955     15952     15950     15953     15956
     15957     15958     15973     15974     15957     15958     15973     15975
     15957     15958     15973     15979     15958     15957     15961     15962
     15958     15957     15961     15963     15958     15957     15961     15964
     15958     15957     15965     15966     15958     15957     15965     15967
     15958     15957     15965     15968     15958     15957     15969     15970
     15958     15957     15969     15971     15958     15957     15969     15972
     15958     15973     15979     15976     15959     15958     15957     15961
     15959     15958     15957     15965     15959     15958     15957     15969
     15959     15958     15973     15974     15959     15958     15973     15975
     15959     15958     15973     15979     15960     15958     15957     15961
     15960     15958     15957     15965     15960     15958     15957     15969
     15960     15958     15973     15974     15960     15958     15973     15975
     15960     15958     15973     15979     15961     15957     15958     15973
     15961     15957     15965     15966     15961     15957     15965     15967
     15961     15957     15965     15968     15961     15957     15969     15970
     15961     15957     15969     15971     15961     15957     15969     15972
     15962     15961     15957     15965     15962     15961     15957     15969
     15963     15961     15957     15965     15963     15961     15957     15969
     15964     15961     15957     15965     15964     15961     15957     15969
     15965     15957     15958     15973     15965     15957     15969     15970
     15965     15957     15969     15971     15965     15957     15969     15972
     15966     15965     15957     15969     15967     15965     15957     15969
     15968     15965     15957     15969     15969     15957     15958     15973
     15973     15979     15976     15977     15973     15979     15976     15978
     15973     15979     15976     15980     15974     15973     15979     15976
     15975     15973     15979     15976     15976     15980     15981     15982
     15976     15980     15981     15983     15976     15980     15981     15984
     15977     15976     15980     15981     15978     15976     15980     15981
     15979     15976     15980     15981     15980     15981     15984     15985
     15980     15981     15984     15986     15980     15981     15984     15992
     15981     15984     15986     15987     15981     15984     15992     15993
     15981     15984     15992     15994     15981     15984     15992     15995
     15982     15981     15984     15985     15982     15981     15984     15986
     15982     15981     15984     15992     15983     15981     15984     15985
     15983     15981     15984     15986     15983     15981     15984     15992
     15984     15986     15987     15988     15984     15986     15987     15989
     15984     15992     15995     15996     15985     15984     15986     15987
     15985     15984     15992     15993     15985     15984     15992     15994
     15985     15984     15992     15995     15986     15984     15992     15993
     15986     15984     15992     15994     15986     15984     15992     15995
     15986     15987     15989     15990     15986     15987     15989     15991
     15986     15987     15989     16001     15987     15986     15984     15992
     15987     15989     16001     16002     15987     15989     16001     16003
     15987     15989     16001     16004     15988     15987     15989     15990
     15988     15987     15989     15991     15988     15987     15989     16001
     15989     16001     16004     16005     15989     16001     16004     16006
     15989     16001     16004     16007     15990     15989     16001     16002
     15990     15989     16001     16003     15990     15989     16001     16004
     15991     15989     16001     16002     15991     15989     16001     16003
     15991     15989     16001     16004     15992     15995     15996     15997
     15992     15995     15996     15998     15993     15992     15995     15996
     15994     15992     15995     15996     15995     15996     15998     15999
     15995     15996     15998     16000     15995     15996     15998     16048
     15996     15998     16048     16049     15996     15998     16048     16050
     15996     15998     16048     16051     15997     15996     15998     15999
     15997     15996     15998     16000     15997     15996     15998     16048
     15998     16048     16051     16052     15998     16048     16051     16053
     15998     16048     16051     16054     15999     15998     16048     16049
     15999     15998     16048     16050     15999     15998     16048     16051
     16000     15998     16048     16049     16000     15998     16048     16050
     16000     15998     16048     16051     16001     16004     16007     16008
     16001     16004     16007     16009     16001     16004     16007     16010
     16002     16001     16004     16005     16002     16001     16004     16006
     16002     16001     16004     16007     16003     16001     16004     16005
     16003     16001     16004     16006     16003     16001     16004     16007
     16004     16007     16010     16011     16004     16007     16010     16012
     16004     16007     16010     16013     16005     16004     16007     16008
     16005     16004     16007     16009     16005     16004     16007     16010
     16006     16004     16007     16008     16006     16004     16007     16009
     16006     16004     16007     16010     16007     16010     16013     16014
     16007     16010     16013     16015     16007     16010     16013     16016
     16008     16007     16010     16011     16008     16007     16010     16012
     16008     16007     16010     16013     16009     16007     16010     16011
     16009     16007     16010     16012     16009     16007     16010     16013
     16010     16013     16016     16017     16010     16013     16016     16018
     16010     16013     16016     16019     16011     16010     16013     16014
     16011     16010     16013     16015     16011     16010     16013     16016
     16012     16010     16013     16014     16012     16010     16013     16015
     16012     16010     16013     16016     16013     16016     16019     16020
     16013     16016     16019     16021     16014     16013     16016     16017
     16014     16013     16016     16018     16014     16013     16016     16019
     16015     16013     16016     16017     16015     16013     16016     16018
     16015     16013     16016     16019     16016     16019     16021     16022
     16016     16019     16021     16023     16017     16016     16019     16020
     16017     16016     16019     16021     16018     16016     16019     16020
     16018     16016     16019     16021     16019     16021     16023     16024
     16019     16021     16023     16025     16019     16021     16023     16026
     16020     16019     16021     16022     16020     16019     16021     16023
     16021     16023     16026     16027     16021     16023     16026     16028
     16021     16023     16026     16029     16022     16021     16023     16024
     16022     16021     16023     16025     16022     16021     16023     16026
     16023     16026     16029     16030     16023     16026     16029     16031
     16023     16026     16029     16032     16024     16023     16026     16027
     16024     16023     16026     16028     16024     16023     16026     16029
     16025     16023     16026     16027     16025     16023     16026     16028
     16025     16023     16026     16029     16026     16029     16032     16033
     16026     16029     16032     16034     16026     16029     16032     16035
     16027     16026     16029     16030     16027     16026     16029     16031
     16027     16026     16029     16032     16028     16026     16029     16030
     16028     16026     16029     16031     16028     16026     16029     16032
     16029     16032     16035     16036     16029     16032     16035     16037
     16029     16032     16035     16038     16030     16029     16032     16033
     16030     16029     16032     16034     16030     16029     16032     16035
     16031     16029     16032     16033     16031     16029     16032     16034
     16031     16029     16032     16035     16032     16035     16038     16039
     16032     16035     16038     16040     16032     16035     16038     16041
     16033     16032     16035     16036     16033     16032     16035     16037
     16033     16032     16035     16038     16034     16032     16035     16036
     16034     16032     16035     16037     16034     16032     16035     16038
     16035     16038     16041     16042     16035     16038     16041     16043
     16035     16038     16041     16044     16036     16035     16038     16039
     16036     16035     16038     16040     16036     16035     16038     16041
     16037     16035     16038     16039     16037     16035     16038     16040
     16037     16035     16038     16041     16038     16041     16044     16045
     16038     16041     16044     16046     16038     16041     16044     16047
     16039     16038     16041     16042     16039     16038     16041     16043
     16039     16038     16041     16044     16040     16038     16041     16042
     16040     16038     16041     16043     16040     16038     16041     16044
     16042     16041     16044     16045     16042     16041     16044     16046
     16042     16041     16044     16047     16043     16041     16044     16045
     16043     16041     16044     16046     16043     16041     16044     16047
     16048     16051     16054     16055     16048     16051     16054     16056
     16048     16051     16054     16057     16049     16048     16051     16052
     16049     16048     16051     16053     16049     16048     16051     16054
     16050     16048     16051     16052     16050     16048     16051     16053
     16050     16048     16051     16054     16051     16054     16057     16058
     16051     16054     16057     16059     16051     16054     16057     16060
     16052     16051     16054     16055     16052     16051     16054     16056
     16052     16051     16054     16057     16053     16051     16054     16055
     16053     16051     16054     16056     16053     16051     16054     16057
     16054     16057     16060     16061     16054     16057     16060     16062
     16054     16057     16060     16063     16055     16054     16057     16058
     16055     16054     16057     16059     16055     16054     16057     16060
     16056     16054     16057     16058     16056     16054     16057     16059
     16056     16054     16057     16060     16057     16060     16063     16064
     16057     16060     16063     16065     16057     16060     16063     16066
     16058     16057     16060     16061     16058     16057     16060     16062
     16058     16057     16060     16063     16059     16057     16060     16061
     16059     16057     16060     16062     16059     16057     16060     16063
     16060     16063     16066     16067     16060     16063     16066     16068
     16061     16060     16063     16064     16061     16060     16063     16065
     16061     16060     16063     16066     16062     16060     16063     16064
     16062     16060     16063     16065     16062     16060     16063     16066
     16063     16066     16068     16069     16063     16066     16068     16070
     16064     16063     16066     16067     16064     16063     16066     16068
     16065     16063     16066     16067     16065     16063     16066     16068
     16066     16068     16070     16071     16066     16068     16070     16072
     16066     16068     16070     16073     16067     16066     16068     16069
     16067     16066     16068     16070     16068     16070     16073     16074
     16068     16070     16073     16075     16068     16070     16073     16076
     16069     16068     16070     16071     16069     16068     16070     16072
     16069     16068     16070     16073     16070     16073     16076     16077
     16070     16073     16076     16078     16070     16073     16076     16079
     16071     16070     16073     16074     16071     16070     16073     16075
     16071     16070     16073     16076     16072     16070     16073     16074
     16072     16070     16073     16075     16072     16070     16073     16076
     16073     16076     16079     16080     16073     16076     16079     16081
     16073     16076     16079     16082     16074     16073     16076     16077
     16074     16073     16076     16078     16074     16073     16076     16079
     16075     16073     16076     16077     16075     16073     16076     16078
     16075     16073     16076     16079     16076     16079     16082     16083
     16076     16079     16082     16084     16076     16079     16082     16085
     16077     16076     16079     16080     16077     16076     16079     16081
     16077     16076     16079     16082     16078     16076     16079     16080
     16078     16076     16079     16081     16078     16076     16079     16082
     16079     16082     16085     16086     16079     16082     16085     16087
     16079     16082     16085     16088     16080     16079     16082     16083
     16080     16079     16082     16084     16080     16079     16082     16085
     16081     16079     16082     16083     16081     16079     16082     16084
     16081     16079     16082     16085     16082     16085     16088     16089
     16082     16085     16088     16090     16082     16085     16088     16091
     16083     16082     16085     16086     16083     16082     16085     16087
     16083     16082     16085     16088     16084     16082     16085     16086
     16084     16082     16085     16087     16084     16082     16085     16088
     16085     16088     16091     16092     16085     16088     16091     16093
     16085     16088     16091     16094     16086     16085     16088     16089
     16086     16085     16088     16090     16086     16085     16088     16091
     16087     16085     16088     16089     16087     16085     16088     16090
     16087     16085     16088     16091     16089     16088     16091     16092
     16089     16088     16091     16093     16089     16088     16091     16094
     16090     16088     16091     16092     16090     16088     16091     16093
     16090     16088     16091     16094     16095     16096     16111     16112
     16095     16096     16111     16113     16095     16096     16111     16117
     16096     16095     16099     16100     16096     16095     16099     16101
     16096     16095     16099     16102     16096     16095     16103     16104
     16096     16095     16103     16105     16096     16095     16103     16106
     16096     16095     16107     16108     16096     16095     16107     16109
     16096     16095     16107     16110     16096     16111     16117     16114
     16097     16096     16095     16099     16097     16096     16095     16103
     16097     16096     16095     16107     16097     16096     16111     16112
     16097     16096     16111     16113     16097     16096     16111     16117
     16098     16096     16095     16099     16098     16096     16095     16103
     16098     16096     16095     16107     16098     16096     16111     16112
     16098     16096     16111     16113     16098     16096     16111     16117
     16099     16095     16096     16111     16099     16095     16103     16104
     16099     16095     16103     16105     16099     16095     16103     16106
     16099     16095     16107     16108     16099     16095     16107     16109
     16099     16095     16107     16110     16100     16099     16095     16103
     16100     16099     16095     16107     16101     16099     16095     16103
     16101     16099     16095     16107     16102     16099     16095     16103
     16102     16099     16095     16107     16103     16095     16096     16111
     16103     16095     16107     16108     16103     16095     16107     16109
     16103     16095     16107     16110     16104     16103     16095     16107
     16105     16103     16095     16107     16106     16103     16095     16107
     16107     16095     16096     16111     16111     16117     16114     16115
     16111     16117     16114     16116     16111     16117     16114     16118
     16112     16111     16117     16114     16113     16111     16117     16114
     16114     16118     16119     16120     16114     16118     16119     16121
     16114     16118     16119     16122     16115     16114     16118     16119
     16116     16114     16118     16119     16117     16114     16118     16119
     16118     16119     16122     16123     16118     16119     16122     16124
     16118     16119     16122     16130     16119     16122     16124     16125
     16119     16122     16130     16131     16119     16122     16130     16132
     16119     16122     16130     16133     16120     16119     16122     16123
     16120     16119     16122     16124     16120     16119     16122     16130
     16121     16119     16122     16123     16121     16119     16122     16124
     16121     16119     16122     16130     16122     16124     16125     16126
     16122     16124     16125     16127     16122     16130     16133     16134
     16123     16122     16124     16125     16123     16122     16130     16131
     16123     16122     16130     16132     16123     16122     16130     16133
     16124     16122     16130     16131     16124     16122     16130     16132
     16124     16122     16130     16133     16124     16125     16127     16128
     16124     16125     16127     16129     16124     16125     16127     16139
     16125     16124     16122     16130     16125     16127     16139     16140
     16125     16127     16139     16141     16125     16127     16139     16142
     16126     16125     16127     16128     16126     16125     16127     16129
     16126     16125     16127     16139     16127     16139     16142     16143
     16127     16139     16142     16144     16127     16139     16142     16145
     16128     16127     16139     16140     16128     16127     16139     16141
     16128     16127     16139     16142     16129     16127     16139     16140
     16129     16127     16139     16141     16129     16127     16139     16142
     16130     16133     16134     16135     16130     16133     16134     16136
     16131     16130     16133     16134     16132     16130     16133     16134
     16133     16134     16136     16137     16133     16134     16136     16138
     16133     16134     16136     16186     16134     16136     16186     16187
     16134     16136     16186     16188     16134     16136     16186     16189
     16135     16134     16136     16137     16135     16134     16136     16138
     16135     16134     16136     16186     16136     16186     16189     16190
     16136     16186     16189     16191     16136     16186     16189     16192
     16137     16136     16186     16187     16137     16136     16186     16188
     16137     16136     16186     16189     16138     16136     16186     16187
     16138     16136     16186     16188     16138     16136     16186     16189
     16139     16142     16145     16146     16139     16142     16145     16147
     16139     16142     16145     16148     16140     16139     16142     16143
     16140     16139     16142     16144     16140     16139     16142     16145
     16141     16139     16142     16143     16141     16139     16142     16144
     16141     16139     16142     16145     16142     16145     16148     16149
     16142     16145     16148     16150     16142     16145     16148     16151
     16143     16142     16145     16146     16143     16142     16145     16147
     16143     16142     16145     16148     16144     16142     16145     16146
     16144     16142     16145     16147     16144     16142     16145     16148
     16145     16148     16151     16152     16145     16148     16151     16153
     16145     16148     16151     16154     16146     16145     16148     16149
     16146     16145     16148     16150     16146     16145     16148     16151
     16147     16145     16148     16149     16147     16145     16148     16150
     16147     16145     16148     16151     16148     16151     16154     16155
     16148     16151     16154     16156     16148     16151     16154     16157
     16149     16148     16151     16152     16149     16148     16151     16153
     16149     16148     16151     16154     16150     16148     16151     16152
     16150     16148     16151     16153     16150     16148     16151     16154
     16151     16154     16157     16158     16151     16154     16157     16159
     16152     16151     16154     16155     16152     16151     16154     16156
     16152     16151     16154     16157     16153     16151     16154     16155
     16153     16151     16154     16156     16153     16151     16154     16157
     16154     16157     16159     16160     16154     16157     16159     16161
     16155     16154     16157     16158     16155     16154     16157     16159
     16156     16154     16157     16158     16156     16154     16157     16159
     16157     16159     16161     16162     16157     16159     16161     16163
     16157     16159     16161     16164     16158     16157     16159     16160
     16158     16157     16159     16161     16159     16161     16164     16165
     16159     16161     16164     16166     16159     16161     16164     16167
     16160     16159     16161     16162     16160     16159     16161     16163
     16160     16159     16161     16164     16161     16164     16167     16168
     16161     16164     16167     16169     16161     16164     16167     16170
     16162     16161     16164     16165     16162     16161     16164     16166
     16162     16161     16164     16167     16163     16161     16164     16165
     16163     16161     16164     16166     16163     16161     16164     16167
     16164     16167     16170     16171     16164     16167     16170     16172
     16164     16167     16170     16173     16165     16164     16167     16168
     16165     16164     16167     16169     16165     16164     16167     16170
     16166     16164     16167     16168     16166     16164     16167     16169
     16166     16164     16167     16170     16167     16170     16173     16174
     16167     16170     16173     16175     16167     16170     16173     16176
     16168     16167     16170     16171     16168     16167     16170     16172
     16168     16167     16170     16173     16169     16167     16170     16171
     16169     16167     16170     16172     16169     16167     16170     16173
     16170     16173     16176     16177     16170     16173     16176     16178
     16170     16173     16176     16179     16171     16170     16173     16174
     16171     16170     16173     16175     16171     16170     16173     16176
     16172     16170     16173     16174     16172     16170     16173     16175
     16172     16170     16173     16176     16173     16176     16179     16180
     16173     16176     16179     16181     16173     16176     16179     16182
     16174     16173     16176     16177     16174     16173     16176     16178
     16174     16173     16176     16179     16175     16173     16176     16177
     16175     16173     16176     16178     16175     16173     16176     16179
     16176     16179     16182     16183     16176     16179     16182     16184
     16176     16179     16182     16185     16177     16176     16179     16180
     16177     16176     16179     16181     16177     16176     16179     16182
     16178     16176     16179     16180     16178     16176     16179     16181
     16178     16176     16179     16182     16180     16179     16182     16183
     16180     16179     16182     16184     16180     16179     16182     16185
     16181     16179     16182     16183     16181     16179     16182     16184
     16181     16179     16182     16185     16186     16189     16192     16193
     16186     16189     16192     16194     16186     16189     16192     16195
     16187     16186     16189     16190     16187     16186     16189     16191
     16187     16186     16189     16192     16188     16186     16189     16190
     16188     16186     16189     16191     16188     16186     16189     16192
     16189     16192     16195     16196     16189     16192     16195     16197
     16189     16192     16195     16198     16190     16189     16192     16193
     16190     16189     16192     16194     16190     16189     16192     16195
     16191     16189     16192     16193     16191     16189     16192     16194
     16191     16189     16192     16195     16192     16195     16198     16199
     16192     16195     16198     16200     16192     16195     16198     16201
     16193     16192     16195     16196     16193     16192     16195     16197
     16193     16192     16195     16198     16194     16192     16195     16196
     16194     16192     16195     16197     16194     16192     16195     16198
     16195     16198     16201     16202     16195     16198     16201     16203
     16195     16198     16201     16204     16196     16195     16198     16199
     16196     16195     16198     16200     16196     16195     16198     16201
     16197     16195     16198     16199     16197     16195     16198     16200
     16197     16195     16198     16201     16198     16201     16204     16205
     16198     16201     16204     16206     16199     16198     16201     16202
     16199     16198     16201     16203     16199     16198     16201     16204
     16200     16198     16201     16202     16200     16198     16201     16203
     16200     16198     16201     16204     16201     16204     16206     16207
     16201     16204     16206     16208     16202     16201     16204     16205
     16202     16201     16204     16206     16203     16201     16204     16205
     16203     16201     16204     16206     16204     16206     16208     16209
     16204     16206     16208     16210     16204     16206     16208     16211
     16205     16204     16206     16207     16205     16204     16206     16208
     16206     16208     16211     16212     16206     16208     16211     16213
     16206     16208     16211     16214     16207     16206     16208     16209
     16207     16206     16208     16210     16207     16206     16208     16211
     16208     16211     16214     16215     16208     16211     16214     16216
     16208     16211     16214     16217     16209     16208     16211     16212
     16209     16208     16211     16213     16209     16208     16211     16214
     16210     16208     16211     16212     16210     16208     16211     16213
     16210     16208     16211     16214     16211     16214     16217     16218
     16211     16214     16217     16219     16211     16214     16217     16220
     16212     16211     16214     16215     16212     16211     16214     16216
     16212     16211     16214     16217     16213     16211     16214     16215
     16213     16211     16214     16216     16213     16211     16214     16217
     16214     16217     16220     16221     16214     16217     16220     16222
     16214     16217     16220     16223     16215     16214     16217     16218
     16215     16214     16217     16219     16215     16214     16217     16220
     16216     16214     16217     16218     16216     16214     16217     16219
     16216     16214     16217     16220     16217     16220     16223     16224
     16217     16220     16223     16225     16217     16220     16223     16226
     16218     16217     16220     16221     16218     16217     16220     16222
     16218     16217     16220     16223     16219     16217     16220     16221
     16219     16217     16220     16222     16219     16217     16220     16223
     16220     16223     16226     16227     16220     16223     16226     16228
     16220     16223     16226     16229     16221     16220     16223     16224
     16221     16220     16223     16225     16221     16220     16223     16226
     16222     16220     16223     16224     16222     16220     16223     16225
     16222     16220     16223     16226     16223     16226     16229     16230
     16223     16226     16229     16231     16223     16226     16229     16232
     16224     16223     16226     16227     16224     16223     16226     16228
     16224     16223     16226     16229     16225     16223     16226     16227
     16225     16223     16226     16228     16225     16223     16226     16229
     16227     16226     16229     16230     16227     16226     16229     16231
     16227     16226     16229     16232     16228     16226     16229     16230
     16228     16226     16229     16231     16228     16226     16229     16232
     16233     16234     16249     16250     16233     16234     16249     16251
     16233     16234     16249     16255     16234     16233     16237     16238
     16234     16233     16237     16239     16234     16233     16237     16240
     16234     16233     16241     16242     16234     16233     16241     16243
     16234     16233     16241     16244     16234     16233     16245     16246
     16234     16233     16245     16247     16234     16233     16245     16248
     16234     16249     16255     16252     16235     16234     16233     16237
     16235     16234     16233     16241     16235     16234     16233     16245
     16235     16234     16249     16250     16235     16234     16249     16251
     16235     16234     16249     16255     16236     16234     16233     16237
     16236     16234     16233     16241     16236     16234     16233     16245
     16236     16234     16249     16250     16236     16234     16249     16251
     16236     16234     16249     16255     16237     16233     16234     16249
     16237     16233     16241     16242     16237     16233     16241     16243
     16237     16233     16241     16244     16237     16233     16245     16246
     16237     16233     16245     16247     16237     16233     16245     16248
     16238     16237     16233     16241     16238     16237     16233     16245
     16239     16237     16233     16241     16239     16237     16233     16245
     16240     16237     16233     16241     16240     16237     16233     16245
     16241     16233     16234     16249     16241     16233     16245     16246
     16241     16233     16245     16247     16241     16233     16245     16248
     16242     16241     16233     16245     16243     16241     16233     16245
     16244     16241     16233     16245     16245     16233     16234     16249
     16249     16255     16252     16253     16249     16255     16252     16254
     16249     16255     16252     16256     16250     16249     16255     16252
     16251     16249     16255     16252     16252     16256     16257     16258
     16252     16256     16257     16259     16252     16256     16257     16260
     16253     16252     16256     16257     16254     16252     16256     16257
     16255     16252     16256     16257     16256     16257     16260     16261
     16256     16257     16260     16262     16256     16257     16260     16268
     16257     16260     16262     16263     16257     16260     16268     16269
     16257     16260     16268     16270     16257     16260     16268     16271
     16258     16257     16260     16261     16258     16257     16260     16262
     16258     16257     16260     16268     16259     16257     16260     16261
     16259     16257     16260     16262     16259     16257     16260     16268
     16260     16262     16263     16264     16260     16262     16263     16265
     16260     16268     16271     16272     16261     16260     16262     16263
     16261     16260     16268     16269     16261     16260     16268     16270
     16261     16260     16268     16271     16262     16260     16268     16269
     16262     16260     16268     16270     16262     16260     16268     16271
     16262     16263     16265     16266     16262     16263     16265     16267
     16262     16263     16265     16277     16263     16262     16260     16268
     16263     16265     16277     16278     16263     16265     16277     16279
     16263     16265     16277     16280     16264     16263     16265     16266
     16264     16263     16265     16267     16264     16263     16265     16277
     16265     16277     16280     16281     16265     16277     16280     16282
     16265     16277     16280     16283     16266     16265     16277     16278
     16266     16265     16277     16279     16266     16265     16277     16280
     16267     16265     16277     16278     16267     16265     16277     16279
     16267     16265     16277     16280     16268     16271     16272     16273
     16268     16271     16272     16274     16269     16268     16271     16272
     16270     16268     16271     16272     16271     16272     16274     16275
     16271     16272     16274     16276     16271     16272     16274     16324
     16272     16274     16324     16325     16272     16274     16324     16326
     16272     16274     16324     16327     16273     16272     16274     16275
     16273     16272     16274     16276     16273     16272     16274     16324
     16274     16324     16327     16328     16274     16324     16327     16329
     16274     16324     16327     16330     16275     16274     16324     16325
     16275     16274     16324     16326     16275     16274     16324     16327
     16276     16274     16324     16325     16276     16274     16324     16326
     16276     16274     16324     16327     16277     16280     16283     16284
     16277     16280     16283     16285     16277     16280     16283     16286
     16278     16277     16280     16281     16278     16277     16280     16282
     16278     16277     16280     16283     16279     16277     16280     16281
     16279     16277     16280     16282     16279     16277     16280     16283
     16280     16283     16286     16287     16280     16283     16286     16288
     16280     16283     16286     16289     16281     16280     16283     16284
     16281     16280     16283     16285     16281     16280     16283     16286
     16282     16280     16283     16284     16282     16280     16283     16285
     16282     16280     16283     16286     16283     16286     16289     16290
     16283     16286     16289     16291     16283     16286     16289     16292
     16284     16283     16286     16287     16284     16283     16286     16288
     16284     16283     16286     16289     16285     16283     16286     16287
     16285     16283     16286     16288     16285     16283     16286     16289
     16286     16289     16292     16293     16286     16289     16292     16294
     16286     16289     16292     16295     16287     16286     16289     16290
     16287     16286     16289     16291     16287     16286     16289     16292
     16288     16286     16289     16290     16288     16286     16289     16291
     16288     16286     16289     16292     16289     16292     16295     16296
     16289     16292     16295     16297     16290     16289     16292     16293
     16290     16289     16292     16294     16290     16289     16292     16295
     16291     16289     16292     16293     16291     16289     16292     16294
     16291     16289     16292     16295     16292     16295     16297     16298
     16292     16295     16297     16299     16293     16292     16295     16296
     16293     16292     16295     16297     16294     16292     16295     16296
     16294     16292     16295     16297     16295     16297     16299     16300
     16295     16297     16299     16301     16295     16297     16299     16302
     16296     16295     16297     16298     16296     16295     16297     16299
     16297     16299     16302     16303     16297     16299     16302     16304
     16297     16299     16302     16305     16298     16297     16299     16300
     16298     16297     16299     16301     16298     16297     16299     16302
     16299     16302     16305     16306     16299     16302     16305     16307
     16299     16302     16305     16308     16300     16299     16302     16303
     16300     16299     16302     16304     16300     16299     16302     16305
     16301     16299     16302     16303     16301     16299     16302     16304
     16301     16299     16302     16305     16302     16305     16308     16309
     16302     16305     16308     16310     16302     16305     16308     16311
     16303     16302     16305     16306     16303     16302     16305     16307
     16303     16302     16305     16308     16304     16302     16305     16306
     16304     16302     16305     16307     16304     16302     16305     16308
     16305     16308     16311     16312     16305     16308     16311     16313
     16305     16308     16311     16314     16306     16305     16308     16309
     16306     16305     16308     16310     16306     16305     16308     16311
     16307     16305     16308     16309     16307     16305     16308     16310
     16307     16305     16308     16311     16308     16311     16314     16315
     16308     16311     16314     16316     16308     16311     16314     16317
     16309     16308     16311     16312     16309     16308     16311     16313
     16309     16308     16311     16314     16310     16308     16311     16312
     16310     16308     16311     16313     16310     16308     16311     16314
     16311     16314     16317     16318     16311     16314     16317     16319
     16311     16314     16317     16320     16312     16311     16314     16315
     16312     16311     16314     16316     16312     16311     16314     16317
     16313     16311     16314     16315     16313     16311     16314     16316
     16313     16311     16314     16317     16314     16317     16320     16321
     16314     16317     16320     16322     16314     16317     16320     16323
     16315     16314     16317     16318     16315     16314     16317     16319
     16315     16314     16317     16320     16316     16314     16317     16318
     16316     16314     16317     16319     16316     16314     16317     16320
     16318     16317     16320     16321     16318     16317     16320     16322
     16318     16317     16320     16323     16319     16317     16320     16321
     16319     16317     16320     16322     16319     16317     16320     16323
     16324     16327     16330     16331     16324     16327     16330     16332
     16324     16327     16330     16333     16325     16324     16327     16328
     16325     16324     16327     16329     16325     16324     16327     16330
     16326     16324     16327     16328     16326     16324     16327     16329
     16326     16324     16327     16330     16327     16330     16333     16334
     16327     16330     16333     16335     16327     16330     16333     16336
     16328     16327     16330     16331     16328     16327     16330     16332
     16328     16327     16330     16333     16329     16327     16330     16331
     16329     16327     16330     16332     16329     16327     16330     16333
     16330     16333     16336     16337     16330     16333     16336     16338
     16330     16333     16336     16339     16331     16330     16333     16334
     16331     16330     16333     16335     16331     16330     16333     16336
     16332     16330     16333     16334     16332     16330     16333     16335
     16332     16330     16333     16336     16333     16336     16339     16340
     16333     16336     16339     16341     16333     16336     16339     16342
     16334     16333     16336     16337     16334     16333     16336     16338
     16334     16333     16336     16339     16335     16333     16336     16337
     16335     16333     16336     16338     16335     16333     16336     16339
     16336     16339     16342     16343     16336     16339     16342     16344
     16337     16336     16339     16340     16337     16336     16339     16341
     16337     16336     16339     16342     16338     16336     16339     16340
     16338     16336     16339     16341     16338     16336     16339     16342
     16339     16342     16344     16345     16339     16342     16344     16346
     16340     16339     16342     16343     16340     16339     16342     16344
     16341     16339     16342     16343     16341     16339     16342     16344
     16342     16344     16346     16347     16342     16344     16346     16348
     16342     16344     16346     16349     16343     16342     16344     16345
     16343     16342     16344     16346     16344     16346     16349     16350
     16344     16346     16349     16351     16344     16346     16349     16352
     16345     16344     16346     16347     16345     16344     16346     16348
     16345     16344     16346     16349     16346     16349     16352     16353
     16346     16349     16352     16354     16346     16349     16352     16355
     16347     16346     16349     16350     16347     16346     16349     16351
     16347     16346     16349     16352     16348     16346     16349     16350
     16348     16346     16349     16351     16348     16346     16349     16352
     16349     16352     16355     16356     16349     16352     16355     16357
     16349     16352     16355     16358     16350     16349     16352     16353
     16350     16349     16352     16354     16350     16349     16352     16355
     16351     16349     16352     16353     16351     16349     16352     16354
     16351     16349     16352     16355     16352     16355     16358     16359
     16352     16355     16358     16360     16352     16355     16358     16361
     16353     16352     16355     16356     16353     16352     16355     16357
     16353     16352     16355     16358     16354     16352     16355     16356
     16354     16352     16355     16357     16354     16352     16355     16358
     16355     16358     16361     16362     16355     16358     16361     16363
     16355     16358     16361     16364     16356     16355     16358     16359
     16356     16355     16358     16360     16356     16355     16358     16361
     16357     16355     16358     16359     16357     16355     16358     16360
     16357     16355     16358     16361     16358     16361     16364     16365
     16358     16361     16364     16366     16358     16361     16364     16367
     16359     16358     16361     16362     16359     16358     16361     16363
     16359     16358     16361     16364     16360     16358     16361     16362
     16360     16358     16361     16363     16360     16358     16361     16364
     16361     16364     16367     16368     16361     16364     16367     16369
     16361     16364     16367     16370     16362     16361     16364     16365
     16362     16361     16364     16366     16362     16361     16364     16367
     16363     16361     16364     16365     16363     16361     16364     16366
     16363     16361     16364     16367     16365     16364     16367     16368
     16365     16364     16367     16369     16365     16364     16367     16370
     16366     16364     16367     16368     16366     16364     16367     16369
     16366     16364     16367     16370     16371     16372     16387     16388
     16371     16372     16387     16389     16371     16372     16387     16393
     16372     16371     16375     16376     16372     16371     16375     16377
     16372     16371     16375     16378     16372     16371     16379     16380
     16372     16371     16379     16381     16372     16371     16379     16382
     16372     16371     16383     16384     16372     16371     16383     16385
     16372     16371     16383     16386     16372     16387     16393     16390
     16373     16372     16371     16375     16373     16372     16371     16379
     16373     16372     16371     16383     16373     16372     16387     16388
     16373     16372     16387     16389     16373     16372     16387     16393
     16374     16372     16371     16375     16374     16372     16371     16379
     16374     16372     16371     16383     16374     16372     16387     16388
     16374     16372     16387     16389     16374     16372     16387     16393
     16375     16371     16372     16387     16375     16371     16379     16380
     16375     16371     16379     16381     16375     16371     16379     16382
     16375     16371     16383     16384     16375     16371     16383     16385
     16375     16371     16383     16386     16376     16375     16371     16379
     16376     16375     16371     16383     16377     16375     16371     16379
     16377     16375     16371     16383     16378     16375     16371     16379
     16378     16375     16371     16383     16379     16371     16372     16387
     16379     16371     16383     16384     16379     16371     16383     16385
     16379     16371     16383     16386     16380     16379     16371     16383
     16381     16379     16371     16383     16382     16379     16371     16383
     16383     16371     16372     16387     16387     16393     16390     16391
     16387     16393     16390     16392     16387     16393     16390     16394
     16388     16387     16393     16390     16389     16387     16393     16390
     16390     16394     16395     16396     16390     16394     16395     16397
     16390     16394     16395     16398     16391     16390     16394     16395
     16392     16390     16394     16395     16393     16390     16394     16395
     16394     16395     16398     16399     16394     16395     16398     16400
     16394     16395     16398     16406     16395     16398     16400     16401
     16395     16398     16406     16407     16395     16398     16406     16408
     16395     16398     16406     16409     16396     16395     16398     16399
     16396     16395     16398     16400     16396     16395     16398     16406
     16397     16395     16398     16399     16397     16395     16398     16400
     16397     16395     16398     16406     16398     16400     16401     16402
     16398     16400     16401     16403     16398     16406     16409     16410
     16399     16398     16400     16401     16399     16398     16406     16407
     16399     16398     16406     16408     16399     16398     16406     16409
     16400     16398     16406     16407     16400     16398     16406     16408
     16400     16398     16406     16409     16400     16401     16403     16404
     16400     16401     16403     16405     16400     16401     16403     16415
     16401     16400     16398     16406     16401     16403     16415     16416
     16401     16403     16415     16417     16401     16403     16415     16418
     16402     16401     16403     16404     16402     16401     16403     16405
     16402     16401     16403     16415     16403     16415     16418     16419
     16403     16415     16418     16420     16403     16415     16418     16421
     16404     16403     16415     16416     16404     16403     16415     16417
     16404     16403     16415     16418     16405     16403     16415     16416
     16405     16403     16415     16417     16405     16403     16415     16418
     16406     16409     16410     16411     16406     16409     16410     16412
     16407     16406     16409     16410     16408     16406     16409     16410
     16409     16410     16412     16413     16409     16410     16412     16414
     16409     16410     16412     16462     16410     16412     16462     16463
     16410     16412     16462     16464     16410     16412     16462     16465
     16411     16410     16412     16413     16411     16410     16412     16414
     16411     16410     16412     16462     16412     16462     16465     16466
     16412     16462     16465     16467     16412     16462     16465     16468
     16413     16412     16462     16463     16413     16412     16462     16464
     16413     16412     16462     16465     16414     16412     16462     16463
     16414     16412     16462     16464     16414     16412     16462     16465
     16415     16418     16421     16422     16415     16418     16421     16423
     16415     16418     16421     16424     16416     16415     16418     16419
     16416     16415     16418     16420     16416     16415     16418     16421
     16417     16415     16418     16419     16417     16415     16418     16420
     16417     16415     16418     16421     16418     16421     16424     16425
     16418     16421     16424     16426     16418     16421     16424     16427
     16419     16418     16421     16422     16419     16418     16421     16423
     16419     16418     16421     16424     16420     16418     16421     16422
     16420     16418     16421     16423     16420     16418     16421     16424
     16421     16424     16427     16428     16421     16424     16427     16429
     16421     16424     16427     16430     16422     16421     16424     16425
     16422     16421     16424     16426     16422     16421     16424     16427
     16423     16421     16424     16425     16423     16421     16424     16426
     16423     16421     16424     16427     16424     16427     16430     16431
     16424     16427     16430     16432     16424     16427     16430     16433
     16425     16424     16427     16428     16425     16424     16427     16429
     16425     16424     16427     16430     16426     16424     16427     16428
     16426     16424     16427     16429     16426     16424     16427     16430
     16427     16430     16433     16434     16427     16430     16433     16435
     16428     16427     16430     16431     16428     16427     16430     16432
     16428     16427     16430     16433     16429     16427     16430     16431
     16429     16427     16430     16432     16429     16427     16430     16433
     16430     16433     16435     16436     16430     16433     16435     16437
     16431     16430     16433     16434     16431     16430     16433     16435
     16432     16430     16433     16434     16432     16430     16433     16435
     16433     16435     16437     16438     16433     16435     16437     16439
     16433     16435     16437     16440     16434     16433     16435     16436
     16434     16433     16435     16437     16435     16437     16440     16441
     16435     16437     16440     16442     16435     16437     16440     16443
     16436     16435     16437     16438     16436     16435     16437     16439
     16436     16435     16437     16440     16437     16440     16443     16444
     16437     16440     16443     16445     16437     16440     16443     16446
     16438     16437     16440     16441     16438     16437     16440     16442
     16438     16437     16440     16443     16439     16437     16440     16441
     16439     16437     16440     16442     16439     16437     16440     16443
     16440     16443     16446     16447     16440     16443     16446     16448
     16440     16443     16446     16449     16441     16440     16443     16444
     16441     16440     16443     16445     16441     16440     16443     16446
     16442     16440     16443     16444     16442     16440     16443     16445
     16442     16440     16443     16446     16443     16446     16449     16450
     16443     16446     16449     16451     16443     16446     16449     16452
     16444     16443     16446     16447     16444     16443     16446     16448
     16444     16443     16446     16449     16445     16443     16446     16447
     16445     16443     16446     16448     16445     16443     16446     16449
     16446     16449     16452     16453     16446     16449     16452     16454
     16446     16449     16452     16455     16447     16446     16449     16450
     16447     16446     16449     16451     16447     16446     16449     16452
     16448     16446     16449     16450     16448     16446     16449     16451
     16448     16446     16449     16452     16449     16452     16455     16456
     16449     16452     16455     16457     16449     16452     16455     16458
     16450     16449     16452     16453     16450     16449     16452     16454
     16450     16449     16452     16455     16451     16449     16452     16453
     16451     16449     16452     16454     16451     16449     16452     16455
     16452     16455     16458     16459     16452     16455     16458     16460
     16452     16455     16458     16461     16453     16452     16455     16456
     16453     16452     16455     16457     16453     16452     16455     16458
     16454     16452     16455     16456     16454     16452     16455     16457
     16454     16452     16455     16458     16456     16455     16458     16459
     16456     16455     16458     16460     16456     16455     16458     16461
     16457     16455     16458     16459     16457     16455     16458     16460
     16457     16455     16458     16461     16462     16465     16468     16469
     16462     16465     16468     16470     16462     16465     16468     16471
     16463     16462     16465     16466     16463     16462     16465     16467
     16463     16462     16465     16468     16464     16462     16465     16466
     16464     16462     16465     16467     16464     16462     16465     16468
     16465     16468     16471     16472     16465     16468     16471     16473
     16465     16468     16471     16474     16466     16465     16468     16469
     16466     16465     16468     16470     16466     16465     16468     16471
     16467     16465     16468     16469     16467     16465     16468     16470
     16467     16465     16468     16471     16468     16471     16474     16475
     16468     16471     16474     16476     16468     16471     16474     16477
     16469     16468     16471     16472     16469     16468     16471     16473
     16469     16468     16471     16474     16470     16468     16471     16472
     16470     16468     16471     16473     16470     16468     16471     16474
     16471     16474     16477     16478     16471     16474     16477     16479
     16471     16474     16477     16480     16472     16471     16474     16475
     16472     16471     16474     16476     16472     16471     16474     16477
     16473     16471     16474     16475     16473     16471     16474     16476
     16473     16471     16474     16477     16474     16477     16480     16481
     16474     16477     16480     16482     16475     16474     16477     16478
     16475     16474     16477     16479     16475     16474     16477     16480
     16476     16474     16477     16478     16476     16474     16477     16479
     16476     16474     16477     16480     16477     16480     16482     16483
     16477     16480     16482     16484     16478     16477     16480     16481
     16478     16477     16480     16482     16479     16477     16480     16481
     16479     16477     16480     16482     16480     16482     16484     16485
     16480     16482     16484     16486     16480     16482     16484     16487
     16481     16480     16482     16483     16481     16480     16482     16484
     16482     16484     16487     16488     16482     16484     16487     16489
     16482     16484     16487     16490     16483     16482     16484     16485
     16483     16482     16484     16486     16483     16482     16484     16487
     16484     16487     16490     16491     16484     16487     16490     16492
     16484     16487     16490     16493     16485     16484     16487     16488
     16485     16484     16487     16489     16485     16484     16487     16490
     16486     16484     16487     16488     16486     16484     16487     16489
     16486     16484     16487     16490     16487     16490     16493     16494
     16487     16490     16493     16495     16487     16490     16493     16496
     16488     16487     16490     16491     16488     16487     16490     16492
     16488     16487     16490     16493     16489     16487     16490     16491
     16489     16487     16490     16492     16489     16487     16490     16493
     16490     16493     16496     16497     16490     16493     16496     16498
     16490     16493     16496     16499     16491     16490     16493     16494
     16491     16490     16493     16495     16491     16490     16493     16496
     16492     16490     16493     16494     16492     16490     16493     16495
     16492     16490     16493     16496     16493     16496     16499     16500
     16493     16496     16499     16501     16493     16496     16499     16502
     16494     16493     16496     16497     16494     16493     16496     16498
     16494     16493     16496     16499     16495     16493     16496     16497
     16495     16493     16496     16498     16495     16493     16496     16499
     16496     16499     16502     16503     16496     16499     16502     16504
     16496     16499     16502     16505     16497     16496     16499     16500
     16497     16496     16499     16501     16497     16496     16499     16502
     16498     16496     16499     16500     16498     16496     16499     16501
     16498     16496     16499     16502     16499     16502     16505     16506
     16499     16502     16505     16507     16499     16502     16505     16508
     16500     16499     16502     16503     16500     16499     16502     16504
     16500     16499     16502     16505     16501     16499     16502     16503
     16501     16499     16502     16504     16501     16499     16502     16505
     16503     16502     16505     16506     16503     16502     16505     16507
     16503     16502     16505     16508     16504     16502     16505     16506
     16504     16502     16505     16507     16504     16502     16505     16508
     16509     16510     16525     16526     16509     16510     16525     16527
     16509     16510     16525     16531     16510     16509     16513     16514
     16510     16509     16513     16515     16510     16509     16513     16516
     16510     16509     16517     16518     16510     16509     16517     16519
     16510     16509     16517     16520     16510     16509     16521     16522
     16510     16509     16521     16523     16510     16509     16521     16524
     16510     16525     16531     16528     16511     16510     16509     16513
     16511     16510     16509     16517     16511     16510     16509     16521
     16511     16510     16525     16526     16511     16510     16525     16527
     16511     16510     16525     16531     16512     16510     16509     16513
     16512     16510     16509     16517     16512     16510     16509     16521
     16512     16510     16525     16526     16512     16510     16525     16527
     16512     16510     16525     16531     16513     16509     16510     16525
     16513     16509     16517     16518     16513     16509     16517     16519
     16513     16509     16517     16520     16513     16509     16521     16522
     16513     16509     16521     16523     16513     16509     16521     16524
     16514     16513     16509     16517     16514     16513     16509     16521
     16515     16513     16509     16517     16515     16513     16509     16521
     16516     16513     16509     16517     16516     16513     16509     16521
     16517     16509     16510     16525     16517     16509     16521     16522
     16517     16509     16521     16523     16517     16509     16521     16524
     16518     16517     16509     16521     16519     16517     16509     16521
     16520     16517     16509     16521     16521     16509     16510     16525
     16525     16531     16528     16529     16525     16531     16528     16530
     16525     16531     16528     16532     16526     16525     16531     16528
     16527     16525     16531     16528     16528     16532     16533     16534
     16528     16532     16533     16535     16528     16532     16533     16536
     16529     16528     16532     16533     16530     16528     16532     16533
     16531     16528     16532     16533     16532     16533     16536     16537
     16532     16533     16536     16538     16532     16533     16536     16544
     16533     16536     16538     16539     16533     16536     16544     16545
     16533     16536     16544     16546     16533     16536     16544     16547
     16534     16533     16536     16537     16534     16533     16536     16538
     16534     16533     16536     16544     16535     16533     16536     16537
     16535     16533     16536     16538     16535     16533     16536     16544
     16536     16538     16539     16540     16536     16538     16539     16541
     16536     16544     16547     16548     16537     16536     16538     16539
     16537     16536     16544     16545     16537     16536     16544     16546
     16537     16536     16544     16547     16538     16536     16544     16545
     16538     16536     16544     16546     16538     16536     16544     16547
     16538     16539     16541     16542     16538     16539     16541     16543
     16538     16539     16541     16553     16539     16538     16536     16544
     16539     16541     16553     16554     16539     16541     16553     16555
     16539     16541     16553     16556     16540     16539     16541     16542
     16540     16539     16541     16543     16540     16539     16541     16553
     16541     16553     16556     16557     16541     16553     16556     16558
     16541     16553     16556     16559     16542     16541     16553     16554
     16542     16541     16553     16555     16542     16541     16553     16556
     16543     16541     16553     16554     16543     16541     16553     16555
     16543     16541     16553     16556     16544     16547     16548     16549
     16544     16547     16548     16550     16545     16544     16547     16548
     16546     16544     16547     16548     16547     16548     16550     16551
     16547     16548     16550     16552     16547     16548     16550     16600
     16548     16550     16600     16601     16548     16550     16600     16602
     16548     16550     16600     16603     16549     16548     16550     16551
     16549     16548     16550     16552     16549     16548     16550     16600
     16550     16600     16603     16604     16550     16600     16603     16605
     16550     16600     16603     16606     16551     16550     16600     16601
     16551     16550     16600     16602     16551     16550     16600     16603
     16552     16550     16600     16601     16552     16550     16600     16602
     16552     16550     16600     16603     16553     16556     16559     16560
     16553     16556     16559     16561     16553     16556     16559     16562
     16554     16553     16556     16557     16554     16553     16556     16558
     16554     16553     16556     16559     16555     16553     16556     16557
     16555     16553     16556     16558     16555     16553     16556     16559
     16556     16559     16562     16563     16556     16559     16562     16564
     16556     16559     16562     16565     16557     16556     16559     16560
     16557     16556     16559     16561     16557     16556     16559     16562
     16558     16556     16559     16560     16558     16556     16559     16561
     16558     16556     16559     16562     16559     16562     16565     16566
     16559     16562     16565     16567     16559     16562     16565     16568
     16560     16559     16562     16563     16560     16559     16562     16564
     16560     16559     16562     16565     16561     16559     16562     16563
     16561     16559     16562     16564     16561     16559     16562     16565
     16562     16565     16568     16569     16562     16565     16568     16570
     16562     16565     16568     16571     16563     16562     16565     16566
     16563     16562     16565     16567     16563     16562     16565     16568
     16564     16562     16565     16566     16564     16562     16565     16567
     16564     16562     16565     16568     16565     16568     16571     16572
     16565     16568     16571     16573     16566     16565     16568     16569
     16566     16565     16568     16570     16566     16565     16568     16571
     16567     16565     16568     16569     16567     16565     16568     16570
     16567     16565     16568     16571     16568     16571     16573     16574
     16568     16571     16573     16575     16569     16568     16571     16572
     16569     16568     16571     16573     16570     16568     16571     16572
     16570     16568     16571     16573     16571     16573     16575     16576
     16571     16573     16575     16577     16571     16573     16575     16578
     16572     16571     16573     16574     16572     16571     16573     16575
     16573     16575     16578     16579     16573     16575     16578     16580
     16573     16575     16578     16581     16574     16573     16575     16576
     16574     16573     16575     16577     16574     16573     16575     16578
     16575     16578     16581     16582     16575     16578     16581     16583
     16575     16578     16581     16584     16576     16575     16578     16579
     16576     16575     16578     16580     16576     16575     16578     16581
     16577     16575     16578     16579     16577     16575     16578     16580
     16577     16575     16578     16581     16578     16581     16584     16585
     16578     16581     16584     16586     16578     16581     16584     16587
     16579     16578     16581     16582     16579     16578     16581     16583
     16579     16578     16581     16584     16580     16578     16581     16582
     16580     16578     16581     16583     16580     16578     16581     16584
     16581     16584     16587     16588     16581     16584     16587     16589
     16581     16584     16587     16590     16582     16581     16584     16585
     16582     16581     16584     16586     16582     16581     16584     16587
     16583     16581     16584     16585     16583     16581     16584     16586
     16583     16581     16584     16587     16584     16587     16590     16591
     16584     16587     16590     16592     16584     16587     16590     16593
     16585     16584     16587     16588     16585     16584     16587     16589
     16585     16584     16587     16590     16586     16584     16587     16588
     16586     16584     16587     16589     16586     16584     16587     16590
     16587     16590     16593     16594     16587     16590     16593     16595
     16587     16590     16593     16596     16588     16587     16590     16591
     16588     16587     16590     16592     16588     16587     16590     16593
     16589     16587     16590     16591     16589     16587     16590     16592
     16589     16587     16590     16593     16590     16593     16596     16597
     16590     16593     16596     16598     16590     16593     16596     16599
     16591     16590     16593     16594     16591     16590     16593     16595
     16591     16590     16593     16596     16592     16590     16593     16594
     16592     16590     16593     16595     16592     16590     16593     16596
     16594     16593     16596     16597     16594     16593     16596     16598
     16594     16593     16596     16599     16595     16593     16596     16597
     16595     16593     16596     16598     16595     16593     16596     16599
     16600     16603     16606     16607     16600     16603     16606     16608
     16600     16603     16606     16609     16601     16600     16603     16604
     16601     16600     16603     16605     16601     16600     16603     16606
     16602     16600     16603     16604     16602     16600     16603     16605
     16602     16600     16603     16606     16603     16606     16609     16610
     16603     16606     16609     16611     16603     16606     16609     16612
     16604     16603     16606     16607     16604     16603     16606     16608
     16604     16603     16606     16609     16605     16603     16606     16607
     16605     16603     16606     16608     16605     16603     16606     16609
     16606     16609     16612     16613     16606     16609     16612     16614
     16606     16609     16612     16615     16607     16606     16609     16610
     16607     16606     16609     16611     16607     16606     16609     16612
     16608     16606     16609     16610     16608     16606     16609     16611
     16608     16606     16609     16612     16609     16612     16615     16616
     16609     16612     16615     16617     16609     16612     16615     16618
     16610     16609     16612     16613     16610     16609     16612     16614
     16610     16609     16612     16615     16611     16609     16612     16613
     16611     16609     16612     16614     16611     16609     16612     16615
     16612     16615     16618     16619     16612     16615     16618     16620
     16613     16612     16615     16616     16613     16612     16615     16617
     16613     16612     16615     16618     16614     16612     16615     16616
     16614     16612     16615     16617     16614     16612     16615     16618
     16615     16618     16620     16621     16615     16618     16620     16622
     16616     16615     16618     16619     16616     16615     16618     16620
     16617     16615     16618     16619     16617     16615     16618     16620
     16618     16620     16622     16623     16618     16620     16622     16624
     16618     16620     16622     16625     16619     16618     16620     16621
     16619     16618     16620     16622     16620     16622     16625     16626
     16620     16622     16625     16627     16620     16622     16625     16628
     16621     16620     16622     16623     16621     16620     16622     16624
     16621     16620     16622     16625     16622     16625     16628     16629
     16622     16625     16628     16630     16622     16625     16628     16631
     16623     16622     16625     16626     16623     16622     16625     16627
     16623     16622     16625     16628     16624     16622     16625     16626
     16624     16622     16625     16627     16624     16622     16625     16628
     16625     16628     16631     16632     16625     16628     16631     16633
     16625     16628     16631     16634     16626     16625     16628     16629
     16626     16625     16628     16630     16626     16625     16628     16631
     16627     16625     16628     16629     16627     16625     16628     16630
     16627     16625     16628     16631     16628     16631     16634     16635
     16628     16631     16634     16636     16628     16631     16634     16637
     16629     16628     16631     16632     16629     16628     16631     16633
     16629     16628     16631     16634     16630     16628     16631     16632
     16630     16628     16631     16633     16630     16628     16631     16634
     16631     16634     16637     16638     16631     16634     16637     16639
     16631     16634     16637     16640     16632     16631     16634     16635
     16632     16631     16634     16636     16632     16631     16634     16637
     16633     16631     16634     16635     16633     16631     16634     16636
     16633     16631     16634     16637     16634     16637     16640     16641
     16634     16637     16640     16642     16634     16637     16640     16643
     16635     16634     16637     16638     16635     16634     16637     16639
     16635     16634     16637     16640     16636     16634     16637     16638
     16636     16634     16637     16639     16636     16634     16637     16640
     16637     16640     16643     16644     16637     16640     16643     16645
     16637     16640     16643     16646     16638     16637     16640     16641
     16638     16637     16640     16642     16638     16637     16640     16643
     16639     16637     16640     16641     16639     16637     16640     16642
     16639     16637     16640     16643     16641     16640     16643     16644
     16641     16640     16643     16645     16641     16640     16643     16646
     16642     16640     16643     16644     16642     16640     16643     16645
     16642     16640     16643     16646     16647     16648     16663     16664
     16647     16648     16663     16665     16647     16648     16663     16669
     16648     16647     16651     16652     16648     16647     16651     16653
     16648     16647     16651     16654     16648     16647     16655     16656
     16648     16647     16655     16657     16648     16647     16655     16658
     16648     16647     16659     16660     16648     16647     16659     16661
     16648     16647     16659     16662     16648     16663     16669     16666
     16649     16648     16647     16651     16649     16648     16647     16655
     16649     16648     16647     16659     16649     16648     16663     16664
     16649     16648     16663     16665     16649     16648     16663     16669
     16650     16648     16647     16651     16650     16648     16647     16655
     16650     16648     16647     16659     16650     16648     16663     16664
     16650     16648     16663     16665     16650     16648     16663     16669
     16651     16647     16648     16663     16651     16647     16655     16656
     16651     16647     16655     16657     16651     16647     16655     16658
     16651     16647     16659     16660     16651     16647     16659     16661
     16651     16647     16659     16662     16652     16651     16647     16655
     16652     16651     16647     16659     16653     16651     16647     16655
     16653     16651     16647     16659     16654     16651     16647     16655
     16654     16651     16647     16659     16655     16647     16648     16663
     16655     16647     16659     16660     16655     16647     16659     16661
     16655     16647     16659     16662     16656     16655     16647     16659
     16657     16655     16647     16659     16658     16655     16647     16659
     16659     16647     16648     16663     16663     16669     16666     16667
     16663     16669     16666     16668     16663     16669     16666     16670
     16664     16663     16669     16666     16665     16663     16669     16666
     16666     16670     16671     16672     16666     16670     16671     16673
     16666     16670     16671     16674     16667     16666     16670     16671
     16668     16666     16670     16671     16669     16666     16670     16671
     16670     16671     16674     16675     16670     16671     16674     16676
     16670     16671     16674     16682     16671     16674     16676     16677
     16671     16674     16682     16683     16671     16674     16682     16684
     16671     16674     16682     16685     16672     16671     16674     16675
     16672     16671     16674     16676     16672     16671     16674     16682
     16673     16671     16674     16675     16673     16671     16674     16676
     16673     16671     16674     16682     16674     16676     16677     16678
     16674     16676     16677     16679     16674     16682     16685     16686
     16675     16674     16676     16677     16675     16674     16682     16683
     16675     16674     16682     16684     16675     16674     16682     16685
     16676     16674     16682     16683     16676     16674     16682     16684
     16676     16674     16682     16685     16676     16677     16679     16680
     16676     16677     16679     16681     16676     16677     16679     16691
     16677     16676     16674     16682     16677     16679     16691     16692
     16677     16679     16691     16693     16677     16679     16691     16694
     16678     16677     16679     16680     16678     16677     16679     16681
     16678     16677     16679     16691     16679     16691     16694     16695
     16679     16691     16694     16696     16679     16691     16694     16697
     16680     16679     16691     16692     16680     16679     16691     16693
     16680     16679     16691     16694     16681     16679     16691     16692
     16681     16679     16691     16693     16681     16679     16691     16694
     16682     16685     16686     16687     16682     16685     16686     16688
     16683     16682     16685     16686     16684     16682     16685     16686
     16685     16686     16688     16689     16685     16686     16688     16690
     16685     16686     16688     16738     16686     16688     16738     16739
     16686     16688     16738     16740     16686     16688     16738     16741
     16687     16686     16688     16689     16687     16686     16688     16690
     16687     16686     16688     16738     16688     16738     16741     16742
     16688     16738     16741     16743     16688     16738     16741     16744
     16689     16688     16738     16739     16689     16688     16738     16740
     16689     16688     16738     16741     16690     16688     16738     16739
     16690     16688     16738     16740     16690     16688     16738     16741
     16691     16694     16697     16698     16691     16694     16697     16699
     16691     16694     16697     16700     16692     16691     16694     16695
     16692     16691     16694     16696     16692     16691     16694     16697
     16693     16691     16694     16695     16693     16691     16694     16696
     16693     16691     16694     16697     16694     16697     16700     16701
     16694     16697     16700     16702     16694     16697     16700     16703
     16695     16694     16697     16698     16695     16694     16697     16699
     16695     16694     16697     16700     16696     16694     16697     16698
     16696     16694     16697     16699     16696     16694     16697     16700
     16697     16700     16703     16704     16697     16700     16703     16705
     16697     16700     16703     16706     16698     16697     16700     16701
     16698     16697     16700     16702     16698     16697     16700     16703
     16699     16697     16700     16701     16699     16697     16700     16702
     16699     16697     16700     16703     16700     16703     16706     16707
     16700     16703     16706     16708     16700     16703     16706     16709
     16701     16700     16703     16704     16701     16700     16703     16705
     16701     16700     16703     16706     16702     16700     16703     16704
     16702     16700     16703     16705     16702     16700     16703     16706
     16703     16706     16709     16710     16703     16706     16709     16711
     16704     16703     16706     16707     16704     16703     16706     16708
     16704     16703     16706     16709     16705     16703     16706     16707
     16705     16703     16706     16708     16705     16703     16706     16709
     16706     16709     16711     16712     16706     16709     16711     16713
     16707     16706     16709     16710     16707     16706     16709     16711
     16708     16706     16709     16710     16708     16706     16709     16711
     16709     16711     16713     16714     16709     16711     16713     16715
     16709     16711     16713     16716     16710     16709     16711     16712
     16710     16709     16711     16713     16711     16713     16716     16717
     16711     16713     16716     16718     16711     16713     16716     16719
     16712     16711     16713     16714     16712     16711     16713     16715
     16712     16711     16713     16716     16713     16716     16719     16720
     16713     16716     16719     16721     16713     16716     16719     16722
     16714     16713     16716     16717     16714     16713     16716     16718
     16714     16713     16716     16719     16715     16713     16716     16717
     16715     16713     16716     16718     16715     16713     16716     16719
     16716     16719     16722     16723     16716     16719     16722     16724
     16716     16719     16722     16725     16717     16716     16719     16720
     16717     16716     16719     16721     16717     16716     16719     16722
     16718     16716     16719     16720     16718     16716     16719     16721
     16718     16716     16719     16722     16719     16722     16725     16726
     16719     16722     16725     16727     16719     16722     16725     16728
     16720     16719     16722     16723     16720     16719     16722     16724
     16720     16719     16722     16725     16721     16719     16722     16723
     16721     16719     16722     16724     16721     16719     16722     16725
     16722     16725     16728     16729     16722     16725     16728     16730
     16722     16725     16728     16731     16723     16722     16725     16726
     16723     16722     16725     16727     16723     16722     16725     16728
     16724     16722     16725     16726     16724     16722     16725     16727
     16724     16722     16725     16728     16725     16728     16731     16732
     16725     16728     16731     16733     16725     16728     16731     16734
     16726     16725     16728     16729     16726     16725     16728     16730
     16726     16725     16728     16731     16727     16725     16728     16729
     16727     16725     16728     16730     16727     16725     16728     16731
     16728     16731     16734     16735     16728     16731     16734     16736
     16728     16731     16734     16737     16729     16728     16731     16732
     16729     16728     16731     16733     16729     16728     16731     16734
     16730     16728     16731     16732     16730     16728     16731     16733
     16730     16728     16731     16734     16732     16731     16734     16735
     16732     16731     16734     16736     16732     16731     16734     16737
     16733     16731     16734     16735     16733     16731     16734     16736
     16733     16731     16734     16737     16738     16741     16744     16745
     16738     16741     16744     16746     16738     16741     16744     16747
     16739     16738     16741     16742     16739     16738     16741     16743
     16739     16738     16741     16744     16740     16738     16741     16742
     16740     16738     16741     16743     16740     16738     16741     16744
     16741     16744     16747     16748     16741     16744     16747     16749
     16741     16744     16747     16750     16742     16741     16744     16745
     16742     16741     16744     16746     16742     16741     16744     16747
     16743     16741     16744     16745     16743     16741     16744     16746
     16743     16741     16744     16747     16744     16747     16750     16751
     16744     16747     16750     16752     16744     16747     16750     16753
     16745     16744     16747     16748     16745     16744     16747     16749
     16745     16744     16747     16750     16746     16744     16747     16748
     16746     16744     16747     16749     16746     16744     16747     16750
     16747     16750     16753     16754     16747     16750     16753     16755
     16747     16750     16753     16756     16748     16747     16750     16751
     16748     16747     16750     16752     16748     16747     16750     16753
     16749     16747     16750     16751     16749     16747     16750     16752
     16749     16747     16750     16753     16750     16753     16756     16757
     16750     16753     16756     16758     16751     16750     16753     16754
     16751     16750     16753     16755     16751     16750     16753     16756
     16752     16750     16753     16754     16752     16750     16753     16755
     16752     16750     16753     16756     16753     16756     16758     16759
     16753     16756     16758     16760     16754     16753     16756     16757
     16754     16753     16756     16758     16755     16753     16756     16757
     16755     16753     16756     16758     16756     16758     16760     16761
     16756     16758     16760     16762     16756     16758     16760     16763
     16757     16756     16758     16759     16757     16756     16758     16760
     16758     16760     16763     16764     16758     16760     16763     16765
     16758     16760     16763     16766     16759     16758     16760     16761
     16759     16758     16760     16762     16759     16758     16760     16763
     16760     16763     16766     16767     16760     16763     16766     16768
     16760     16763     16766     16769     16761     16760     16763     16764
     16761     16760     16763     16765     16761     16760     16763     16766
     16762     16760     16763     16764     16762     16760     16763     16765
     16762     16760     16763     16766     16763     16766     16769     16770
     16763     16766     16769     16771     16763     16766     16769     16772
     16764     16763     16766     16767     16764     16763     16766     16768
     16764     16763     16766     16769     16765     16763     16766     16767
     16765     16763     16766     16768     16765     16763     16766     16769
     16766     16769     16772     16773     16766     16769     16772     16774
     16766     16769     16772     16775     16767     16766     16769     16770
     16767     16766     16769     16771     16767     16766     16769     16772
     16768     16766     16769     16770     16768     16766     16769     16771
     16768     16766     16769     16772     16769     16772     16775     16776
     16769     16772     16775     16777     16769     16772     16775     16778
     16770     16769     16772     16773     16770     16769     16772     16774
     16770     16769     16772     16775     16771     16769     16772     16773
     16771     16769     16772     16774     16771     16769     16772     16775
     16772     16775     16778     16779     16772     16775     16778     16780
     16772     16775     16778     16781     16773     16772     16775     16776
     16773     16772     16775     16777     16773     16772     16775     16778
     16774     16772     16775     16776     16774     16772     16775     16777
     16774     16772     16775     16778     16775     16778     16781     16782
     16775     16778     16781     16783     16775     16778     16781     16784
     16776     16775     16778     16779     16776     16775     16778     16780
     16776     16775     16778     16781     16777     16775     16778     16779
     16777     16775     16778     16780     16777     16775     16778     16781
     16779     16778     16781     16782     16779     16778     16781     16783
     16779     16778     16781     16784     16780     16778     16781     16782
     16780     16778     16781     16783     16780     16778     16781     16784
     16785     16786     16801     16802     16785     16786     16801     16803
     16785     16786     16801     16807     16786     16785     16789     16790
     16786     16785     16789     16791     16786     16785     16789     16792
     16786     16785     16793     16794     16786     16785     16793     16795
     16786     16785     16793     16796     16786     16785     16797     16798
     16786     16785     16797     16799     16786     16785     16797     16800
     16786     16801     16807     16804     16787     16786     16785     16789
     16787     16786     16785     16793     16787     16786     16785     16797
     16787     16786     16801     16802     16787     16786     16801     16803
     16787     16786     16801     16807     16788     16786     16785     16789
     16788     16786     16785     16793     16788     16786     16785     16797
     16788     16786     16801     16802     16788     16786     16801     16803
     16788     16786     16801     16807     16789     16785     16786     16801
     16789     16785     16793     16794     16789     16785     16793     16795
     16789     16785     16793     16796     16789     16785     16797     16798
     16789     16785     16797     16799     16789     16785     16797     16800
     16790     16789     16785     16793     16790     16789     16785     16797
     16791     16789     16785     16793     16791     16789     16785     16797
     16792     16789     16785     16793     16792     16789     16785     16797
     16793     16785     16786     16801     16793     16785     16797     16798
     16793     16785     16797     16799     16793     16785     16797     16800
     16794     16793     16785     16797     16795     16793     16785     16797
     16796     16793     16785     16797     16797     16785     16786     16801
     16801     16807     16804     16805     16801     16807     16804     16806
     16801     16807     16804     16808     16802     16801     16807     16804
     16803     16801     16807     16804     16804     16808     16809     16810
     16804     16808     16809     16811     16804     16808     16809     16812
     16805     16804     16808     16809     16806     16804     16808     16809
     16807     16804     16808     16809     16808     16809     16812     16813
     16808     16809     16812     16814     16808     16809     16812     16820
     16809     16812     16814     16815     16809     16812     16820     16821
     16809     16812     16820     16822     16809     16812     16820     16823
     16810     16809     16812     16813     16810     16809     16812     16814
     16810     16809     16812     16820     16811     16809     16812     16813
     16811     16809     16812     16814     16811     16809     16812     16820
     16812     16814     16815     16816     16812     16814     16815     16817
     16812     16820     16823     16824     16813     16812     16814     16815
     16813     16812     16820     16821     16813     16812     16820     16822
     16813     16812     16820     16823     16814     16812     16820     16821
     16814     16812     16820     16822     16814     16812     16820     16823
     16814     16815     16817     16818     16814     16815     16817     16819
     16814     16815     16817     16829     16815     16814     16812     16820
     16815     16817     16829     16830     16815     16817     16829     16831
     16815     16817     16829     16832     16816     16815     16817     16818
     16816     16815     16817     16819     16816     16815     16817     16829
     16817     16829     16832     16833     16817     16829     16832     16834
     16817     16829     16832     16835     16818     16817     16829     16830
     16818     16817     16829     16831     16818     16817     16829     16832
     16819     16817     16829     16830     16819     16817     16829     16831
     16819     16817     16829     16832     16820     16823     16824     16825
     16820     16823     16824     16826     16821     16820     16823     16824
     16822     16820     16823     16824     16823     16824     16826     16827
     16823     16824     16826     16828     16823     16824     16826     16876
     16824     16826     16876     16877     16824     16826     16876     16878
     16824     16826     16876     16879     16825     16824     16826     16827
     16825     16824     16826     16828     16825     16824     16826     16876
     16826     16876     16879     16880     16826     16876     16879     16881
     16826     16876     16879     16882     16827     16826     16876     16877
     16827     16826     16876     16878     16827     16826     16876     16879
     16828     16826     16876     16877     16828     16826     16876     16878
     16828     16826     16876     16879     16829     16832     16835     16836
     16829     16832     16835     16837     16829     16832     16835     16838
     16830     16829     16832     16833     16830     16829     16832     16834
     16830     16829     16832     16835     16831     16829     16832     16833
     16831     16829     16832     16834     16831     16829     16832     16835
     16832     16835     16838     16839     16832     16835     16838     16840
     16832     16835     16838     16841     16833     16832     16835     16836
     16833     16832     16835     16837     16833     16832     16835     16838
     16834     16832     16835     16836     16834     16832     16835     16837
     16834     16832     16835     16838     16835     16838     16841     16842
     16835     16838     16841     16843     16835     16838     16841     16844
     16836     16835     16838     16839     16836     16835     16838     16840
     16836     16835     16838     16841     16837     16835     16838     16839
     16837     16835     16838     16840     16837     16835     16838     16841
     16838     16841     16844     16845     16838     16841     16844     16846
     16838     16841     16844     16847     16839     16838     16841     16842
     16839     16838     16841     16843     16839     16838     16841     16844
     16840     16838     16841     16842     16840     16838     16841     16843
     16840     16838     16841     16844     16841     16844     16847     16848
     16841     16844     16847     16849     16842     16841     16844     16845
     16842     16841     16844     16846     16842     16841     16844     16847
     16843     16841     16844     16845     16843     16841     16844     16846
     16843     16841     16844     16847     16844     16847     16849     16850
     16844     16847     16849     16851     16845     16844     16847     16848
     16845     16844     16847     16849     16846     16844     16847     16848
     16846     16844     16847     16849     16847     16849     16851     16852
     16847     16849     16851     16853     16847     16849     16851     16854
     16848     16847     16849     16850     16848     16847     16849     16851
     16849     16851     16854     16855     16849     16851     16854     16856
     16849     16851     16854     16857     16850     16849     16851     16852
     16850     16849     16851     16853     16850     16849     16851     16854
     16851     16854     16857     16858     16851     16854     16857     16859
     16851     16854     16857     16860     16852     16851     16854     16855
     16852     16851     16854     16856     16852     16851     16854     16857
     16853     16851     16854     16855     16853     16851     16854     16856
     16853     16851     16854     16857     16854     16857     16860     16861
     16854     16857     16860     16862     16854     16857     16860     16863
     16855     16854     16857     16858     16855     16854     16857     16859
     16855     16854     16857     16860     16856     16854     16857     16858
     16856     16854     16857     16859     16856     16854     16857     16860
     16857     16860     16863     16864     16857     16860     16863     16865
     16857     16860     16863     16866     16858     16857     16860     16861
     16858     16857     16860     16862     16858     16857     16860     16863
     16859     16857     16860     16861     16859     16857     16860     16862
     16859     16857     16860     16863     16860     16863     16866     16867
     16860     16863     16866     16868     16860     16863     16866     16869
     16861     16860     16863     16864     16861     16860     16863     16865
     16861     16860     16863     16866     16862     16860     16863     16864
     16862     16860     16863     16865     16862     16860     16863     16866
     16863     16866     16869     16870     16863     16866     16869     16871
     16863     16866     16869     16872     16864     16863     16866     16867
     16864     16863     16866     16868     16864     16863     16866     16869
     16865     16863     16866     16867     16865     16863     16866     16868
     16865     16863     16866     16869     16866     16869     16872     16873
     16866     16869     16872     16874     16866     16869     16872     16875
     16867     16866     16869     16870     16867     16866     16869     16871
     16867     16866     16869     16872     16868     16866     16869     16870
     16868     16866     16869     16871     16868     16866     16869     16872
     16870     16869     16872     16873     16870     16869     16872     16874
     16870     16869     16872     16875     16871     16869     16872     16873
     16871     16869     16872     16874     16871     16869     16872     16875
     16876     16879     16882     16883     16876     16879     16882     16884
     16876     16879     16882     16885     16877     16876     16879     16880
     16877     16876     16879     16881     16877     16876     16879     16882
     16878     16876     16879     16880     16878     16876     16879     16881
     16878     16876     16879     16882     16879     16882     16885     16886
     16879     16882     16885     16887     16879     16882     16885     16888
     16880     16879     16882     16883     16880     16879     16882     16884
     16880     16879     16882     16885     16881     16879     16882     16883
     16881     16879     16882     16884     16881     16879     16882     16885
     16882     16885     16888     16889     16882     16885     16888     16890
     16882     16885     16888     16891     16883     16882     16885     16886
     16883     16882     16885     16887     16883     16882     16885     16888
     16884     16882     16885     16886     16884     16882     16885     16887
     16884     16882     16885     16888     16885     16888     16891     16892
     16885     16888     16891     16893     16885     16888     16891     16894
     16886     16885     16888     16889     16886     16885     16888     16890
     16886     16885     16888     16891     16887     16885     16888     16889
     16887     16885     16888     16890     16887     16885     16888     16891
     16888     16891     16894     16895     16888     16891     16894     16896
     16889     16888     16891     16892     16889     16888     16891     16893
     16889     16888     16891     16894     16890     16888     16891     16892
     16890     16888     16891     16893     16890     16888     16891     16894
     16891     16894     16896     16897     16891     16894     16896     16898
     16892     16891     16894     16895     16892     16891     16894     16896
     16893     16891     16894     16895     16893     16891     16894     16896
     16894     16896     16898     16899     16894     16896     16898     16900
     16894     16896     16898     16901     16895     16894     16896     16897
     16895     16894     16896     16898     16896     16898     16901     16902
     16896     16898     16901     16903     16896     16898     16901     16904
     16897     16896     16898     16899     16897     16896     16898     16900
     16897     16896     16898     16901     16898     16901     16904     16905
     16898     16901     16904     16906     16898     16901     16904     16907
     16899     16898     16901     16902     16899     16898     16901     16903
     16899     16898     16901     16904     16900     16898     16901     16902
     16900     16898     16901     16903     16900     16898     16901     16904
     16901     16904     16907     16908     16901     16904     16907     16909
     16901     16904     16907     16910     16902     16901     16904     16905
     16902     16901     16904     16906     16902     16901     16904     16907
     16903     16901     16904     16905     16903     16901     16904     16906
     16903     16901     16904     16907     16904     16907     16910     16911
     16904     16907     16910     16912     16904     16907     16910     16913
     16905     16904     16907     16908     16905     16904     16907     16909
     16905     16904     16907     16910     16906     16904     16907     16908
     16906     16904     16907     16909     16906     16904     16907     16910
     16907     16910     16913     16914     16907     16910     16913     16915
     16907     16910     16913     16916     16908     16907     16910     16911
     16908     16907     16910     16912     16908     16907     16910     16913
     16909     16907     16910     16911     16909     16907     16910     16912
     16909     16907     16910     16913     16910     16913     16916     16917
     16910     16913     16916     16918     16910     16913     16916     16919
     16911     16910     16913     16914     16911     16910     16913     16915
     16911     16910     16913     16916     16912     16910     16913     16914
     16912     16910     16913     16915     16912     16910     16913     16916
     16913     16916     16919     16920     16913     16916     16919     16921
     16913     16916     16919     16922     16914     16913     16916     16917
     16914     16913     16916     16918     16914     16913     16916     16919
     16915     16913     16916     16917     16915     16913     16916     16918
     16915     16913     16916     16919     16917     16916     16919     16920
     16917     16916     16919     16921     16917     16916     16919     16922
     16918     16916     16919     16920     16918     16916     16919     16921
     16918     16916     16919     16922     16923     16924     16939     16940
     16923     16924     16939     16941     16923     16924     16939     16945
     16924     16923     16927     16928     16924     16923     16927     16929
     16924     16923     16927     16930     16924     16923     16931     16932
     16924     16923     16931     16933     16924     16923     16931     16934
     16924     16923     16935     16936     16924     16923     16935     16937
     16924     16923     16935     16938     16924     16939     16945     16942
     16925     16924     16923     16927     16925     16924     16923     16931
     16925     16924     16923     16935     16925     16924     16939     16940
     16925     16924     16939     16941     16925     16924     16939     16945
     16926     16924     16923     16927     16926     16924     16923     16931
     16926     16924     16923     16935     16926     16924     16939     16940
     16926     16924     16939     16941     16926     16924     16939     16945
     16927     16923     16924     16939     16927     16923     16931     16932
     16927     16923     16931     16933     16927     16923     16931     16934
     16927     16923     16935     16936     16927     16923     16935     16937
     16927     16923     16935     16938     16928     16927     16923     16931
     16928     16927     16923     16935     16929     16927     16923     16931
     16929     16927     16923     16935     16930     16927     16923     16931
     16930     16927     16923     16935     16931     16923     16924     16939
     16931     16923     16935     16936     16931     16923     16935     16937
     16931     16923     16935     16938     16932     16931     16923     16935
     16933     16931     16923     16935     16934     16931     16923     16935
     16935     16923     16924     16939     16939     16945     16942     16943
     16939     16945     16942     16944     16939     16945     16942     16946
     16940     16939     16945     16942     16941     16939     16945     16942
     16942     16946     16947     16948     16942     16946     16947     16949
     16942     16946     16947     16950     16943     16942     16946     16947
     16944     16942     16946     16947     16945     16942     16946     16947
     16946     16947     16950     16951     16946     16947     16950     16952
     16946     16947     16950     16958     16947     16950     16952     16953
     16947     16950     16958     16959     16947     16950     16958     16960
     16947     16950     16958     16961     16948     16947     16950     16951
     16948     16947     16950     16952     16948     16947     16950     16958
     16949     16947     16950     16951     16949     16947     16950     16952
     16949     16947     16950     16958     16950     16952     16953     16954
     16950     16952     16953     16955     16950     16958     16961     16962
     16951     16950     16952     16953     16951     16950     16958     16959
     16951     16950     16958     16960     16951     16950     16958     16961
     16952     16950     16958     16959     16952     16950     16958     16960
     16952     16950     16958     16961     16952     16953     16955     16956
     16952     16953     16955     16957     16952     16953     16955     16967
     16953     16952     16950     16958     16953     16955     16967     16968
     16953     16955     16967     16969     16953     16955     16967     16970
     16954     16953     16955     16956     16954     16953     16955     16957
     16954     16953     16955     16967     16955     16967     16970     16971
     16955     16967     16970     16972     16955     16967     16970     16973
     16956     16955     16967     16968     16956     16955     16967     16969
     16956     16955     16967     16970     16957     16955     16967     16968
     16957     16955     16967     16969     16957     16955     16967     16970
     16958     16961     16962     16963     16958     16961     16962     16964
     16959     16958     16961     16962     16960     16958     16961     16962
     16961     16962     16964     16965     16961     16962     16964     16966
     16961     16962     16964     17014     16962     16964     17014     17015
     16962     16964     17014     17016     16962     16964     17014     17017
     16963     16962     16964     16965     16963     16962     16964     16966
     16963     16962     16964     17014     16964     17014     17017     17018
     16964     17014     17017     17019     16964     17014     17017     17020
     16965     16964     17014     17015     16965     16964     17014     17016
     16965     16964     17014     17017     16966     16964     17014     17015
     16966     16964     17014     17016     16966     16964     17014     17017
     16967     16970     16973     16974     16967     16970     16973     16975
     16967     16970     16973     16976     16968     16967     16970     16971
     16968     16967     16970     16972     16968     16967     16970     16973
     16969     16967     16970     16971     16969     16967     16970     16972
     16969     16967     16970     16973     16970     16973     16976     16977
     16970     16973     16976     16978     16970     16973     16976     16979
     16971     16970     16973     16974     16971     16970     16973     16975
     16971     16970     16973     16976     16972     16970     16973     16974
     16972     16970     16973     16975     16972     16970     16973     16976
     16973     16976     16979     16980     16973     16976     16979     16981
     16973     16976     16979     16982     16974     16973     16976     16977
     16974     16973     16976     16978     16974     16973     16976     16979
     16975     16973     16976     16977     16975     16973     16976     16978
     16975     16973     16976     16979     16976     16979     16982     16983
     16976     16979     16982     16984     16976     16979     16982     16985
     16977     16976     16979     16980     16977     16976     16979     16981
     16977     16976     16979     16982     16978     16976     16979     16980
     16978     16976     16979     16981     16978     16976     16979     16982
     16979     16982     16985     16986     16979     16982     16985     16987
     16980     16979     16982     16983     16980     16979     16982     16984
     16980     16979     16982     16985     16981     16979     16982     16983
     16981     16979     16982     16984     16981     16979     16982     16985
     16982     16985     16987     16988     16982     16985     16987     16989
     16983     16982     16985     16986     16983     16982     16985     16987
     16984     16982     16985     16986     16984     16982     16985     16987
     16985     16987     16989     16990     16985     16987     16989     16991
     16985     16987     16989     16992     16986     16985     16987     16988
     16986     16985     16987     16989     16987     16989     16992     16993
     16987     16989     16992     16994     16987     16989     16992     16995
     16988     16987     16989     16990     16988     16987     16989     16991
     16988     16987     16989     16992     16989     16992     16995     16996
     16989     16992     16995     16997     16989     16992     16995     16998
     16990     16989     16992     16993     16990     16989     16992     16994
     16990     16989     16992     16995     16991     16989     16992     16993
     16991     16989     16992     16994     16991     16989     16992     16995
     16992     16995     16998     16999     16992     16995     16998     17000
     16992     16995     16998     17001     16993     16992     16995     16996
     16993     16992     16995     16997     16993     16992     16995     16998
     16994     16992     16995     16996     16994     16992     16995     16997
     16994     16992     16995     16998     16995     16998     17001     17002
     16995     16998     17001     17003     16995     16998     17001     17004
     16996     16995     16998     16999     16996     16995     16998     17000
     16996     16995     16998     17001     16997     16995     16998     16999
     16997     16995     16998     17000     16997     16995     16998     17001
     16998     17001     17004     17005     16998     17001     17004     17006
     16998     17001     17004     17007     16999     16998     17001     17002
     16999     16998     17001     17003     16999     16998     17001     17004
     17000     16998     17001     17002     17000     16998     17001     17003
     17000     16998     17001     17004     17001     17004     17007     17008
     17001     17004     17007     17009     17001     17004     17007     17010
     17002     17001     17004     17005     17002     17001     17004     17006
     17002     17001     17004     17007     17003     17001     17004     17005
     17003     17001     17004     17006     17003     17001     17004     17007
     17004     17007     17010     17011     17004     17007     17010     17012
     17004     17007     17010     17013     17005     17004     17007     17008
     17005     17004     17007     17009     17005     17004     17007     17010
     17006     17004     17007     17008     17006     17004     17007     17009
     17006     17004     17007     17010     17008     17007     17010     17011
     17008     17007     17010     17012     17008     17007     17010     17013
     17009     17007     17010     17011     17009     17007     17010     17012
     17009     17007     17010     17013     17014     17017     17020     17021
     17014     17017     17020     17022     17014     17017     17020     17023
     17015     17014     17017     17018     17015     17014     17017     17019
     17015     17014     17017     17020     17016     17014     17017     17018
     17016     17014     17017     17019     17016     17014     17017     17020
     17017     17020     17023     17024     17017     17020     17023     17025
     17017     17020     17023     17026     17018     17017     17020     17021
     17018     17017     17020     17022     17018     17017     17020     17023
     17019     17017     17020     17021     17019     17017     17020     17022
     17019     17017     17020     17023     17020     17023     17026     17027
     17020     17023     17026     17028     17020     17023     17026     17029
     17021     17020     17023     17024     17021     17020     17023     17025
     17021     17020     17023     17026     17022     17020     17023     17024
     17022     17020     17023     17025     17022     17020     17023     17026
     17023     17026     17029     17030     17023     17026     17029     17031
     17023     17026     17029     17032     17024     17023     17026     17027
     17024     17023     17026     17028     17024     17023     17026     17029
     17025     17023     17026     17027     17025     17023     17026     17028
     17025     17023     17026     17029     17026     17029     17032     17033
     17026     17029     17032     17034     17027     17026     17029     17030
     17027     17026     17029     17031     17027     17026     17029     17032
     17028     17026     17029     17030     17028     17026     17029     17031
     17028     17026     17029     17032     17029     17032     17034     17035
     17029     17032     17034     17036     17030     17029     17032     17033
     17030     17029     17032     17034     17031     17029     17032     17033
     17031     17029     17032     17034     17032     17034     17036     17037
     17032     17034     17036     17038     17032     17034     17036     17039
     17033     17032     17034     17035     17033     17032     17034     17036
     17034     17036     17039     17040     17034     17036     17039     17041
     17034     17036     17039     17042     17035     17034     17036     17037
     17035     17034     17036     17038     17035     17034     17036     17039
     17036     17039     17042     17043     17036     17039     17042     17044
     17036     17039     17042     17045     17037     17036     17039     17040
     17037     17036     17039     17041     17037     17036     17039     17042
     17038     17036     17039     17040     17038     17036     17039     17041
     17038     17036     17039     17042     17039     17042     17045     17046
     17039     17042     17045     17047     17039     17042     17045     17048
     17040     17039     17042     17043     17040     17039     17042     17044
     17040     17039     17042     17045     17041     17039     17042     17043
     17041     17039     17042     17044     17041     17039     17042     17045
     17042     17045     17048     17049     17042     17045     17048     17050
     17042     17045     17048     17051     17043     17042     17045     17046
     17043     17042     17045     17047     17043     17042     17045     17048
     17044     17042     17045     17046     17044     17042     17045     17047
     17044     17042     17045     17048     17045     17048     17051     17052
     17045     17048     17051     17053     17045     17048     17051     17054
     17046     17045     17048     17049     17046     17045     17048     17050
     17046     17045     17048     17051     17047     17045     17048     17049
     17047     17045     17048     17050     17047     17045     17048     17051
     17048     17051     17054     17055     17048     17051     17054     17056
     17048     17051     17054     17057     17049     17048     17051     17052
     17049     17048     17051     17053     17049     17048     17051     17054
     17050     17048     17051     17052     17050     17048     17051     17053
     17050     17048     17051     17054     17051     17054     17057     17058
     17051     17054     17057     17059     17051     17054     17057     17060
     17052     17051     17054     17055     17052     17051     17054     17056
     17052     17051     17054     17057     17053     17051     17054     17055
     17053     17051     17054     17056     17053     17051     17054     17057
     17055     17054     17057     17058     17055     17054     17057     17059
     17055     17054     17057     17060     17056     17054     17057     17058
     17056     17054     17057     17059     17056     17054     17057     17060
     17061     17062     17077     17078     17061     17062     17077     17079
     17061     17062     17077     17083     17062     17061     17065     17066
     17062     17061     17065     17067     17062     17061     17065     17068
     17062     17061     17069     17070     17062     17061     17069     17071
     17062     17061     17069     17072     17062     17061     17073     17074
     17062     17061     17073     17075     17062     17061     17073     17076
     17062     17077     17083     17080     17063     17062     17061     17065
     17063     17062     17061     17069     17063     17062     17061     17073
     17063     17062     17077     17078     17063     17062     17077     17079
     17063     17062     17077     17083     17064     17062     17061     17065
     17064     17062     17061     17069     17064     17062     17061     17073
     17064     17062     17077     17078     17064     17062     17077     17079
     17064     17062     17077     17083     17065     17061     17062     17077
     17065     17061     17069     17070     17065     17061     17069     17071
     17065     17061     17069     17072     17065     17061     17073     17074
     17065     17061     17073     17075     17065     17061     17073     17076
     17066     17065     17061     17069     17066     17065     17061     17073
     17067     17065     17061     17069     17067     17065     17061     17073
     17068     17065     17061     17069     17068     17065     17061     17073
     17069     17061     17062     17077     17069     17061     17073     17074
     17069     17061     17073     17075     17069     17061     17073     17076
     17070     17069     17061     17073     17071     17069     17061     17073
     17072     17069     17061     17073     17073     17061     17062     17077
     17077     17083     17080     17081     17077     17083     17080     17082
     17077     17083     17080     17084     17078     17077     17083     17080
     17079     17077     17083     17080     17080     17084     17085     17086
     17080     17084     17085     17087     17080     17084     17085     17088
     17081     17080     17084     17085     17082     17080     17084     17085
     17083     17080     17084     17085     17084     17085     17088     17089
     17084     17085     17088     17090     17084     17085     17088     17096
     17085     17088     17090     17091     17085     17088     17096     17097
     17085     17088     17096     17098     17085     17088     17096     17099
     17086     17085     17088     17089     17086     17085     17088     17090
     17086     17085     17088     17096     17087     17085     17088     17089
     17087     17085     17088     17090     17087     17085     17088     17096
     17088     17090     17091     17092     17088     17090     17091     17093
     17088     17096     17099     17100     17089     17088     17090     17091
     17089     17088     17096     17097     17089     17088     17096     17098
     17089     17088     17096     17099     17090     17088     17096     17097
     17090     17088     17096     17098     17090     17088     17096     17099
     17090     17091     17093     17094     17090     17091     17093     17095
     17090     17091     17093     17105     17091     17090     17088     17096
     17091     17093     17105     17106     17091     17093     17105     17107
     17091     17093     17105     17108     17092     17091     17093     17094
     17092     17091     17093     17095     17092     17091     17093     17105
     17093     17105     17108     17109     17093     17105     17108     17110
     17093     17105     17108     17111     17094     17093     17105     17106
     17094     17093     17105     17107     17094     17093     17105     17108
     17095     17093     17105     17106     17095     17093     17105     17107
     17095     17093     17105     17108     17096     17099     17100     17101
     17096     17099     17100     17102     17097     17096     17099     17100
     17098     17096     17099     17100     17099     17100     17102     17103
     17099     17100     17102     17104     17099     17100     17102     17152
     17100     17102     17152     17153     17100     17102     17152     17154
     17100     17102     17152     17155     17101     17100     17102     17103
     17101     17100     17102     17104     17101     17100     17102     17152
     17102     17152     17155     17156     17102     17152     17155     17157
     17102     17152     17155     17158     17103     17102     17152     17153
     17103     17102     17152     17154     17103     17102     17152     17155
     17104     17102     17152     17153     17104     17102     17152     17154
     17104     17102     17152     17155     17105     17108     17111     17112
     17105     17108     17111     17113     17105     17108     17111     17114
     17106     17105     17108     17109     17106     17105     17108     17110
     17106     17105     17108     17111     17107     17105     17108     17109
     17107     17105     17108     17110     17107     17105     17108     17111
     17108     17111     17114     17115     17108     17111     17114     17116
     17108     17111     17114     17117     17109     17108     17111     17112
     17109     17108     17111     17113     17109     17108     17111     17114
     17110     17108     17111     17112     17110     17108     17111     17113
     17110     17108     17111     17114     17111     17114     17117     17118
     17111     17114     17117     17119     17111     17114     17117     17120
     17112     17111     17114     17115     17112     17111     17114     17116
     17112     17111     17114     17117     17113     17111     17114     17115
     17113     17111     17114     17116     17113     17111     17114     17117
     17114     17117     17120     17121     17114     17117     17120     17122
     17114     17117     17120     17123     17115     17114     17117     17118
     17115     17114     17117     17119     17115     17114     17117     17120
     17116     17114     17117     17118     17116     17114     17117     17119
     17116     17114     17117     17120     17117     17120     17123     17124
     17117     17120     17123     17125     17118     17117     17120     17121
     17118     17117     17120     17122     17118     17117     17120     17123
     17119     17117     17120     17121     17119     17117     17120     17122
     17119     17117     17120     17123     17120     17123     17125     17126
     17120     17123     17125     17127     17121     17120     17123     17124
     17121     17120     17123     17125     17122     17120     17123     17124
     17122     17120     17123     17125     17123     17125     17127     17128
     17123     17125     17127     17129     17123     17125     17127     17130
     17124     17123     17125     17126     17124     17123     17125     17127
     17125     17127     17130     17131     17125     17127     17130     17132
     17125     17127     17130     17133     17126     17125     17127     17128
     17126     17125     17127     17129     17126     17125     17127     17130
     17127     17130     17133     17134     17127     17130     17133     17135
     17127     17130     17133     17136     17128     17127     17130     17131
     17128     17127     17130     17132     17128     17127     17130     17133
     17129     17127     17130     17131     17129     17127     17130     17132
     17129     17127     17130     17133     17130     17133     17136     17137
     17130     17133     17136     17138     17130     17133     17136     17139
     17131     17130     17133     17134     17131     17130     17133     17135
     17131     17130     17133     17136     17132     17130     17133     17134
     17132     17130     17133     17135     17132     17130     17133     17136
     17133     17136     17139     17140     17133     17136     17139     17141
     17133     17136     17139     17142     17134     17133     17136     17137
     17134     17133     17136     17138     17134     17133     17136     17139
     17135     17133     17136     17137     17135     17133     17136     17138
     17135     17133     17136     17139     17136     17139     17142     17143
     17136     17139     17142     17144     17136     17139     17142     17145
     17137     17136     17139     17140     17137     17136     17139     17141
     17137     17136     17139     17142     17138     17136     17139     17140
     17138     17136     17139     17141     17138     17136     17139     17142
     17139     17142     17145     17146     17139     17142     17145     17147
     17139     17142     17145     17148     17140     17139     17142     17143
     17140     17139     17142     17144     17140     17139     17142     17145
     17141     17139     17142     17143     17141     17139     17142     17144
     17141     17139     17142     17145     17142     17145     17148     17149
     17142     17145     17148     17150     17142     17145     17148     17151
     17143     17142     17145     17146     17143     17142     17145     17147
     17143     17142     17145     17148     17144     17142     17145     17146
     17144     17142     17145     17147     17144     17142     17145     17148
     17146     17145     17148     17149     17146     17145     17148     17150
     17146     17145     17148     17151     17147     17145     17148     17149
     17147     17145     17148     17150     17147     17145     17148     17151
     17152     17155     17158     17159     17152     17155     17158     17160
     17152     17155     17158     17161     17153     17152     17155     17156
     17153     17152     17155     17157     17153     17152     17155     17158
     17154     17152     17155     17156     17154     17152     17155     17157
     17154     17152     17155     17158     17155     17158     17161     17162
     17155     17158     17161     17163     17155     17158     17161     17164
     17156     17155     17158     17159     17156     17155     17158     17160
     17156     17155     17158     17161     17157     17155     17158     17159
     17157     17155     17158     17160     17157     17155     17158     17161
     17158     17161     17164     17165     17158     17161     17164     17166
     17158     17161     17164     17167     17159     17158     17161     17162
     17159     17158     17161     17163     17159     17158     17161     17164
     17160     17158     17161     17162     17160     17158     17161     17163
     17160     17158     17161     17164     17161     17164     17167     17168
     17161     17164     17167     17169     17161     17164     17167     17170
     17162     17161     17164     17165     17162     17161     17164     17166
     17162     17161     17164     17167     17163     17161     17164     17165
     17163     17161     17164     17166     17163     17161     17164     17167
     17164     17167     17170     17171     17164     17167     17170     17172
     17165     17164     17167     17168     17165     17164     17167     17169
     17165     17164     17167     17170     17166     17164     17167     17168
     17166     17164     17167     17169     17166     17164     17167     17170
     17167     17170     17172     17173     17167     17170     17172     17174
     17168     17167     17170     17171     17168     17167     17170     17172
     17169     17167     17170     17171     17169     17167     17170     17172
     17170     17172     17174     17175     17170     17172     17174     17176
     17170     17172     17174     17177     17171     17170     17172     17173
     17171     17170     17172     17174     17172     17174     17177     17178
     17172     17174     17177     17179     17172     17174     17177     17180
     17173     17172     17174     17175     17173     17172     17174     17176
     17173     17172     17174     17177     17174     17177     17180     17181
     17174     17177     17180     17182     17174     17177     17180     17183
     17175     17174     17177     17178     17175     17174     17177     17179
     17175     17174     17177     17180     17176     17174     17177     17178
     17176     17174     17177     17179     17176     17174     17177     17180
     17177     17180     17183     17184     17177     17180     17183     17185
     17177     17180     17183     17186     17178     17177     17180     17181
     17178     17177     17180     17182     17178     17177     17180     17183
     17179     17177     17180     17181     17179     17177     17180     17182
     17179     17177     17180     17183     17180     17183     17186     17187
     17180     17183     17186     17188     17180     17183     17186     17189
     17181     17180     17183     17184     17181     17180     17183     17185
     17181     17180     17183     17186     17182     17180     17183     17184
     17182     17180     17183     17185     17182     17180     17183     17186
     17183     17186     17189     17190     17183     17186     17189     17191
     17183     17186     17189     17192     17184     17183     17186     17187
     17184     17183     17186     17188     17184     17183     17186     17189
     17185     17183     17186     17187     17185     17183     17186     17188
     17185     17183     17186     17189     17186     17189     17192     17193
     17186     17189     17192     17194     17186     17189     17192     17195
     17187     17186     17189     17190     17187     17186     17189     17191
     17187     17186     17189     17192     17188     17186     17189     17190
     17188     17186     17189     17191     17188     17186     17189     17192
     17189     17192     17195     17196     17189     17192     17195     17197
     17189     17192     17195     17198     17190     17189     17192     17193
     17190     17189     17192     17194     17190     17189     17192     17195
     17191     17189     17192     17193     17191     17189     17192     17194
     17191     17189     17192     17195     17193     17192     17195     17196
     17193     17192     17195     17197     17193     17192     17195     17198
     17194     17192     17195     17196     17194     17192     17195     17197
     17194     17192     17195     17198     17199     17200     17215     17216
     17199     17200     17215     17217     17199     17200     17215     17221
     17200     17199     17203     17204     17200     17199     17203     17205
     17200     17199     17203     17206     17200     17199     17207     17208
     17200     17199     17207     17209     17200     17199     17207     17210
     17200     17199     17211     17212     17200     17199     17211     17213
     17200     17199     17211     17214     17200     17215     17221     17218
     17201     17200     17199     17203     17201     17200     17199     17207
     17201     17200     17199     17211     17201     17200     17215     17216
     17201     17200     17215     17217     17201     17200     17215     17221
     17202     17200     17199     17203     17202     17200     17199     17207
     17202     17200     17199     17211     17202     17200     17215     17216
     17202     17200     17215     17217     17202     17200     17215     17221
     17203     17199     17200     17215     17203     17199     17207     17208
     17203     17199     17207     17209     17203     17199     17207     17210
     17203     17199     17211     17212     17203     17199     17211     17213
     17203     17199     17211     17214     17204     17203     17199     17207
     17204     17203     17199     17211     17205     17203     17199     17207
     17205     17203     17199     17211     17206     17203     17199     17207
     17206     17203     17199     17211     17207     17199     17200     17215
     17207     17199     17211     17212     17207     17199     17211     17213
     17207     17199     17211     17214     17208     17207     17199     17211
     17209     17207     17199     17211     17210     17207     17199     17211
     17211     17199     17200     17215     17215     17221     17218     17219
     17215     17221     17218     17220     17215     17221     17218     17222
     17216     17215     17221     17218     17217     17215     17221     17218
     17218     17222     17223     17224     17218     17222     17223     17225
     17218     17222     17223     17226     17219     17218     17222     17223
     17220     17218     17222     17223     17221     17218     17222     17223
     17222     17223     17226     17227     17222     17223     17226     17228
     17222     17223     17226     17234     17223     17226     17228     17229
     17223     17226     17234     17235     17223     17226     17234     17236
     17223     17226     17234     17237     17224     17223     17226     17227
     17224     17223     17226     17228     17224     17223     17226     17234
     17225     17223     17226     17227     17225     17223     17226     17228
     17225     17223     17226     17234     17226     17228     17229     17230
     17226     17228     17229     17231     17226     17234     17237     17238
     17227     17226     17228     17229     17227     17226     17234     17235
     17227     17226     17234     17236     17227     17226     17234     17237
     17228     17226     17234     17235     17228     17226     17234     17236
     17228     17226     17234     17237     17228     17229     17231     17232
     17228     17229     17231     17233     17228     17229     17231     17243
     17229     17228     17226     17234     17229     17231     17243     17244
     17229     17231     17243     17245     17229     17231     17243     17246
     17230     17229     17231     17232     17230     17229     17231     17233
     17230     17229     17231     17243     17231     17243     17246     17247
     17231     17243     17246     17248     17231     17243     17246     17249
     17232     17231     17243     17244     17232     17231     17243     17245
     17232     17231     17243     17246     17233     17231     17243     17244
     17233     17231     17243     17245     17233     17231     17243     17246
     17234     17237     17238     17239     17234     17237     17238     17240
     17235     17234     17237     17238     17236     17234     17237     17238
     17237     17238     17240     17241     17237     17238     17240     17242
     17237     17238     17240     17290     17238     17240     17290     17291
     17238     17240     17290     17292     17238     17240     17290     17293
     17239     17238     17240     17241     17239     17238     17240     17242
     17239     17238     17240     17290     17240     17290     17293     17294
     17240     17290     17293     17295     17240     17290     17293     17296
     17241     17240     17290     17291     17241     17240     17290     17292
     17241     17240     17290     17293     17242     17240     17290     17291
     17242     17240     17290     17292     17242     17240     17290     17293
     17243     17246     17249     17250     17243     17246     17249     17251
     17243     17246     17249     17252     17244     17243     17246     17247
     17244     17243     17246     17248     17244     17243     17246     17249
     17245     17243     17246     17247     17245     17243     17246     17248
     17245     17243     17246     17249     17246     17249     17252     17253
     17246     17249     17252     17254     17246     17249     17252     17255
     17247     17246     17249     17250     17247     17246     17249     17251
     17247     17246     17249     17252     17248     17246     17249     17250
     17248     17246     17249     17251     17248     17246     17249     17252
     17249     17252     17255     17256     17249     17252     17255     17257
     17249     17252     17255     17258     17250     17249     17252     17253
     17250     17249     17252     17254     17250     17249     17252     17255
     17251     17249     17252     17253     17251     17249     17252     17254
     17251     17249     17252     17255     17252     17255     17258     17259
     17252     17255     17258     17260     17252     17255     17258     17261
     17253     17252     17255     17256     17253     17252     17255     17257
     17253     17252     17255     17258     17254     17252     17255     17256
     17254     17252     17255     17257     17254     17252     17255     17258
     17255     17258     17261     17262     17255     17258     17261     17263
     17256     17255     17258     17259     17256     17255     17258     17260
     17256     17255     17258     17261     17257     17255     17258     17259
     17257     17255     17258     17260     17257     17255     17258     17261
     17258     17261     17263     17264     17258     17261     17263     17265
     17259     17258     17261     17262     17259     17258     17261     17263
     17260     17258     17261     17262     17260     17258     17261     17263
     17261     17263     17265     17266     17261     17263     17265     17267
     17261     17263     17265     17268     17262     17261     17263     17264
     17262     17261     17263     17265     17263     17265     17268     17269
     17263     17265     17268     17270     17263     17265     17268     17271
     17264     17263     17265     17266     17264     17263     17265     17267
     17264     17263     17265     17268     17265     17268     17271     17272
     17265     17268     17271     17273     17265     17268     17271     17274
     17266     17265     17268     17269     17266     17265     17268     17270
     17266     17265     17268     17271     17267     17265     17268     17269
     17267     17265     17268     17270     17267     17265     17268     17271
     17268     17271     17274     17275     17268     17271     17274     17276
     17268     17271     17274     17277     17269     17268     17271     17272
     17269     17268     17271     17273     17269     17268     17271     17274
     17270     17268     17271     17272     17270     17268     17271     17273
     17270     17268     17271     17274     17271     17274     17277     17278
     17271     17274     17277     17279     17271     17274     17277     17280
     17272     17271     17274     17275     17272     17271     17274     17276
     17272     17271     17274     17277     17273     17271     17274     17275
     17273     17271     17274     17276     17273     17271     17274     17277
     17274     17277     17280     17281     17274     17277     17280     17282
     17274     17277     17280     17283     17275     17274     17277     17278
     17275     17274     17277     17279     17275     17274     17277     17280
     17276     17274     17277     17278     17276     17274     17277     17279
     17276     17274     17277     17280     17277     17280     17283     17284
     17277     17280     17283     17285     17277     17280     17283     17286
     17278     17277     17280     17281     17278     17277     17280     17282
     17278     17277     17280     17283     17279     17277     17280     17281
     17279     17277     17280     17282     17279     17277     17280     17283
     17280     17283     17286     17287     17280     17283     17286     17288
     17280     17283     17286     17289     17281     17280     17283     17284
     17281     17280     17283     17285     17281     17280     17283     17286
     17282     17280     17283     17284     17282     17280     17283     17285
     17282     17280     17283     17286     17284     17283     17286     17287
     17284     17283     17286     17288     17284     17283     17286     17289
     17285     17283     17286     17287     17285     17283     17286     17288
     17285     17283     17286     17289     17290     17293     17296     17297
     17290     17293     17296     17298     17290     17293     17296     17299
     17291     17290     17293     17294     17291     17290     17293     17295
     17291     17290     17293     17296     17292     17290     17293     17294
     17292     17290     17293     17295     17292     17290     17293     17296
     17293     17296     17299     17300     17293     17296     17299     17301
     17293     17296     17299     17302     17294     17293     17296     17297
     17294     17293     17296     17298     17294     17293     17296     17299
     17295     17293     17296     17297     17295     17293     17296     17298
     17295     17293     17296     17299     17296     17299     17302     17303
     17296     17299     17302     17304     17296     17299     17302     17305
     17297     17296     17299     17300     17297     17296     17299     17301
     17297     17296     17299     17302     17298     17296     17299     17300
     17298     17296     17299     17301     17298     17296     17299     17302
     17299     17302     17305     17306     17299     17302     17305     17307
     17299     17302     17305     17308     17300     17299     17302     17303
     17300     17299     17302     17304     17300     17299     17302     17305
     17301     17299     17302     17303     17301     17299     17302     17304
     17301     17299     17302     17305     17302     17305     17308     17309
     17302     17305     17308     17310     17303     17302     17305     17306
     17303     17302     17305     17307     17303     17302     17305     17308
     17304     17302     17305     17306     17304     17302     17305     17307
     17304     17302     17305     17308     17305     17308     17310     17311
     17305     17308     17310     17312     17306     17305     17308     17309
     17306     17305     17308     17310     17307     17305     17308     17309
     17307     17305     17308     17310     17308     17310     17312     17313
     17308     17310     17312     17314     17308     17310     17312     17315
     17309     17308     17310     17311     17309     17308     17310     17312
     17310     17312     17315     17316     17310     17312     17315     17317
     17310     17312     17315     17318     17311     17310     17312     17313
     17311     17310     17312     17314     17311     17310     17312     17315
     17312     17315     17318     17319     17312     17315     17318     17320
     17312     17315     17318     17321     17313     17312     17315     17316
     17313     17312     17315     17317     17313     17312     17315     17318
     17314     17312     17315     17316     17314     17312     17315     17317
     17314     17312     17315     17318     17315     17318     17321     17322
     17315     17318     17321     17323     17315     17318     17321     17324
     17316     17315     17318     17319     17316     17315     17318     17320
     17316     17315     17318     17321     17317     17315     17318     17319
     17317     17315     17318     17320     17317     17315     17318     17321
     17318     17321     17324     17325     17318     17321     17324     17326
     17318     17321     17324     17327     17319     17318     17321     17322
     17319     17318     17321     17323     17319     17318     17321     17324
     17320     17318     17321     17322     17320     17318     17321     17323
     17320     17318     17321     17324     17321     17324     17327     17328
     17321     17324     17327     17329     17321     17324     17327     17330
     17322     17321     17324     17325     17322     17321     17324     17326
     17322     17321     17324     17327     17323     17321     17324     17325
     17323     17321     17324     17326     17323     17321     17324     17327
     17324     17327     17330     17331     17324     17327     17330     17332
     17324     17327     17330     17333     17325     17324     17327     17328
     17325     17324     17327     17329     17325     17324     17327     17330
     17326     17324     17327     17328     17326     17324     17327     17329
     17326     17324     17327     17330     17327     17330     17333     17334
     17327     17330     17333     17335     17327     17330     17333     17336
     17328     17327     17330     17331     17328     17327     17330     17332
     17328     17327     17330     17333     17329     17327     17330     17331
     17329     17327     17330     17332     17329     17327     17330     17333
     17331     17330     17333     17334     17331     17330     17333     17335
     17331     17330     17333     17336     17332     17330     17333     17334
     17332     17330     17333     17335     17332     17330     17333     17336
     17337     17338     17353     17354     17337     17338     17353     17355
     17337     17338     17353     17359     17338     17337     17341     17342
     17338     17337     17341     17343     17338     17337     17341     17344
     17338     17337     17345     17346     17338     17337     17345     17347
     17338     17337     17345     17348     17338     17337     17349     17350
     17338     17337     17349     17351     17338     17337     17349     17352
     17338     17353     17359     17356     17339     17338     17337     17341
     17339     17338     17337     17345     17339     17338     17337     17349
     17339     17338     17353     17354     17339     17338     17353     17355
     17339     17338     17353     17359     17340     17338     17337     17341
     17340     17338     17337     17345     17340     17338     17337     17349
     17340     17338     17353     17354     17340     17338     17353     17355
     17340     17338     17353     17359     17341     17337     17338     17353
     17341     17337     17345     17346     17341     17337     17345     17347
     17341     17337     17345     17348     17341     17337     17349     17350
     17341     17337     17349     17351     17341     17337     17349     17352
     17342     17341     17337     17345     17342     17341     17337     17349
     17343     17341     17337     17345     17343     17341     17337     17349
     17344     17341     17337     17345     17344     17341     17337     17349
     17345     17337     17338     17353     17345     17337     17349     17350
     17345     17337     17349     17351     17345     17337     17349     17352
     17346     17345     17337     17349     17347     17345     17337     17349
     17348     17345     17337     17349     17349     17337     17338     17353
     17353     17359     17356     17357     17353     17359     17356     17358
     17353     17359     17356     17360     17354     17353     17359     17356
     17355     17353     17359     17356     17356     17360     17361     17362
     17356     17360     17361     17363     17356     17360     17361     17364
     17357     17356     17360     17361     17358     17356     17360     17361
     17359     17356     17360     17361     17360     17361     17364     17365
     17360     17361     17364     17366     17360     17361     17364     17372
     17361     17364     17366     17367     17361     17364     17372     17373
     17361     17364     17372     17374     17361     17364     17372     17375
     17362     17361     17364     17365     17362     17361     17364     17366
     17362     17361     17364     17372     17363     17361     17364     17365
     17363     17361     17364     17366     17363     17361     17364     17372
     17364     17366     17367     17368     17364     17366     17367     17369
     17364     17372     17375     17376     17365     17364     17366     17367
     17365     17364     17372     17373     17365     17364     17372     17374
     17365     17364     17372     17375     17366     17364     17372     17373
     17366     17364     17372     17374     17366     17364     17372     17375
     17366     17367     17369     17370     17366     17367     17369     17371
     17366     17367     17369     17381     17367     17366     17364     17372
     17367     17369     17381     17382     17367     17369     17381     17383
     17367     17369     17381     17384     17368     17367     17369     17370
     17368     17367     17369     17371     17368     17367     17369     17381
     17369     17381     17384     17385     17369     17381     17384     17386
     17369     17381     17384     17387     17370     17369     17381     17382
     17370     17369     17381     17383     17370     17369     17381     17384
     17371     17369     17381     17382     17371     17369     17381     17383
     17371     17369     17381     17384     17372     17375     17376     17377
     17372     17375     17376     17378     17373     17372     17375     17376
     17374     17372     17375     17376     17375     17376     17378     17379
     17375     17376     17378     17380     17375     17376     17378     17428
     17376     17378     17428     17429     17376     17378     17428     17430
     17376     17378     17428     17431     17377     17376     17378     17379
     17377     17376     17378     17380     17377     17376     17378     17428
     17378     17428     17431     17432     17378     17428     17431     17433
     17378     17428     17431     17434     17379     17378     17428     17429
     17379     17378     17428     17430     17379     17378     17428     17431
     17380     17378     17428     17429     17380     17378     17428     17430
     17380     17378     17428     17431     17381     17384     17387     17388
     17381     17384     17387     17389     17381     17384     17387     17390
     17382     17381     17384     17385     17382     17381     17384     17386
     17382     17381     17384     17387     17383     17381     17384     17385
     17383     17381     17384     17386     17383     17381     17384     17387
     17384     17387     17390     17391     17384     17387     17390     17392
     17384     17387     17390     17393     17385     17384     17387     17388
     17385     17384     17387     17389     17385     17384     17387     17390
     17386     17384     17387     17388     17386     17384     17387     17389
     17386     17384     17387     17390     17387     17390     17393     17394
     17387     17390     17393     17395     17387     17390     17393     17396
     17388     17387     17390     17391     17388     17387     17390     17392
     17388     17387     17390     17393     17389     17387     17390     17391
     17389     17387     17390     17392     17389     17387     17390     17393
     17390     17393     17396     17397     17390     17393     17396     17398
     17390     17393     17396     17399     17391     17390     17393     17394
     17391     17390     17393     17395     17391     17390     17393     17396
     17392     17390     17393     17394     17392     17390     17393     17395
     17392     17390     17393     17396     17393     17396     17399     17400
     17393     17396     17399     17401     17394     17393     17396     17397
     17394     17393     17396     17398     17394     17393     17396     17399
     17395     17393     17396     17397     17395     17393     17396     17398
     17395     17393     17396     17399     17396     17399     17401     17402
     17396     17399     17401     17403     17397     17396     17399     17400
     17397     17396     17399     17401     17398     17396     17399     17400
     17398     17396     17399     17401     17399     17401     17403     17404
     17399     17401     17403     17405     17399     17401     17403     17406
     17400     17399     17401     17402     17400     17399     17401     17403
     17401     17403     17406     17407     17401     17403     17406     17408
     17401     17403     17406     17409     17402     17401     17403     17404
     17402     17401     17403     17405     17402     17401     17403     17406
     17403     17406     17409     17410     17403     17406     17409     17411
     17403     17406     17409     17412     17404     17403     17406     17407
     17404     17403     17406     17408     17404     17403     17406     17409
     17405     17403     17406     17407     17405     17403     17406     17408
     17405     17403     17406     17409     17406     17409     17412     17413
     17406     17409     17412     17414     17406     17409     17412     17415
     17407     17406     17409     17410     17407     17406     17409     17411
     17407     17406     17409     17412     17408     17406     17409     17410
     17408     17406     17409     17411     17408     17406     17409     17412
     17409     17412     17415     17416     17409     17412     17415     17417
     17409     17412     17415     17418     17410     17409     17412     17413
     17410     17409     17412     17414     17410     17409     17412     17415
     17411     17409     17412     17413     17411     17409     17412     17414
     17411     17409     17412     17415     17412     17415     17418     17419
     17412     17415     17418     17420     17412     17415     17418     17421
     17413     17412     17415     17416     17413     17412     17415     17417
     17413     17412     17415     17418     17414     17412     17415     17416
     17414     17412     17415     17417     17414     17412     17415     17418
     17415     17418     17421     17422     17415     17418     17421     17423
     17415     17418     17421     17424     17416     17415     17418     17419
     17416     17415     17418     17420     17416     17415     17418     17421
     17417     17415     17418     17419     17417     17415     17418     17420
     17417     17415     17418     17421     17418     17421     17424     17425
     17418     17421     17424     17426     17418     17421     17424     17427
     17419     17418     17421     17422     17419     17418     17421     17423
     17419     17418     17421     17424     17420     17418     17421     17422
     17420     17418     17421     17423     17420     17418     17421     17424
     17422     17421     17424     17425     17422     17421     17424     17426
     17422     17421     17424     17427     17423     17421     17424     17425
     17423     17421     17424     17426     17423     17421     17424     17427
     17428     17431     17434     17435     17428     17431     17434     17436
     17428     17431     17434     17437     17429     17428     17431     17432
     17429     17428     17431     17433     17429     17428     17431     17434
     17430     17428     17431     17432     17430     17428     17431     17433
     17430     17428     17431     17434     17431     17434     17437     17438
     17431     17434     17437     17439     17431     17434     17437     17440
     17432     17431     17434     17435     17432     17431     17434     17436
     17432     17431     17434     17437     17433     17431     17434     17435
     17433     17431     17434     17436     17433     17431     17434     17437
     17434     17437     17440     17441     17434     17437     17440     17442
     17434     17437     17440     17443     17435     17434     17437     17438
     17435     17434     17437     17439     17435     17434     17437     17440
     17436     17434     17437     17438     17436     17434     17437     17439
     17436     17434     17437     17440     17437     17440     17443     17444
     17437     17440     17443     17445     17437     17440     17443     17446
     17438     17437     17440     17441     17438     17437     17440     17442
     17438     17437     17440     17443     17439     17437     17440     17441
     17439     17437     17440     17442     17439     17437     17440     17443
     17440     17443     17446     17447     17440     17443     17446     17448
     17441     17440     17443     17444     17441     17440     17443     17445
     17441     17440     17443     17446     17442     17440     17443     17444
     17442     17440     17443     17445     17442     17440     17443     17446
     17443     17446     17448     17449     17443     17446     17448     17450
     17444     17443     17446     17447     17444     17443     17446     17448
     17445     17443     17446     17447     17445     17443     17446     17448
     17446     17448     17450     17451     17446     17448     17450     17452
     17446     17448     17450     17453     17447     17446     17448     17449
     17447     17446     17448     17450     17448     17450     17453     17454
     17448     17450     17453     17455     17448     17450     17453     17456
     17449     17448     17450     17451     17449     17448     17450     17452
     17449     17448     17450     17453     17450     17453     17456     17457
     17450     17453     17456     17458     17450     17453     17456     17459
     17451     17450     17453     17454     17451     17450     17453     17455
     17451     17450     17453     17456     17452     17450     17453     17454
     17452     17450     17453     17455     17452     17450     17453     17456
     17453     17456     17459     17460     17453     17456     17459     17461
     17453     17456     17459     17462     17454     17453     17456     17457
     17454     17453     17456     17458     17454     17453     17456     17459
     17455     17453     17456     17457     17455     17453     17456     17458
     17455     17453     17456     17459     17456     17459     17462     17463
     17456     17459     17462     17464     17456     17459     17462     17465
     17457     17456     17459     17460     17457     17456     17459     17461
     17457     17456     17459     17462     17458     17456     17459     17460
     17458     17456     17459     17461     17458     17456     17459     17462
     17459     17462     17465     17466     17459     17462     17465     17467
     17459     17462     17465     17468     17460     17459     17462     17463
     17460     17459     17462     17464     17460     17459     17462     17465
     17461     17459     17462     17463     17461     17459     17462     17464
     17461     17459     17462     17465     17462     17465     17468     17469
     17462     17465     17468     17470     17462     17465     17468     17471
     17463     17462     17465     17466     17463     17462     17465     17467
     17463     17462     17465     17468     17464     17462     17465     17466
     17464     17462     17465     17467     17464     17462     17465     17468
     17465     17468     17471     17472     17465     17468     17471     17473
     17465     17468     17471     17474     17466     17465     17468     17469
     17466     17465     17468     17470     17466     17465     17468     17471
     17467     17465     17468     17469     17467     17465     17468     17470
     17467     17465     17468     17471     17469     17468     17471     17472
     17469     17468     17471     17473     17469     17468     17471     17474
     17470     17468     17471     17472     17470     17468     17471     17473
     17470     17468     17471     17474     17475     17476     17491     17492
     17475     17476     17491     17493     17475     17476     17491     17497
     17476     17475     17479     17480     17476     17475     17479     17481
     17476     17475     17479     17482     17476     17475     17483     17484
     17476     17475     17483     17485     17476     17475     17483     17486
     17476     17475     17487     17488     17476     17475     17487     17489
     17476     17475     17487     17490     17476     17491     17497     17494
     17477     17476     17475     17479     17477     17476     17475     17483
     17477     17476     17475     17487     17477     17476     17491     17492
     17477     17476     17491     17493     17477     17476     17491     17497
     17478     17476     17475     17479     17478     17476     17475     17483
     17478     17476     17475     17487     17478     17476     17491     17492
     17478     17476     17491     17493     17478     17476     17491     17497
     17479     17475     17476     17491     17479     17475     17483     17484
     17479     17475     17483     17485     17479     17475     17483     17486
     17479     17475     17487     17488     17479     17475     17487     17489
     17479     17475     17487     17490     17480     17479     17475     17483
     17480     17479     17475     17487     17481     17479     17475     17483
     17481     17479     17475     17487     17482     17479     17475     17483
     17482     17479     17475     17487     17483     17475     17476     17491
     17483     17475     17487     17488     17483     17475     17487     17489
     17483     17475     17487     17490     17484     17483     17475     17487
     17485     17483     17475     17487     17486     17483     17475     17487
     17487     17475     17476     17491     17491     17497     17494     17495
     17491     17497     17494     17496     17491     17497     17494     17498
     17492     17491     17497     17494     17493     17491     17497     17494
     17494     17498     17499     17500     17494     17498     17499     17501
     17494     17498     17499     17502     17495     17494     17498     17499
     17496     17494     17498     17499     17497     17494     17498     17499
     17498     17499     17502     17503     17498     17499     17502     17504
     17498     17499     17502     17510     17499     17502     17504     17505
     17499     17502     17510     17511     17499     17502     17510     17512
     17499     17502     17510     17513     17500     17499     17502     17503
     17500     17499     17502     17504     17500     17499     17502     17510
     17501     17499     17502     17503     17501     17499     17502     17504
     17501     17499     17502     17510     17502     17504     17505     17506
     17502     17504     17505     17507     17502     17510     17513     17514
     17503     17502     17504     17505     17503     17502     17510     17511
     17503     17502     17510     17512     17503     17502     17510     17513
     17504     17502     17510     17511     17504     17502     17510     17512
     17504     17502     17510     17513     17504     17505     17507     17508
     17504     17505     17507     17509     17504     17505     17507     17519
     17505     17504     17502     17510     17505     17507     17519     17520
     17505     17507     17519     17521     17505     17507     17519     17522
     17506     17505     17507     17508     17506     17505     17507     17509
     17506     17505     17507     17519     17507     17519     17522     17523
     17507     17519     17522     17524     17507     17519     17522     17525
     17508     17507     17519     17520     17508     17507     17519     17521
     17508     17507     17519     17522     17509     17507     17519     17520
     17509     17507     17519     17521     17509     17507     17519     17522
     17510     17513     17514     17515     17510     17513     17514     17516
     17511     17510     17513     17514     17512     17510     17513     17514
     17513     17514     17516     17517     17513     17514     17516     17518
     17513     17514     17516     17566     17514     17516     17566     17567
     17514     17516     17566     17568     17514     17516     17566     17569
     17515     17514     17516     17517     17515     17514     17516     17518
     17515     17514     17516     17566     17516     17566     17569     17570
     17516     17566     17569     17571     17516     17566     17569     17572
     17517     17516     17566     17567     17517     17516     17566     17568
     17517     17516     17566     17569     17518     17516     17566     17567
     17518     17516     17566     17568     17518     17516     17566     17569
     17519     17522     17525     17526     17519     17522     17525     17527
     17519     17522     17525     17528     17520     17519     17522     17523
     17520     17519     17522     17524     17520     17519     17522     17525
     17521     17519     17522     17523     17521     17519     17522     17524
     17521     17519     17522     17525     17522     17525     17528     17529
     17522     17525     17528     17530     17522     17525     17528     17531
     17523     17522     17525     17526     17523     17522     17525     17527
     17523     17522     17525     17528     17524     17522     17525     17526
     17524     17522     17525     17527     17524     17522     17525     17528
     17525     17528     17531     17532     17525     17528     17531     17533
     17525     17528     17531     17534     17526     17525     17528     17529
     17526     17525     17528     17530     17526     17525     17528     17531
     17527     17525     17528     17529     17527     17525     17528     17530
     17527     17525     17528     17531     17528     17531     17534     17535
     17528     17531     17534     17536     17528     17531     17534     17537
     17529     17528     17531     17532     17529     17528     17531     17533
     17529     17528     17531     17534     17530     17528     17531     17532
     17530     17528     17531     17533     17530     17528     17531     17534
     17531     17534     17537     17538     17531     17534     17537     17539
     17532     17531     17534     17535     17532     17531     17534     17536
     17532     17531     17534     17537     17533     17531     17534     17535
     17533     17531     17534     17536     17533     17531     17534     17537
     17534     17537     17539     17540     17534     17537     17539     17541
     17535     17534     17537     17538     17535     17534     17537     17539
     17536     17534     17537     17538     17536     17534     17537     17539
     17537     17539     17541     17542     17537     17539     17541     17543
     17537     17539     17541     17544     17538     17537     17539     17540
     17538     17537     17539     17541     17539     17541     17544     17545
     17539     17541     17544     17546     17539     17541     17544     17547
     17540     17539     17541     17542     17540     17539     17541     17543
     17540     17539     17541     17544     17541     17544     17547     17548
     17541     17544     17547     17549     17541     17544     17547     17550
     17542     17541     17544     17545     17542     17541     17544     17546
     17542     17541     17544     17547     17543     17541     17544     17545
     17543     17541     17544     17546     17543     17541     17544     17547
     17544     17547     17550     17551     17544     17547     17550     17552
     17544     17547     17550     17553     17545     17544     17547     17548
     17545     17544     17547     17549     17545     17544     17547     17550
     17546     17544     17547     17548     17546     17544     17547     17549
     17546     17544     17547     17550     17547     17550     17553     17554
     17547     17550     17553     17555     17547     17550     17553     17556
     17548     17547     17550     17551     17548     17547     17550     17552
     17548     17547     17550     17553     17549     17547     17550     17551
     17549     17547     17550     17552     17549     17547     17550     17553
     17550     17553     17556     17557     17550     17553     17556     17558
     17550     17553     17556     17559     17551     17550     17553     17554
     17551     17550     17553     17555     17551     17550     17553     17556
     17552     17550     17553     17554     17552     17550     17553     17555
     17552     17550     17553     17556     17553     17556     17559     17560
     17553     17556     17559     17561     17553     17556     17559     17562
     17554     17553     17556     17557     17554     17553     17556     17558
     17554     17553     17556     17559     17555     17553     17556     17557
     17555     17553     17556     17558     17555     17553     17556     17559
     17556     17559     17562     17563     17556     17559     17562     17564
     17556     17559     17562     17565     17557     17556     17559     17560
     17557     17556     17559     17561     17557     17556     17559     17562
     17558     17556     17559     17560     17558     17556     17559     17561
     17558     17556     17559     17562     17560     17559     17562     17563
     17560     17559     17562     17564     17560     17559     17562     17565
     17561     17559     17562     17563     17561     17559     17562     17564
     17561     17559     17562     17565     17566     17569     17572     17573
     17566     17569     17572     17574     17566     17569     17572     17575
     17567     17566     17569     17570     17567     17566     17569     17571
     17567     17566     17569     17572     17568     17566     17569     17570
     17568     17566     17569     17571     17568     17566     17569     17572
     17569     17572     17575     17576     17569     17572     17575     17577
     17569     17572     17575     17578     17570     17569     17572     17573
     17570     17569     17572     17574     17570     17569     17572     17575
     17571     17569     17572     17573     17571     17569     17572     17574
     17571     17569     17572     17575     17572     17575     17578     17579
     17572     17575     17578     17580     17572     17575     17578     17581
     17573     17572     17575     17576     17573     17572     17575     17577
     17573     17572     17575     17578     17574     17572     17575     17576
     17574     17572     17575     17577     17574     17572     17575     17578
     17575     17578     17581     17582     17575     17578     17581     17583
     17575     17578     17581     17584     17576     17575     17578     17579
     17576     17575     17578     17580     17576     17575     17578     17581
     17577     17575     17578     17579     17577     17575     17578     17580
     17577     17575     17578     17581     17578     17581     17584     17585
     17578     17581     17584     17586     17579     17578     17581     17582
     17579     17578     17581     17583     17579     17578     17581     17584
     17580     17578     17581     17582     17580     17578     17581     17583
     17580     17578     17581     17584     17581     17584     17586     17587
     17581     17584     17586     17588     17582     17581     17584     17585
     17582     17581     17584     17586     17583     17581     17584     17585
     17583     17581     17584     17586     17584     17586     17588     17589
     17584     17586     17588     17590     17584     17586     17588     17591
     17585     17584     17586     17587     17585     17584     17586     17588
     17586     17588     17591     17592     17586     17588     17591     17593
     17586     17588     17591     17594     17587     17586     17588     17589
     17587     17586     17588     17590     17587     17586     17588     17591
     17588     17591     17594     17595     17588     17591     17594     17596
     17588     17591     17594     17597     17589     17588     17591     17592
     17589     17588     17591     17593     17589     17588     17591     17594
     17590     17588     17591     17592     17590     17588     17591     17593
     17590     17588     17591     17594     17591     17594     17597     17598
     17591     17594     17597     17599     17591     17594     17597     17600
     17592     17591     17594     17595     17592     17591     17594     17596
     17592     17591     17594     17597     17593     17591     17594     17595
     17593     17591     17594     17596     17593     17591     17594     17597
     17594     17597     17600     17601     17594     17597     17600     17602
     17594     17597     17600     17603     17595     17594     17597     17598
     17595     17594     17597     17599     17595     17594     17597     17600
     17596     17594     17597     17598     17596     17594     17597     17599
     17596     17594     17597     17600     17597     17600     17603     17604
     17597     17600     17603     17605     17597     17600     17603     17606
     17598     17597     17600     17601     17598     17597     17600     17602
     17598     17597     17600     17603     17599     17597     17600     17601
     17599     17597     17600     17602     17599     17597     17600     17603
     17600     17603     17606     17607     17600     17603     17606     17608
     17600     17603     17606     17609     17601     17600     17603     17604
     17601     17600     17603     17605     17601     17600     17603     17606
     17602     17600     17603     17604     17602     17600     17603     17605
     17602     17600     17603     17606     17603     17606     17609     17610
     17603     17606     17609     17611     17603     17606     17609     17612
     17604     17603     17606     17607     17604     17603     17606     17608
     17604     17603     17606     17609     17605     17603     17606     17607
     17605     17603     17606     17608     17605     17603     17606     17609
     17607     17606     17609     17610     17607     17606     17609     17611
     17607     17606     17609     17612     17608     17606     17609     17610
     17608     17606     17609     17611     17608     17606     17609     17612
     17613     17614     17629     17630     17613     17614     17629     17631
     17613     17614     17629     17635     17614     17613     17617     17618
     17614     17613     17617     17619     17614     17613     17617     17620
     17614     17613     17621     17622     17614     17613     17621     17623
     17614     17613     17621     17624     17614     17613     17625     17626
     17614     17613     17625     17627     17614     17613     17625     17628
     17614     17629     17635     17632     17615     17614     17613     17617
     17615     17614     17613     17621     17615     17614     17613     17625
     17615     17614     17629     17630     17615     17614     17629     17631
     17615     17614     17629     17635     17616     17614     17613     17617
     17616     17614     17613     17621     17616     17614     17613     17625
     17616     17614     17629     17630     17616     17614     17629     17631
     17616     17614     17629     17635     17617     17613     17614     17629
     17617     17613     17621     17622     17617     17613     17621     17623
     17617     17613     17621     17624     17617     17613     17625     17626
     17617     17613     17625     17627     17617     17613     17625     17628
     17618     17617     17613     17621     17618     17617     17613     17625
     17619     17617     17613     17621     17619     17617     17613     17625
     17620     17617     17613     17621     17620     17617     17613     17625
     17621     17613     17614     17629     17621     17613     17625     17626
     17621     17613     17625     17627     17621     17613     17625     17628
     17622     17621     17613     17625     17623     17621     17613     17625
     17624     17621     17613     17625     17625     17613     17614     17629
     17629     17635     17632     17633     17629     17635     17632     17634
     17629     17635     17632     17636     17630     17629     17635     17632
     17631     17629     17635     17632     17632     17636     17637     17638
     17632     17636     17637     17639     17632     17636     17637     17640
     17633     17632     17636     17637     17634     17632     17636     17637
     17635     17632     17636     17637     17636     17637     17640     17641
     17636     17637     17640     17642     17636     17637     17640     17648
     17637     17640     17642     17643     17637     17640     17648     17649
     17637     17640     17648     17650     17637     17640     17648     17651
     17638     17637     17640     17641     17638     17637     17640     17642
     17638     17637     17640     17648     17639     17637     17640     17641
     17639     17637     17640     17642     17639     17637     17640     17648
     17640     17642     17643     17644     17640     17642     17643     17645
     17640     17648     17651     17652     17641     17640     17642     17643
     17641     17640     17648     17649     17641     17640     17648     17650
     17641     17640     17648     17651     17642     17640     17648     17649
     17642     17640     17648     17650     17642     17640     17648     17651
     17642     17643     17645     17646     17642     17643     17645     17647
     17642     17643     17645     17657     17643     17642     17640     17648
     17643     17645     17657     17658     17643     17645     17657     17659
     17643     17645     17657     17660     17644     17643     17645     17646
     17644     17643     17645     17647     17644     17643     17645     17657
     17645     17657     17660     17661     17645     17657     17660     17662
     17645     17657     17660     17663     17646     17645     17657     17658
     17646     17645     17657     17659     17646     17645     17657     17660
     17647     17645     17657     17658     17647     17645     17657     17659
     17647     17645     17657     17660     17648     17651     17652     17653
     17648     17651     17652     17654     17649     17648     17651     17652
     17650     17648     17651     17652     17651     17652     17654     17655
     17651     17652     17654     17656     17651     17652     17654     17704
     17652     17654     17704     17705     17652     17654     17704     17706
     17652     17654     17704     17707     17653     17652     17654     17655
     17653     17652     17654     17656     17653     17652     17654     17704
     17654     17704     17707     17708     17654     17704     17707     17709
     17654     17704     17707     17710     17655     17654     17704     17705
     17655     17654     17704     17706     17655     17654     17704     17707
     17656     17654     17704     17705     17656     17654     17704     17706
     17656     17654     17704     17707     17657     17660     17663     17664
     17657     17660     17663     17665     17657     17660     17663     17666
     17658     17657     17660     17661     17658     17657     17660     17662
     17658     17657     17660     17663     17659     17657     17660     17661
     17659     17657     17660     17662     17659     17657     17660     17663
     17660     17663     17666     17667     17660     17663     17666     17668
     17660     17663     17666     17669     17661     17660     17663     17664
     17661     17660     17663     17665     17661     17660     17663     17666
     17662     17660     17663     17664     17662     17660     17663     17665
     17662     17660     17663     17666     17663     17666     17669     17670
     17663     17666     17669     17671     17663     17666     17669     17672
     17664     17663     17666     17667     17664     17663     17666     17668
     17664     17663     17666     17669     17665     17663     17666     17667
     17665     17663     17666     17668     17665     17663     17666     17669
     17666     17669     17672     17673     17666     17669     17672     17674
     17666     17669     17672     17675     17667     17666     17669     17670
     17667     17666     17669     17671     17667     17666     17669     17672
     17668     17666     17669     17670     17668     17666     17669     17671
     17668     17666     17669     17672     17669     17672     17675     17676
     17669     17672     17675     17677     17670     17669     17672     17673
     17670     17669     17672     17674     17670     17669     17672     17675
     17671     17669     17672     17673     17671     17669     17672     17674
     17671     17669     17672     17675     17672     17675     17677     17678
     17672     17675     17677     17679     17673     17672     17675     17676
     17673     17672     17675     17677     17674     17672     17675     17676
     17674     17672     17675     17677     17675     17677     17679     17680
     17675     17677     17679     17681     17675     17677     17679     17682
     17676     17675     17677     17678     17676     17675     17677     17679
     17677     17679     17682     17683     17677     17679     17682     17684
     17677     17679     17682     17685     17678     17677     17679     17680
     17678     17677     17679     17681     17678     17677     17679     17682
     17679     17682     17685     17686     17679     17682     17685     17687
     17679     17682     17685     17688     17680     17679     17682     17683
     17680     17679     17682     17684     17680     17679     17682     17685
     17681     17679     17682     17683     17681     17679     17682     17684
     17681     17679     17682     17685     17682     17685     17688     17689
     17682     17685     17688     17690     17682     17685     17688     17691
     17683     17682     17685     17686     17683     17682     17685     17687
     17683     17682     17685     17688     17684     17682     17685     17686
     17684     17682     17685     17687     17684     17682     17685     17688
     17685     17688     17691     17692     17685     17688     17691     17693
     17685     17688     17691     17694     17686     17685     17688     17689
     17686     17685     17688     17690     17686     17685     17688     17691
     17687     17685     17688     17689     17687     17685     17688     17690
     17687     17685     17688     17691     17688     17691     17694     17695
     17688     17691     17694     17696     17688     17691     17694     17697
     17689     17688     17691     17692     17689     17688     17691     17693
     17689     17688     17691     17694     17690     17688     17691     17692
     17690     17688     17691     17693     17690     17688     17691     17694
     17691     17694     17697     17698     17691     17694     17697     17699
     17691     17694     17697     17700     17692     17691     17694     17695
     17692     17691     17694     17696     17692     17691     17694     17697
     17693     17691     17694     17695     17693     17691     17694     17696
     17693     17691     17694     17697     17694     17697     17700     17701
     17694     17697     17700     17702     17694     17697     17700     17703
     17695     17694     17697     17698     17695     17694     17697     17699
     17695     17694     17697     17700     17696     17694     17697     17698
     17696     17694     17697     17699     17696     17694     17697     17700
     17698     17697     17700     17701     17698     17697     17700     17702
     17698     17697     17700     17703     17699     17697     17700     17701
     17699     17697     17700     17702     17699     17697     17700     17703
     17704     17707     17710     17711     17704     17707     17710     17712
     17704     17707     17710     17713     17705     17704     17707     17708
     17705     17704     17707     17709     17705     17704     17707     17710
     17706     17704     17707     17708     17706     17704     17707     17709
     17706     17704     17707     17710     17707     17710     17713     17714
     17707     17710     17713     17715     17707     17710     17713     17716
     17708     17707     17710     17711     17708     17707     17710     17712
     17708     17707     17710     17713     17709     17707     17710     17711
     17709     17707     17710     17712     17709     17707     17710     17713
     17710     17713     17716     17717     17710     17713     17716     17718
     17710     17713     17716     17719     17711     17710     17713     17714
     17711     17710     17713     17715     17711     17710     17713     17716
     17712     17710     17713     17714     17712     17710     17713     17715
     17712     17710     17713     17716     17713     17716     17719     17720
     17713     17716     17719     17721     17713     17716     17719     17722
     17714     17713     17716     17717     17714     17713     17716     17718
     17714     17713     17716     17719     17715     17713     17716     17717
     17715     17713     17716     17718     17715     17713     17716     17719
     17716     17719     17722     17723     17716     17719     17722     17724
     17717     17716     17719     17720     17717     17716     17719     17721
     17717     17716     17719     17722     17718     17716     17719     17720
     17718     17716     17719     17721     17718     17716     17719     17722
     17719     17722     17724     17725     17719     17722     17724     17726
     17720     17719     17722     17723     17720     17719     17722     17724
     17721     17719     17722     17723     17721     17719     17722     17724
     17722     17724     17726     17727     17722     17724     17726     17728
     17722     17724     17726     17729     17723     17722     17724     17725
     17723     17722     17724     17726     17724     17726     17729     17730
     17724     17726     17729     17731     17724     17726     17729     17732
     17725     17724     17726     17727     17725     17724     17726     17728
     17725     17724     17726     17729     17726     17729     17732     17733
     17726     17729     17732     17734     17726     17729     17732     17735
     17727     17726     17729     17730     17727     17726     17729     17731
     17727     17726     17729     17732     17728     17726     17729     17730
     17728     17726     17729     17731     17728     17726     17729     17732
     17729     17732     17735     17736     17729     17732     17735     17737
     17729     17732     17735     17738     17730     17729     17732     17733
     17730     17729     17732     17734     17730     17729     17732     17735
     17731     17729     17732     17733     17731     17729     17732     17734
     17731     17729     17732     17735     17732     17735     17738     17739
     17732     17735     17738     17740     17732     17735     17738     17741
     17733     17732     17735     17736     17733     17732     17735     17737
     17733     17732     17735     17738     17734     17732     17735     17736
     17734     17732     17735     17737     17734     17732     17735     17738
     17735     17738     17741     17742     17735     17738     17741     17743
     17735     17738     17741     17744     17736     17735     17738     17739
     17736     17735     17738     17740     17736     17735     17738     17741
     17737     17735     17738     17739     17737     17735     17738     17740
     17737     17735     17738     17741     17738     17741     17744     17745
     17738     17741     17744     17746     17738     17741     17744     17747
     17739     17738     17741     17742     17739     17738     17741     17743
     17739     17738     17741     17744     17740     17738     17741     17742
     17740     17738     17741     17743     17740     17738     17741     17744
     17741     17744     17747     17748     17741     17744     17747     17749
     17741     17744     17747     17750     17742     17741     17744     17745
     17742     17741     17744     17746     17742     17741     17744     17747
     17743     17741     17744     17745     17743     17741     17744     17746
     17743     17741     17744     17747     17745     17744     17747     17748
     17745     17744     17747     17749     17745     17744     17747     17750
     17746     17744     17747     17748     17746     17744     17747     17749
     17746     17744     17747     17750     17751     17752     17767     17768
     17751     17752     17767     17769     17751     17752     17767     17773
     17752     17751     17755     17756     17752     17751     17755     17757
     17752     17751     17755     17758     17752     17751     17759     17760
     17752     17751     17759     17761     17752     17751     17759     17762
     17752     17751     17763     17764     17752     17751     17763     17765
     17752     17751     17763     17766     17752     17767     17773     17770
     17753     17752     17751     17755     17753     17752     17751     17759
     17753     17752     17751     17763     17753     17752     17767     17768
     17753     17752     17767     17769     17753     17752     17767     17773
     17754     17752     17751     17755     17754     17752     17751     17759
     17754     17752     17751     17763     17754     17752     17767     17768
     17754     17752     17767     17769     17754     17752     17767     17773
     17755     17751     17752     17767     17755     17751     17759     17760
     17755     17751     17759     17761     17755     17751     17759     17762
     17755     17751     17763     17764     17755     17751     17763     17765
     17755     17751     17763     17766     17756     17755     17751     17759
     17756     17755     17751     17763     17757     17755     17751     17759
     17757     17755     17751     17763     17758     17755     17751     17759
     17758     17755     17751     17763     17759     17751     17752     17767
     17759     17751     17763     17764     17759     17751     17763     17765
     17759     17751     17763     17766     17760     17759     17751     17763
     17761     17759     17751     17763     17762     17759     17751     17763
     17763     17751     17752     17767     17767     17773     17770     17771
     17767     17773     17770     17772     17767     17773     17770     17774
     17768     17767     17773     17770     17769     17767     17773     17770
     17770     17774     17775     17776     17770     17774     17775     17777
     17770     17774     17775     17778     17771     17770     17774     17775
     17772     17770     17774     17775     17773     17770     17774     17775
     17774     17775     17778     17779     17774     17775     17778     17780
     17774     17775     17778     17786     17775     17778     17780     17781
     17775     17778     17786     17787     17775     17778     17786     17788
     17775     17778     17786     17789     17776     17775     17778     17779
     17776     17775     17778     17780     17776     17775     17778     17786
     17777     17775     17778     17779     17777     17775     17778     17780
     17777     17775     17778     17786     17778     17780     17781     17782
     17778     17780     17781     17783     17778     17786     17789     17790
     17779     17778     17780     17781     17779     17778     17786     17787
     17779     17778     17786     17788     17779     17778     17786     17789
     17780     17778     17786     17787     17780     17778     17786     17788
     17780     17778     17786     17789     17780     17781     17783     17784
     17780     17781     17783     17785     17780     17781     17783     17795
     17781     17780     17778     17786     17781     17783     17795     17796
     17781     17783     17795     17797     17781     17783     17795     17798
     17782     17781     17783     17784     17782     17781     17783     17785
     17782     17781     17783     17795     17783     17795     17798     17799
     17783     17795     17798     17800     17783     17795     17798     17801
     17784     17783     17795     17796     17784     17783     17795     17797
     17784     17783     17795     17798     17785     17783     17795     17796
     17785     17783     17795     17797     17785     17783     17795     17798
     17786     17789     17790     17791     17786     17789     17790     17792
     17787     17786     17789     17790     17788     17786     17789     17790
     17789     17790     17792     17793     17789     17790     17792     17794
     17789     17790     17792     17842     17790     17792     17842     17843
     17790     17792     17842     17844     17790     17792     17842     17845
     17791     17790     17792     17793     17791     17790     17792     17794
     17791     17790     17792     17842     17792     17842     17845     17846
     17792     17842     17845     17847     17792     17842     17845     17848
     17793     17792     17842     17843     17793     17792     17842     17844
     17793     17792     17842     17845     17794     17792     17842     17843
     17794     17792     17842     17844     17794     17792     17842     17845
     17795     17798     17801     17802     17795     17798     17801     17803
     17795     17798     17801     17804     17796     17795     17798     17799
     17796     17795     17798     17800     17796     17795     17798     17801
     17797     17795     17798     17799     17797     17795     17798     17800
     17797     17795     17798     17801     17798     17801     17804     17805
     17798     17801     17804     17806     17798     17801     17804     17807
     17799     17798     17801     17802     17799     17798     17801     17803
     17799     17798     17801     17804     17800     17798     17801     17802
     17800     17798     17801     17803     17800     17798     17801     17804
     17801     17804     17807     17808     17801     17804     17807     17809
     17801     17804     17807     17810     17802     17801     17804     17805
     17802     17801     17804     17806     17802     17801     17804     17807
     17803     17801     17804     17805     17803     17801     17804     17806
     17803     17801     17804     17807     17804     17807     17810     17811
     17804     17807     17810     17812     17804     17807     17810     17813
     17805     17804     17807     17808     17805     17804     17807     17809
     17805     17804     17807     17810     17806     17804     17807     17808
     17806     17804     17807     17809     17806     17804     17807     17810
     17807     17810     17813     17814     17807     17810     17813     17815
     17808     17807     17810     17811     17808     17807     17810     17812
     17808     17807     17810     17813     17809     17807     17810     17811
     17809     17807     17810     17812     17809     17807     17810     17813
     17810     17813     17815     17816     17810     17813     17815     17817
     17811     17810     17813     17814     17811     17810     17813     17815
     17812     17810     17813     17814     17812     17810     17813     17815
     17813     17815     17817     17818     17813     17815     17817     17819
     17813     17815     17817     17820     17814     17813     17815     17816
     17814     17813     17815     17817     17815     17817     17820     17821
     17815     17817     17820     17822     17815     17817     17820     17823
     17816     17815     17817     17818     17816     17815     17817     17819
     17816     17815     17817     17820     17817     17820     17823     17824
     17817     17820     17823     17825     17817     17820     17823     17826
     17818     17817     17820     17821     17818     17817     17820     17822
     17818     17817     17820     17823     17819     17817     17820     17821
     17819     17817     17820     17822     17819     17817     17820     17823
     17820     17823     17826     17827     17820     17823     17826     17828
     17820     17823     17826     17829     17821     17820     17823     17824
     17821     17820     17823     17825     17821     17820     17823     17826
     17822     17820     17823     17824     17822     17820     17823     17825
     17822     17820     17823     17826     17823     17826     17829     17830
     17823     17826     17829     17831     17823     17826     17829     17832
     17824     17823     17826     17827     17824     17823     17826     17828
     17824     17823     17826     17829     17825     17823     17826     17827
     17825     17823     17826     17828     17825     17823     17826     17829
     17826     17829     17832     17833     17826     17829     17832     17834
     17826     17829     17832     17835     17827     17826     17829     17830
     17827     17826     17829     17831     17827     17826     17829     17832
     17828     17826     17829     17830     17828     17826     17829     17831
     17828     17826     17829     17832     17829     17832     17835     17836
     17829     17832     17835     17837     17829     17832     17835     17838
     17830     17829     17832     17833     17830     17829     17832     17834
     17830     17829     17832     17835     17831     17829     17832     17833
     17831     17829     17832     17834     17831     17829     17832     17835
     17832     17835     17838     17839     17832     17835     17838     17840
     17832     17835     17838     17841     17833     17832     17835     17836
     17833     17832     17835     17837     17833     17832     17835     17838
     17834     17832     17835     17836     17834     17832     17835     17837
     17834     17832     17835     17838     17836     17835     17838     17839
     17836     17835     17838     17840     17836     17835     17838     17841
     17837     17835     17838     17839     17837     17835     17838     17840
     17837     17835     17838     17841     17842     17845     17848     17849
     17842     17845     17848     17850     17842     17845     17848     17851
     17843     17842     17845     17846     17843     17842     17845     17847
     17843     17842     17845     17848     17844     17842     17845     17846
     17844     17842     17845     17847     17844     17842     17845     17848
     17845     17848     17851     17852     17845     17848     17851     17853
     17845     17848     17851     17854     17846     17845     17848     17849
     17846     17845     17848     17850     17846     17845     17848     17851
     17847     17845     17848     17849     17847     17845     17848     17850
     17847     17845     17848     17851     17848     17851     17854     17855
     17848     17851     17854     17856     17848     17851     17854     17857
     17849     17848     17851     17852     17849     17848     17851     17853
     17849     17848     17851     17854     17850     17848     17851     17852
     17850     17848     17851     17853     17850     17848     17851     17854
     17851     17854     17857     17858     17851     17854     17857     17859
     17851     17854     17857     17860     17852     17851     17854     17855
     17852     17851     17854     17856     17852     17851     17854     17857
     17853     17851     17854     17855     17853     17851     17854     17856
     17853     17851     17854     17857     17854     17857     17860     17861
     17854     17857     17860     17862     17855     17854     17857     17858
     17855     17854     17857     17859     17855     17854     17857     17860
     17856     17854     17857     17858     17856     17854     17857     17859
     17856     17854     17857     17860     17857     17860     17862     17863
     17857     17860     17862     17864     17858     17857     17860     17861
     17858     17857     17860     17862     17859     17857     17860     17861
     17859     17857     17860     17862     17860     17862     17864     17865
     17860     17862     17864     17866     17860     17862     17864     17867
     17861     17860     17862     17863     17861     17860     17862     17864
     17862     17864     17867     17868     17862     17864     17867     17869
     17862     17864     17867     17870     17863     17862     17864     17865
     17863     17862     17864     17866     17863     17862     17864     17867
     17864     17867     17870     17871     17864     17867     17870     17872
     17864     17867     17870     17873     17865     17864     17867     17868
     17865     17864     17867     17869     17865     17864     17867     17870
     17866     17864     17867     17868     17866     17864     17867     17869
     17866     17864     17867     17870     17867     17870     17873     17874
     17867     17870     17873     17875     17867     17870     17873     17876
     17868     17867     17870     17871     17868     17867     17870     17872
     17868     17867     17870     17873     17869     17867     17870     17871
     17869     17867     17870     17872     17869     17867     17870     17873
     17870     17873     17876     17877     17870     17873     17876     17878
     17870     17873     17876     17879     17871     17870     17873     17874
     17871     17870     17873     17875     17871     17870     17873     17876
     17872     17870     17873     17874     17872     17870     17873     17875
     17872     17870     17873     17876     17873     17876     17879     17880
     17873     17876     17879     17881     17873     17876     17879     17882
     17874     17873     17876     17877     17874     17873     17876     17878
     17874     17873     17876     17879     17875     17873     17876     17877
     17875     17873     17876     17878     17875     17873     17876     17879
     17876     17879     17882     17883     17876     17879     17882     17884
     17876     17879     17882     17885     17877     17876     17879     17880
     17877     17876     17879     17881     17877     17876     17879     17882
     17878     17876     17879     17880     17878     17876     17879     17881
     17878     17876     17879     17882     17879     17882     17885     17886
     17879     17882     17885     17887     17879     17882     17885     17888
     17880     17879     17882     17883     17880     17879     17882     17884
     17880     17879     17882     17885     17881     17879     17882     17883
     17881     17879     17882     17884     17881     17879     17882     17885
     17883     17882     17885     17886     17883     17882     17885     17887
     17883     17882     17885     17888     17884     17882     17885     17886
     17884     17882     17885     17887     17884     17882     17885     17888
     17889     17890     17905     17906     17889     17890     17905     17907
     17889     17890     17905     17911     17890     17889     17893     17894
     17890     17889     17893     17895     17890     17889     17893     17896
     17890     17889     17897     17898     17890     17889     17897     17899
     17890     17889     17897     17900     17890     17889     17901     17902
     17890     17889     17901     17903     17890     17889     17901     17904
     17890     17905     17911     17908     17891     17890     17889     17893
     17891     17890     17889     17897     17891     17890     17889     17901
     17891     17890     17905     17906     17891     17890     17905     17907
     17891     17890     17905     17911     17892     17890     17889     17893
     17892     17890     17889     17897     17892     17890     17889     17901
     17892     17890     17905     17906     17892     17890     17905     17907
     17892     17890     17905     17911     17893     17889     17890     17905
     17893     17889     17897     17898     17893     17889     17897     17899
     17893     17889     17897     17900     17893     17889     17901     17902
     17893     17889     17901     17903     17893     17889     17901     17904
     17894     17893     17889     17897     17894     17893     17889     17901
     17895     17893     17889     17897     17895     17893     17889     17901
     17896     17893     17889     17897     17896     17893     17889     17901
     17897     17889     17890     17905     17897     17889     17901     17902
     17897     17889     17901     17903     17897     17889     17901     17904
     17898     17897     17889     17901     17899     17897     17889     17901
     17900     17897     17889     17901     17901     17889     17890     17905
     17905     17911     17908     17909     17905     17911     17908     17910
     17905     17911     17908     17912     17906     17905     17911     17908
     17907     17905     17911     17908     17908     17912     17913     17914
     17908     17912     17913     17915     17908     17912     17913     17916
     17909     17908     17912     17913     17910     17908     17912     17913
     17911     17908     17912     17913     17912     17913     17916     17917
     17912     17913     17916     17918     17912     17913     17916     17924
     17913     17916     17918     17919     17913     17916     17924     17925
     17913     17916     17924     17926     17913     17916     17924     17927
     17914     17913     17916     17917     17914     17913     17916     17918
     17914     17913     17916     17924     17915     17913     17916     17917
     17915     17913     17916     17918     17915     17913     17916     17924
     17916     17918     17919     17920     17916     17918     17919     17921
     17916     17924     17927     17928     17917     17916     17918     17919
     17917     17916     17924     17925     17917     17916     17924     17926
     17917     17916     17924     17927     17918     17916     17924     17925
     17918     17916     17924     17926     17918     17916     17924     17927
     17918     17919     17921     17922     17918     17919     17921     17923
     17918     17919     17921     17933     17919     17918     17916     17924
     17919     17921     17933     17934     17919     17921     17933     17935
     17919     17921     17933     17936     17920     17919     17921     17922
     17920     17919     17921     17923     17920     17919     17921     17933
     17921     17933     17936     17937     17921     17933     17936     17938
     17921     17933     17936     17939     17922     17921     17933     17934
     17922     17921     17933     17935     17922     17921     17933     17936
     17923     17921     17933     17934     17923     17921     17933     17935
     17923     17921     17933     17936     17924     17927     17928     17929
     17924     17927     17928     17930     17925     17924     17927     17928
     17926     17924     17927     17928     17927     17928     17930     17931
     17927     17928     17930     17932     17927     17928     17930     17980
     17928     17930     17980     17981     17928     17930     17980     17982
     17928     17930     17980     17983     17929     17928     17930     17931
     17929     17928     17930     17932     17929     17928     17930     17980
     17930     17980     17983     17984     17930     17980     17983     17985
     17930     17980     17983     17986     17931     17930     17980     17981
     17931     17930     17980     17982     17931     17930     17980     17983
     17932     17930     17980     17981     17932     17930     17980     17982
     17932     17930     17980     17983     17933     17936     17939     17940
     17933     17936     17939     17941     17933     17936     17939     17942
     17934     17933     17936     17937     17934     17933     17936     17938
     17934     17933     17936     17939     17935     17933     17936     17937
     17935     17933     17936     17938     17935     17933     17936     17939
     17936     17939     17942     17943     17936     17939     17942     17944
     17936     17939     17942     17945     17937     17936     17939     17940
     17937     17936     17939     17941     17937     17936     17939     17942
     17938     17936     17939     17940     17938     17936     17939     17941
     17938     17936     17939     17942     17939     17942     17945     17946
     17939     17942     17945     17947     17939     17942     17945     17948
     17940     17939     17942     17943     17940     17939     17942     17944
     17940     17939     17942     17945     17941     17939     17942     17943
     17941     17939     17942     17944     17941     17939     17942     17945
     17942     17945     17948     17949     17942     17945     17948     17950
     17942     17945     17948     17951     17943     17942     17945     17946
     17943     17942     17945     17947     17943     17942     17945     17948
     17944     17942     17945     17946     17944     17942     17945     17947
     17944     17942     17945     17948     17945     17948     17951     17952
     17945     17948     17951     17953     17946     17945     17948     17949
     17946     17945     17948     17950     17946     17945     17948     17951
     17947     17945     17948     17949     17947     17945     17948     17950
     17947     17945     17948     17951     17948     17951     17953     17954
     17948     17951     17953     17955     17949     17948     17951     17952
     17949     17948     17951     17953     17950     17948     17951     17952
     17950     17948     17951     17953     17951     17953     17955     17956
     17951     17953     17955     17957     17951     17953     17955     17958
     17952     17951     17953     17954     17952     17951     17953     17955
     17953     17955     17958     17959     17953     17955     17958     17960
     17953     17955     17958     17961     17954     17953     17955     17956
     17954     17953     17955     17957     17954     17953     17955     17958
     17955     17958     17961     17962     17955     17958     17961     17963
     17955     17958     17961     17964     17956     17955     17958     17959
     17956     17955     17958     17960     17956     17955     17958     17961
     17957     17955     17958     17959     17957     17955     17958     17960
     17957     17955     17958     17961     17958     17961     17964     17965
     17958     17961     17964     17966     17958     17961     17964     17967
     17959     17958     17961     17962     17959     17958     17961     17963
     17959     17958     17961     17964     17960     17958     17961     17962
     17960     17958     17961     17963     17960     17958     17961     17964
     17961     17964     17967     17968     17961     17964     17967     17969
     17961     17964     17967     17970     17962     17961     17964     17965
     17962     17961     17964     17966     17962     17961     17964     17967
     17963     17961     17964     17965     17963     17961     17964     17966
     17963     17961     17964     17967     17964     17967     17970     17971
     17964     17967     17970     17972     17964     17967     17970     17973
     17965     17964     17967     17968     17965     17964     17967     17969
     17965     17964     17967     17970     17966     17964     17967     17968
     17966     17964     17967     17969     17966     17964     17967     17970
     17967     17970     17973     17974     17967     17970     17973     17975
     17967     17970     17973     17976     17968     17967     17970     17971
     17968     17967     17970     17972     17968     17967     17970     17973
     17969     17967     17970     17971     17969     17967     17970     17972
     17969     17967     17970     17973     17970     17973     17976     17977
     17970     17973     17976     17978     17970     17973     17976     17979
     17971     17970     17973     17974     17971     17970     17973     17975
     17971     17970     17973     17976     17972     17970     17973     17974
     17972     17970     17973     17975     17972     17970     17973     17976
     17974     17973     17976     17977     17974     17973     17976     17978
     17974     17973     17976     17979     17975     17973     17976     17977
     17975     17973     17976     17978     17975     17973     17976     17979
     17980     17983     17986     17987     17980     17983     17986     17988
     17980     17983     17986     17989     17981     17980     17983     17984
     17981     17980     17983     17985     17981     17980     17983     17986
     17982     17980     17983     17984     17982     17980     17983     17985
     17982     17980     17983     17986     17983     17986     17989     17990
     17983     17986     17989     17991     17983     17986     17989     17992
     17984     17983     17986     17987     17984     17983     17986     17988
     17984     17983     17986     17989     17985     17983     17986     17987
     17985     17983     17986     17988     17985     17983     17986     17989
     17986     17989     17992     17993     17986     17989     17992     17994
     17986     17989     17992     17995     17987     17986     17989     17990
     17987     17986     17989     17991     17987     17986     17989     17992
     17988     17986     17989     17990     17988     17986     17989     17991
     17988     17986     17989     17992     17989     17992     17995     17996
     17989     17992     17995     17997     17989     17992     17995     17998
     17990     17989     17992     17993     17990     17989     17992     17994
     17990     17989     17992     17995     17991     17989     17992     17993
     17991     17989     17992     17994     17991     17989     17992     17995
     17992     17995     17998     17999     17992     17995     17998     18000
     17993     17992     17995     17996     17993     17992     17995     17997
     17993     17992     17995     17998     17994     17992     17995     17996
     17994     17992     17995     17997     17994     17992     17995     17998
     17995     17998     18000     18001     17995     17998     18000     18002
     17996     17995     17998     17999     17996     17995     17998     18000
     17997     17995     17998     17999     17997     17995     17998     18000
     17998     18000     18002     18003     17998     18000     18002     18004
     17998     18000     18002     18005     17999     17998     18000     18001
     17999     17998     18000     18002     18000     18002     18005     18006
     18000     18002     18005     18007     18000     18002     18005     18008
     18001     18000     18002     18003     18001     18000     18002     18004
     18001     18000     18002     18005     18002     18005     18008     18009
     18002     18005     18008     18010     18002     18005     18008     18011
     18003     18002     18005     18006     18003     18002     18005     18007
     18003     18002     18005     18008     18004     18002     18005     18006
     18004     18002     18005     18007     18004     18002     18005     18008
     18005     18008     18011     18012     18005     18008     18011     18013
     18005     18008     18011     18014     18006     18005     18008     18009
     18006     18005     18008     18010     18006     18005     18008     18011
     18007     18005     18008     18009     18007     18005     18008     18010
     18007     18005     18008     18011     18008     18011     18014     18015
     18008     18011     18014     18016     18008     18011     18014     18017
     18009     18008     18011     18012     18009     18008     18011     18013
     18009     18008     18011     18014     18010     18008     18011     18012
     18010     18008     18011     18013     18010     18008     18011     18014
     18011     18014     18017     18018     18011     18014     18017     18019
     18011     18014     18017     18020     18012     18011     18014     18015
     18012     18011     18014     18016     18012     18011     18014     18017
     18013     18011     18014     18015     18013     18011     18014     18016
     18013     18011     18014     18017     18014     18017     18020     18021
     18014     18017     18020     18022     18014     18017     18020     18023
     18015     18014     18017     18018     18015     18014     18017     18019
     18015     18014     18017     18020     18016     18014     18017     18018
     18016     18014     18017     18019     18016     18014     18017     18020
     18017     18020     18023     18024     18017     18020     18023     18025
     18017     18020     18023     18026     18018     18017     18020     18021
     18018     18017     18020     18022     18018     18017     18020     18023
     18019     18017     18020     18021     18019     18017     18020     18022
     18019     18017     18020     18023     18021     18020     18023     18024
     18021     18020     18023     18025     18021     18020     18023     18026
     18022     18020     18023     18024     18022     18020     18023     18025
     18022     18020     18023     18026     18027     18028     18043     18044
     18027     18028     18043     18045     18027     18028     18043     18049
     18028     18027     18031     18032     18028     18027     18031     18033
     18028     18027     18031     18034     18028     18027     18035     18036
     18028     18027     18035     18037     18028     18027     18035     18038
     18028     18027     18039     18040     18028     18027     18039     18041
     18028     18027     18039     18042     18028     18043     18049     18046
     18029     18028     18027     18031     18029     18028     18027     18035
     18029     18028     18027     18039     18029     18028     18043     18044
     18029     18028     18043     18045     18029     18028     18043     18049
     18030     18028     18027     18031     18030     18028     18027     18035
     18030     18028     18027     18039     18030     18028     18043     18044
     18030     18028     18043     18045     18030     18028     18043     18049
     18031     18027     18028     18043     18031     18027     18035     18036
     18031     18027     18035     18037     18031     18027     18035     18038
     18031     18027     18039     18040     18031     18027     18039     18041
     18031     18027     18039     18042     18032     18031     18027     18035
     18032     18031     18027     18039     18033     18031     18027     18035
     18033     18031     18027     18039     18034     18031     18027     18035
     18034     18031     18027     18039     18035     18027     18028     18043
     18035     18027     18039     18040     18035     18027     18039     18041
     18035     18027     18039     18042     18036     18035     18027     18039
     18037     18035     18027     18039     18038     18035     18027     18039
     18039     18027     18028     18043     18043     18049     18046     18047
     18043     18049     18046     18048     18043     18049     18046     18050
     18044     18043     18049     18046     18045     18043     18049     18046
     18046     18050     18051     18052     18046     18050     18051     18053
     18046     18050     18051     18054     18047     18046     18050     18051
     18048     18046     18050     18051     18049     18046     18050     18051
     18050     18051     18054     18055     18050     18051     18054     18056
     18050     18051     18054     18062     18051     18054     18056     18057
     18051     18054     18062     18063     18051     18054     18062     18064
     18051     18054     18062     18065     18052     18051     18054     18055
     18052     18051     18054     18056     18052     18051     18054     18062
     18053     18051     18054     18055     18053     18051     18054     18056
     18053     18051     18054     18062     18054     18056     18057     18058
     18054     18056     18057     18059     18054     18062     18065     18066
     18055     18054     18056     18057     18055     18054     18062     18063
     18055     18054     18062     18064     18055     18054     18062     18065
     18056     18054     18062     18063     18056     18054     18062     18064
     18056     18054     18062     18065     18056     18057     18059     18060
     18056     18057     18059     18061     18056     18057     18059     18071
     18057     18056     18054     18062     18057     18059     18071     18072
     18057     18059     18071     18073     18057     18059     18071     18074
     18058     18057     18059     18060     18058     18057     18059     18061
     18058     18057     18059     18071     18059     18071     18074     18075
     18059     18071     18074     18076     18059     18071     18074     18077
     18060     18059     18071     18072     18060     18059     18071     18073
     18060     18059     18071     18074     18061     18059     18071     18072
     18061     18059     18071     18073     18061     18059     18071     18074
     18062     18065     18066     18067     18062     18065     18066     18068
     18063     18062     18065     18066     18064     18062     18065     18066
     18065     18066     18068     18069     18065     18066     18068     18070
     18065     18066     18068     18118     18066     18068     18118     18119
     18066     18068     18118     18120     18066     18068     18118     18121
     18067     18066     18068     18069     18067     18066     18068     18070
     18067     18066     18068     18118     18068     18118     18121     18122
     18068     18118     18121     18123     18068     18118     18121     18124
     18069     18068     18118     18119     18069     18068     18118     18120
     18069     18068     18118     18121     18070     18068     18118     18119
     18070     18068     18118     18120     18070     18068     18118     18121
     18071     18074     18077     18078     18071     18074     18077     18079
     18071     18074     18077     18080     18072     18071     18074     18075
     18072     18071     18074     18076     18072     18071     18074     18077
     18073     18071     18074     18075     18073     18071     18074     18076
     18073     18071     18074     18077     18074     18077     18080     18081
     18074     18077     18080     18082     18074     18077     18080     18083
     18075     18074     18077     18078     18075     18074     18077     18079
     18075     18074     18077     18080     18076     18074     18077     18078
     18076     18074     18077     18079     18076     18074     18077     18080
     18077     18080     18083     18084     18077     18080     18083     18085
     18077     18080     18083     18086     18078     18077     18080     18081
     18078     18077     18080     18082     18078     18077     18080     18083
     18079     18077     18080     18081     18079     18077     18080     18082
     18079     18077     18080     18083     18080     18083     18086     18087
     18080     18083     18086     18088     18080     18083     18086     18089
     18081     18080     18083     18084     18081     18080     18083     18085
     18081     18080     18083     18086     18082     18080     18083     18084
     18082     18080     18083     18085     18082     18080     18083     18086
     18083     18086     18089     18090     18083     18086     18089     18091
     18084     18083     18086     18087     18084     18083     18086     18088
     18084     18083     18086     18089     18085     18083     18086     18087
     18085     18083     18086     18088     18085     18083     18086     18089
     18086     18089     18091     18092     18086     18089     18091     18093
     18087     18086     18089     18090     18087     18086     18089     18091
     18088     18086     18089     18090     18088     18086     18089     18091
     18089     18091     18093     18094     18089     18091     18093     18095
     18089     18091     18093     18096     18090     18089     18091     18092
     18090     18089     18091     18093     18091     18093     18096     18097
     18091     18093     18096     18098     18091     18093     18096     18099
     18092     18091     18093     18094     18092     18091     18093     18095
     18092     18091     18093     18096     18093     18096     18099     18100
     18093     18096     18099     18101     18093     18096     18099     18102
     18094     18093     18096     18097     18094     18093     18096     18098
     18094     18093     18096     18099     18095     18093     18096     18097
     18095     18093     18096     18098     18095     18093     18096     18099
     18096     18099     18102     18103     18096     18099     18102     18104
     18096     18099     18102     18105     18097     18096     18099     18100
     18097     18096     18099     18101     18097     18096     18099     18102
     18098     18096     18099     18100     18098     18096     18099     18101
     18098     18096     18099     18102     18099     18102     18105     18106
     18099     18102     18105     18107     18099     18102     18105     18108
     18100     18099     18102     18103     18100     18099     18102     18104
     18100     18099     18102     18105     18101     18099     18102     18103
     18101     18099     18102     18104     18101     18099     18102     18105
     18102     18105     18108     18109     18102     18105     18108     18110
     18102     18105     18108     18111     18103     18102     18105     18106
     18103     18102     18105     18107     18103     18102     18105     18108
     18104     18102     18105     18106     18104     18102     18105     18107
     18104     18102     18105     18108     18105     18108     18111     18112
     18105     18108     18111     18113     18105     18108     18111     18114
     18106     18105     18108     18109     18106     18105     18108     18110
     18106     18105     18108     18111     18107     18105     18108     18109
     18107     18105     18108     18110     18107     18105     18108     18111
     18108     18111     18114     18115     18108     18111     18114     18116
     18108     18111     18114     18117     18109     18108     18111     18112
     18109     18108     18111     18113     18109     18108     18111     18114
     18110     18108     18111     18112     18110     18108     18111     18113
     18110     18108     18111     18114     18112     18111     18114     18115
     18112     18111     18114     18116     18112     18111     18114     18117
     18113     18111     18114     18115     18113     18111     18114     18116
     18113     18111     18114     18117     18118     18121     18124     18125
     18118     18121     18124     18126     18118     18121     18124     18127
     18119     18118     18121     18122     18119     18118     18121     18123
     18119     18118     18121     18124     18120     18118     18121     18122
     18120     18118     18121     18123     18120     18118     18121     18124
     18121     18124     18127     18128     18121     18124     18127     18129
     18121     18124     18127     18130     18122     18121     18124     18125
     18122     18121     18124     18126     18122     18121     18124     18127
     18123     18121     18124     18125     18123     18121     18124     18126
     18123     18121     18124     18127     18124     18127     18130     18131
     18124     18127     18130     18132     18124     18127     18130     18133
     18125     18124     18127     18128     18125     18124     18127     18129
     18125     18124     18127     18130     18126     18124     18127     18128
     18126     18124     18127     18129     18126     18124     18127     18130
     18127     18130     18133     18134     18127     18130     18133     18135
     18127     18130     18133     18136     18128     18127     18130     18131
     18128     18127     18130     18132     18128     18127     18130     18133
     18129     18127     18130     18131     18129     18127     18130     18132
     18129     18127     18130     18133     18130     18133     18136     18137
     18130     18133     18136     18138     18131     18130     18133     18134
     18131     18130     18133     18135     18131     18130     18133     18136
     18132     18130     18133     18134     18132     18130     18133     18135
     18132     18130     18133     18136     18133     18136     18138     18139
     18133     18136     18138     18140     18134     18133     18136     18137
     18134     18133     18136     18138     18135     18133     18136     18137
     18135     18133     18136     18138     18136     18138     18140     18141
     18136     18138     18140     18142     18136     18138     18140     18143
     18137     18136     18138     18139     18137     18136     18138     18140
     18138     18140     18143     18144     18138     18140     18143     18145
     18138     18140     18143     18146     18139     18138     18140     18141
     18139     18138     18140     18142     18139     18138     18140     18143
     18140     18143     18146     18147     18140     18143     18146     18148
     18140     18143     18146     18149     18141     18140     18143     18144
     18141     18140     18143     18145     18141     18140     18143     18146
     18142     18140     18143     18144     18142     18140     18143     18145
     18142     18140     18143     18146     18143     18146     18149     18150
     18143     18146     18149     18151     18143     18146     18149     18152
     18144     18143     18146     18147     18144     18143     18146     18148
     18144     18143     18146     18149     18145     18143     18146     18147
     18145     18143     18146     18148     18145     18143     18146     18149
     18146     18149     18152     18153     18146     18149     18152     18154
     18146     18149     18152     18155     18147     18146     18149     18150
     18147     18146     18149     18151     18147     18146     18149     18152
     18148     18146     18149     18150     18148     18146     18149     18151
     18148     18146     18149     18152     18149     18152     18155     18156
     18149     18152     18155     18157     18149     18152     18155     18158
     18150     18149     18152     18153     18150     18149     18152     18154
     18150     18149     18152     18155     18151     18149     18152     18153
     18151     18149     18152     18154     18151     18149     18152     18155
     18152     18155     18158     18159     18152     18155     18158     18160
     18152     18155     18158     18161     18153     18152     18155     18156
     18153     18152     18155     18157     18153     18152     18155     18158
     18154     18152     18155     18156     18154     18152     18155     18157
     18154     18152     18155     18158     18155     18158     18161     18162
     18155     18158     18161     18163     18155     18158     18161     18164
     18156     18155     18158     18159     18156     18155     18158     18160
     18156     18155     18158     18161     18157     18155     18158     18159
     18157     18155     18158     18160     18157     18155     18158     18161
     18159     18158     18161     18162     18159     18158     18161     18163
     18159     18158     18161     18164     18160     18158     18161     18162
     18160     18158     18161     18163     18160     18158     18161     18164
     18165     18166     18181     18182     18165     18166     18181     18183
     18165     18166     18181     18187     18166     18165     18169     18170
     18166     18165     18169     18171     18166     18165     18169     18172
     18166     18165     18173     18174     18166     18165     18173     18175
     18166     18165     18173     18176     18166     18165     18177     18178
     18166     18165     18177     18179     18166     18165     18177     18180
     18166     18181     18187     18184     18167     18166     18165     18169
     18167     18166     18165     18173     18167     18166     18165     18177
     18167     18166     18181     18182     18167     18166     18181     18183
     18167     18166     18181     18187     18168     18166     18165     18169
     18168     18166     18165     18173     18168     18166     18165     18177
     18168     18166     18181     18182     18168     18166     18181     18183
     18168     18166     18181     18187     18169     18165     18166     18181
     18169     18165     18173     18174     18169     18165     18173     18175
     18169     18165     18173     18176     18169     18165     18177     18178
     18169     18165     18177     18179     18169     18165     18177     18180
     18170     18169     18165     18173     18170     18169     18165     18177
     18171     18169     18165     18173     18171     18169     18165     18177
     18172     18169     18165     18173     18172     18169     18165     18177
     18173     18165     18166     18181     18173     18165     18177     18178
     18173     18165     18177     18179     18173     18165     18177     18180
     18174     18173     18165     18177     18175     18173     18165     18177
     18176     18173     18165     18177     18177     18165     18166     18181
     18181     18187     18184     18185     18181     18187     18184     18186
     18181     18187     18184     18188     18182     18181     18187     18184
     18183     18181     18187     18184     18184     18188     18189     18190
     18184     18188     18189     18191     18184     18188     18189     18192
     18185     18184     18188     18189     18186     18184     18188     18189
     18187     18184     18188     18189     18188     18189     18192     18193
     18188     18189     18192     18194     18188     18189     18192     18200
     18189     18192     18194     18195     18189     18192     18200     18201
     18189     18192     18200     18202     18189     18192     18200     18203
     18190     18189     18192     18193     18190     18189     18192     18194
     18190     18189     18192     18200     18191     18189     18192     18193
     18191     18189     18192     18194     18191     18189     18192     18200
     18192     18194     18195     18196     18192     18194     18195     18197
     18192     18200     18203     18204     18193     18192     18194     18195
     18193     18192     18200     18201     18193     18192     18200     18202
     18193     18192     18200     18203     18194     18192     18200     18201
     18194     18192     18200     18202     18194     18192     18200     18203
     18194     18195     18197     18198     18194     18195     18197     18199
     18194     18195     18197     18209     18195     18194     18192     18200
     18195     18197     18209     18210     18195     18197     18209     18211
     18195     18197     18209     18212     18196     18195     18197     18198
     18196     18195     18197     18199     18196     18195     18197     18209
     18197     18209     18212     18213     18197     18209     18212     18214
     18197     18209     18212     18215     18198     18197     18209     18210
     18198     18197     18209     18211     18198     18197     18209     18212
     18199     18197     18209     18210     18199     18197     18209     18211
     18199     18197     18209     18212     18200     18203     18204     18205
     18200     18203     18204     18206     18201     18200     18203     18204
     18202     18200     18203     18204     18203     18204     18206     18207
     18203     18204     18206     18208     18203     18204     18206     18256
     18204     18206     18256     18257     18204     18206     18256     18258
     18204     18206     18256     18259     18205     18204     18206     18207
     18205     18204     18206     18208     18205     18204     18206     18256
     18206     18256     18259     18260     18206     18256     18259     18261
     18206     18256     18259     18262     18207     18206     18256     18257
     18207     18206     18256     18258     18207     18206     18256     18259
     18208     18206     18256     18257     18208     18206     18256     18258
     18208     18206     18256     18259     18209     18212     18215     18216
     18209     18212     18215     18217     18209     18212     18215     18218
     18210     18209     18212     18213     18210     18209     18212     18214
     18210     18209     18212     18215     18211     18209     18212     18213
     18211     18209     18212     18214     18211     18209     18212     18215
     18212     18215     18218     18219     18212     18215     18218     18220
     18212     18215     18218     18221     18213     18212     18215     18216
     18213     18212     18215     18217     18213     18212     18215     18218
     18214     18212     18215     18216     18214     18212     18215     18217
     18214     18212     18215     18218     18215     18218     18221     18222
     18215     18218     18221     18223     18215     18218     18221     18224
     18216     18215     18218     18219     18216     18215     18218     18220
     18216     18215     18218     18221     18217     18215     18218     18219
     18217     18215     18218     18220     18217     18215     18218     18221
     18218     18221     18224     18225     18218     18221     18224     18226
     18218     18221     18224     18227     18219     18218     18221     18222
     18219     18218     18221     18223     18219     18218     18221     18224
     18220     18218     18221     18222     18220     18218     18221     18223
     18220     18218     18221     18224     18221     18224     18227     18228
     18221     18224     18227     18229     18222     18221     18224     18225
     18222     18221     18224     18226     18222     18221     18224     18227
     18223     18221     18224     18225     18223     18221     18224     18226
     18223     18221     18224     18227     18224     18227     18229     18230
     18224     18227     18229     18231     18225     18224     18227     18228
     18225     18224     18227     18229     18226     18224     18227     18228
     18226     18224     18227     18229     18227     18229     18231     18232
     18227     18229     18231     18233     18227     18229     18231     18234
     18228     18227     18229     18230     18228     18227     18229     18231
     18229     18231     18234     18235     18229     18231     18234     18236
     18229     18231     18234     18237     18230     18229     18231     18232
     18230     18229     18231     18233     18230     18229     18231     18234
     18231     18234     18237     18238     18231     18234     18237     18239
     18231     18234     18237     18240     18232     18231     18234     18235
     18232     18231     18234     18236     18232     18231     18234     18237
     18233     18231     18234     18235     18233     18231     18234     18236
     18233     18231     18234     18237     18234     18237     18240     18241
     18234     18237     18240     18242     18234     18237     18240     18243
     18235     18234     18237     18238     18235     18234     18237     18239
     18235     18234     18237     18240     18236     18234     18237     18238
     18236     18234     18237     18239     18236     18234     18237     18240
     18237     18240     18243     18244     18237     18240     18243     18245
     18237     18240     18243     18246     18238     18237     18240     18241
     18238     18237     18240     18242     18238     18237     18240     18243
     18239     18237     18240     18241     18239     18237     18240     18242
     18239     18237     18240     18243     18240     18243     18246     18247
     18240     18243     18246     18248     18240     18243     18246     18249
     18241     18240     18243     18244     18241     18240     18243     18245
     18241     18240     18243     18246     18242     18240     18243     18244
     18242     18240     18243     18245     18242     18240     18243     18246
     18243     18246     18249     18250     18243     18246     18249     18251
     18243     18246     18249     18252     18244     18243     18246     18247
     18244     18243     18246     18248     18244     18243     18246     18249
     18245     18243     18246     18247     18245     18243     18246     18248
     18245     18243     18246     18249     18246     18249     18252     18253
     18246     18249     18252     18254     18246     18249     18252     18255
     18247     18246     18249     18250     18247     18246     18249     18251
     18247     18246     18249     18252     18248     18246     18249     18250
     18248     18246     18249     18251     18248     18246     18249     18252
     18250     18249     18252     18253     18250     18249     18252     18254
     18250     18249     18252     18255     18251     18249     18252     18253
     18251     18249     18252     18254     18251     18249     18252     18255
     18256     18259     18262     18263     18256     18259     18262     18264
     18256     18259     18262     18265     18257     18256     18259     18260
     18257     18256     18259     18261     18257     18256     18259     18262
     18258     18256     18259     18260     18258     18256     18259     18261
     18258     18256     18259     18262     18259     18262     18265     18266
     18259     18262     18265     18267     18259     18262     18265     18268
     18260     18259     18262     18263     18260     18259     18262     18264
     18260     18259     18262     18265     18261     18259     18262     18263
     18261     18259     18262     18264     18261     18259     18262     18265
     18262     18265     18268     18269     18262     18265     18268     18270
     18262     18265     18268     18271     18263     18262     18265     18266
     18263     18262     18265     18267     18263     18262     18265     18268
     18264     18262     18265     18266     18264     18262     18265     18267
     18264     18262     18265     18268     18265     18268     18271     18272
     18265     18268     18271     18273     18265     18268     18271     18274
     18266     18265     18268     18269     18266     18265     18268     18270
     18266     18265     18268     18271     18267     18265     18268     18269
     18267     18265     18268     18270     18267     18265     18268     18271
     18268     18271     18274     18275     18268     18271     18274     18276
     18269     18268     18271     18272     18269     18268     18271     18273
     18269     18268     18271     18274     18270     18268     18271     18272
     18270     18268     18271     18273     18270     18268     18271     18274
     18271     18274     18276     18277     18271     18274     18276     18278
     18272     18271     18274     18275     18272     18271     18274     18276
     18273     18271     18274     18275     18273     18271     18274     18276
     18274     18276     18278     18279     18274     18276     18278     18280
     18274     18276     18278     18281     18275     18274     18276     18277
     18275     18274     18276     18278     18276     18278     18281     18282
     18276     18278     18281     18283     18276     18278     18281     18284
     18277     18276     18278     18279     18277     18276     18278     18280
     18277     18276     18278     18281     18278     18281     18284     18285
     18278     18281     18284     18286     18278     18281     18284     18287
     18279     18278     18281     18282     18279     18278     18281     18283
     18279     18278     18281     18284     18280     18278     18281     18282
     18280     18278     18281     18283     18280     18278     18281     18284
     18281     18284     18287     18288     18281     18284     18287     18289
     18281     18284     18287     18290     18282     18281     18284     18285
     18282     18281     18284     18286     18282     18281     18284     18287
     18283     18281     18284     18285     18283     18281     18284     18286
     18283     18281     18284     18287     18284     18287     18290     18291
     18284     18287     18290     18292     18284     18287     18290     18293
     18285     18284     18287     18288     18285     18284     18287     18289
     18285     18284     18287     18290     18286     18284     18287     18288
     18286     18284     18287     18289     18286     18284     18287     18290
     18287     18290     18293     18294     18287     18290     18293     18295
     18287     18290     18293     18296     18288     18287     18290     18291
     18288     18287     18290     18292     18288     18287     18290     18293
     18289     18287     18290     18291     18289     18287     18290     18292
     18289     18287     18290     18293     18290     18293     18296     18297
     18290     18293     18296     18298     18290     18293     18296     18299
     18291     18290     18293     18294     18291     18290     18293     18295
     18291     18290     18293     18296     18292     18290     18293     18294
     18292     18290     18293     18295     18292     18290     18293     18296
     18293     18296     18299     18300     18293     18296     18299     18301
     18293     18296     18299     18302     18294     18293     18296     18297
     18294     18293     18296     18298     18294     18293     18296     18299
     18295     18293     18296     18297     18295     18293     18296     18298
     18295     18293     18296     18299     18297     18296     18299     18300
     18297     18296     18299     18301     18297     18296     18299     18302
     18298     18296     18299     18300     18298     18296     18299     18301
     18298     18296     18299     18302     18303     18304     18319     18320
     18303     18304     18319     18321     18303     18304     18319     18325
     18304     18303     18307     18308     18304     18303     18307     18309
     18304     18303     18307     18310     18304     18303     18311     18312
     18304     18303     18311     18313     18304     18303     18311     18314
     18304     18303     18315     18316     18304     18303     18315     18317
     18304     18303     18315     18318     18304     18319     18325     18322
     18305     18304     18303     18307     18305     18304     18303     18311
     18305     18304     18303     18315     18305     18304     18319     18320
     18305     18304     18319     18321     18305     18304     18319     18325
     18306     18304     18303     18307     18306     18304     18303     18311
     18306     18304     18303     18315     18306     18304     18319     18320
     18306     18304     18319     18321     18306     18304     18319     18325
     18307     18303     18304     18319     18307     18303     18311     18312
     18307     18303     18311     18313     18307     18303     18311     18314
     18307     18303     18315     18316     18307     18303     18315     18317
     18307     18303     18315     18318     18308     18307     18303     18311
     18308     18307     18303     18315     18309     18307     18303     18311
     18309     18307     18303     18315     18310     18307     18303     18311
     18310     18307     18303     18315     18311     18303     18304     18319
     18311     18303     18315     18316     18311     18303     18315     18317
     18311     18303     18315     18318     18312     18311     18303     18315
     18313     18311     18303     18315     18314     18311     18303     18315
     18315     18303     18304     18319     18319     18325     18322     18323
     18319     18325     18322     18324     18319     18325     18322     18326
     18320     18319     18325     18322     18321     18319     18325     18322
     18322     18326     18327     18328     18322     18326     18327     18329
     18322     18326     18327     18330     18323     18322     18326     18327
     18324     18322     18326     18327     18325     18322     18326     18327
     18326     18327     18330     18331     18326     18327     18330     18332
     18326     18327     18330     18338     18327     18330     18332     18333
     18327     18330     18338     18339     18327     18330     18338     18340
     18327     18330     18338     18341     18328     18327     18330     18331
     18328     18327     18330     18332     18328     18327     18330     18338
     18329     18327     18330     18331     18329     18327     18330     18332
     18329     18327     18330     18338     18330     18332     18333     18334
     18330     18332     18333     18335     18330     18338     18341     18342
     18331     18330     18332     18333     18331     18330     18338     18339
     18331     18330     18338     18340     18331     18330     18338     18341
     18332     18330     18338     18339     18332     18330     18338     18340
     18332     18330     18338     18341     18332     18333     18335     18336
     18332     18333     18335     18337     18332     18333     18335     18347
     18333     18332     18330     18338     18333     18335     18347     18348
     18333     18335     18347     18349     18333     18335     18347     18350
     18334     18333     18335     18336     18334     18333     18335     18337
     18334     18333     18335     18347     18335     18347     18350     18351
     18335     18347     18350     18352     18335     18347     18350     18353
     18336     18335     18347     18348     18336     18335     18347     18349
     18336     18335     18347     18350     18337     18335     18347     18348
     18337     18335     18347     18349     18337     18335     18347     18350
     18338     18341     18342     18343     18338     18341     18342     18344
     18339     18338     18341     18342     18340     18338     18341     18342
     18341     18342     18344     18345     18341     18342     18344     18346
     18341     18342     18344     18394     18342     18344     18394     18395
     18342     18344     18394     18396     18342     18344     18394     18397
     18343     18342     18344     18345     18343     18342     18344     18346
     18343     18342     18344     18394     18344     18394     18397     18398
     18344     18394     18397     18399     18344     18394     18397     18400
     18345     18344     18394     18395     18345     18344     18394     18396
     18345     18344     18394     18397     18346     18344     18394     18395
     18346     18344     18394     18396     18346     18344     18394     18397
     18347     18350     18353     18354     18347     18350     18353     18355
     18347     18350     18353     18356     18348     18347     18350     18351
     18348     18347     18350     18352     18348     18347     18350     18353
     18349     18347     18350     18351     18349     18347     18350     18352
     18349     18347     18350     18353     18350     18353     18356     18357
     18350     18353     18356     18358     18350     18353     18356     18359
     18351     18350     18353     18354     18351     18350     18353     18355
     18351     18350     18353     18356     18352     18350     18353     18354
     18352     18350     18353     18355     18352     18350     18353     18356
     18353     18356     18359     18360     18353     18356     18359     18361
     18353     18356     18359     18362     18354     18353     18356     18357
     18354     18353     18356     18358     18354     18353     18356     18359
     18355     18353     18356     18357     18355     18353     18356     18358
     18355     18353     18356     18359     18356     18359     18362     18363
     18356     18359     18362     18364     18356     18359     18362     18365
     18357     18356     18359     18360     18357     18356     18359     18361
     18357     18356     18359     18362     18358     18356     18359     18360
     18358     18356     18359     18361     18358     18356     18359     18362
     18359     18362     18365     18366     18359     18362     18365     18367
     18360     18359     18362     18363     18360     18359     18362     18364
     18360     18359     18362     18365     18361     18359     18362     18363
     18361     18359     18362     18364     18361     18359     18362     18365
     18362     18365     18367     18368     18362     18365     18367     18369
     18363     18362     18365     18366     18363     18362     18365     18367
     18364     18362     18365     18366     18364     18362     18365     18367
     18365     18367     18369     18370     18365     18367     18369     18371
     18365     18367     18369     18372     18366     18365     18367     18368
     18366     18365     18367     18369     18367     18369     18372     18373
     18367     18369     18372     18374     18367     18369     18372     18375
     18368     18367     18369     18370     18368     18367     18369     18371
     18368     18367     18369     18372     18369     18372     18375     18376
     18369     18372     18375     18377     18369     18372     18375     18378
     18370     18369     18372     18373     18370     18369     18372     18374
     18370     18369     18372     18375     18371     18369     18372     18373
     18371     18369     18372     18374     18371     18369     18372     18375
     18372     18375     18378     18379     18372     18375     18378     18380
     18372     18375     18378     18381     18373     18372     18375     18376
     18373     18372     18375     18377     18373     18372     18375     18378
     18374     18372     18375     18376     18374     18372     18375     18377
     18374     18372     18375     18378     18375     18378     18381     18382
     18375     18378     18381     18383     18375     18378     18381     18384
     18376     18375     18378     18379     18376     18375     18378     18380
     18376     18375     18378     18381     18377     18375     18378     18379
     18377     18375     18378     18380     18377     18375     18378     18381
     18378     18381     18384     18385     18378     18381     18384     18386
     18378     18381     18384     18387     18379     18378     18381     18382
     18379     18378     18381     18383     18379     18378     18381     18384
     18380     18378     18381     18382     18380     18378     18381     18383
     18380     18378     18381     18384     18381     18384     18387     18388
     18381     18384     18387     18389     18381     18384     18387     18390
     18382     18381     18384     18385     18382     18381     18384     18386
     18382     18381     18384     18387     18383     18381     18384     18385
     18383     18381     18384     18386     18383     18381     18384     18387
     18384     18387     18390     18391     18384     18387     18390     18392
     18384     18387     18390     18393     18385     18384     18387     18388
     18385     18384     18387     18389     18385     18384     18387     18390
     18386     18384     18387     18388     18386     18384     18387     18389
     18386     18384     18387     18390     18388     18387     18390     18391
     18388     18387     18390     18392     18388     18387     18390     18393
     18389     18387     18390     18391     18389     18387     18390     18392
     18389     18387     18390     18393     18394     18397     18400     18401
     18394     18397     18400     18402     18394     18397     18400     18403
     18395     18394     18397     18398     18395     18394     18397     18399
     18395     18394     18397     18400     18396     18394     18397     18398
     18396     18394     18397     18399     18396     18394     18397     18400
     18397     18400     18403     18404     18397     18400     18403     18405
     18397     18400     18403     18406     18398     18397     18400     18401
     18398     18397     18400     18402     18398     18397     18400     18403
     18399     18397     18400     18401     18399     18397     18400     18402
     18399     18397     18400     18403     18400     18403     18406     18407
     18400     18403     18406     18408     18400     18403     18406     18409
     18401     18400     18403     18404     18401     18400     18403     18405
     18401     18400     18403     18406     18402     18400     18403     18404
     18402     18400     18403     18405     18402     18400     18403     18406
     18403     18406     18409     18410     18403     18406     18409     18411
     18403     18406     18409     18412     18404     18403     18406     18407
     18404     18403     18406     18408     18404     18403     18406     18409
     18405     18403     18406     18407     18405     18403     18406     18408
     18405     18403     18406     18409     18406     18409     18412     18413
     18406     18409     18412     18414     18407     18406     18409     18410
     18407     18406     18409     18411     18407     18406     18409     18412
     18408     18406     18409     18410     18408     18406     18409     18411
     18408     18406     18409     18412     18409     18412     18414     18415
     18409     18412     18414     18416     18410     18409     18412     18413
     18410     18409     18412     18414     18411     18409     18412     18413
     18411     18409     18412     18414     18412     18414     18416     18417
     18412     18414     18416     18418     18412     18414     18416     18419
     18413     18412     18414     18415     18413     18412     18414     18416
     18414     18416     18419     18420     18414     18416     18419     18421
     18414     18416     18419     18422     18415     18414     18416     18417
     18415     18414     18416     18418     18415     18414     18416     18419
     18416     18419     18422     18423     18416     18419     18422     18424
     18416     18419     18422     18425     18417     18416     18419     18420
     18417     18416     18419     18421     18417     18416     18419     18422
     18418     18416     18419     18420     18418     18416     18419     18421
     18418     18416     18419     18422     18419     18422     18425     18426
     18419     18422     18425     18427     18419     18422     18425     18428
     18420     18419     18422     18423     18420     18419     18422     18424
     18420     18419     18422     18425     18421     18419     18422     18423
     18421     18419     18422     18424     18421     18419     18422     18425
     18422     18425     18428     18429     18422     18425     18428     18430
     18422     18425     18428     18431     18423     18422     18425     18426
     18423     18422     18425     18427     18423     18422     18425     18428
     18424     18422     18425     18426     18424     18422     18425     18427
     18424     18422     18425     18428     18425     18428     18431     18432
     18425     18428     18431     18433     18425     18428     18431     18434
     18426     18425     18428     18429     18426     18425     18428     18430
     18426     18425     18428     18431     18427     18425     18428     18429
     18427     18425     18428     18430     18427     18425     18428     18431
     18428     18431     18434     18435     18428     18431     18434     18436
     18428     18431     18434     18437     18429     18428     18431     18432
     18429     18428     18431     18433     18429     18428     18431     18434
     18430     18428     18431     18432     18430     18428     18431     18433
     18430     18428     18431     18434     18431     18434     18437     18438
     18431     18434     18437     18439     18431     18434     18437     18440
     18432     18431     18434     18435     18432     18431     18434     18436
     18432     18431     18434     18437     18433     18431     18434     18435
     18433     18431     18434     18436     18433     18431     18434     18437
     18435     18434     18437     18438     18435     18434     18437     18439
     18435     18434     18437     18440     18436     18434     18437     18438
     18436     18434     18437     18439     18436     18434     18437     18440
     18441     18442     18457     18458     18441     18442     18457     18459
     18441     18442     18457     18463     18442     18441     18445     18446
     18442     18441     18445     18447     18442     18441     18445     18448
     18442     18441     18449     18450     18442     18441     18449     18451
     18442     18441     18449     18452     18442     18441     18453     18454
     18442     18441     18453     18455     18442     18441     18453     18456
     18442     18457     18463     18460     18443     18442     18441     18445
     18443     18442     18441     18449     18443     18442     18441     18453
     18443     18442     18457     18458     18443     18442     18457     18459
     18443     18442     18457     18463     18444     18442     18441     18445
     18444     18442     18441     18449     18444     18442     18441     18453
     18444     18442     18457     18458     18444     18442     18457     18459
     18444     18442     18457     18463     18445     18441     18442     18457
     18445     18441     18449     18450     18445     18441     18449     18451
     18445     18441     18449     18452     18445     18441     18453     18454
     18445     18441     18453     18455     18445     18441     18453     18456
     18446     18445     18441     18449     18446     18445     18441     18453
     18447     18445     18441     18449     18447     18445     18441     18453
     18448     18445     18441     18449     18448     18445     18441     18453
     18449     18441     18442     18457     18449     18441     18453     18454
     18449     18441     18453     18455     18449     18441     18453     18456
     18450     18449     18441     18453     18451     18449     18441     18453
     18452     18449     18441     18453     18453     18441     18442     18457
     18457     18463     18460     18461     18457     18463     18460     18462
     18457     18463     18460     18464     18458     18457     18463     18460
     18459     18457     18463     18460     18460     18464     18465     18466
     18460     18464     18465     18467     18460     18464     18465     18468
     18461     18460     18464     18465     18462     18460     18464     18465
     18463     18460     18464     18465     18464     18465     18468     18469
     18464     18465     18468     18470     18464     18465     18468     18476
     18465     18468     18470     18471     18465     18468     18476     18477
     18465     18468     18476     18478     18465     18468     18476     18479
     18466     18465     18468     18469     18466     18465     18468     18470
     18466     18465     18468     18476     18467     18465     18468     18469
     18467     18465     18468     18470     18467     18465     18468     18476
     18468     18470     18471     18472     18468     18470     18471     18473
     18468     18476     18479     18480     18469     18468     18470     18471
     18469     18468     18476     18477     18469     18468     18476     18478
     18469     18468     18476     18479     18470     18468     18476     18477
     18470     18468     18476     18478     18470     18468     18476     18479
     18470     18471     18473     18474     18470     18471     18473     18475
     18470     18471     18473     18485     18471     18470     18468     18476
     18471     18473     18485     18486     18471     18473     18485     18487
     18471     18473     18485     18488     18472     18471     18473     18474
     18472     18471     18473     18475     18472     18471     18473     18485
     18473     18485     18488     18489     18473     18485     18488     18490
     18473     18485     18488     18491     18474     18473     18485     18486
     18474     18473     18485     18487     18474     18473     18485     18488
     18475     18473     18485     18486     18475     18473     18485     18487
     18475     18473     18485     18488     18476     18479     18480     18481
     18476     18479     18480     18482     18477     18476     18479     18480
     18478     18476     18479     18480     18479     18480     18482     18483
     18479     18480     18482     18484     18479     18480     18482     18532
     18480     18482     18532     18533     18480     18482     18532     18534
     18480     18482     18532     18535     18481     18480     18482     18483
     18481     18480     18482     18484     18481     18480     18482     18532
     18482     18532     18535     18536     18482     18532     18535     18537
     18482     18532     18535     18538     18483     18482     18532     18533
     18483     18482     18532     18534     18483     18482     18532     18535
     18484     18482     18532     18533     18484     18482     18532     18534
     18484     18482     18532     18535     18485     18488     18491     18492
     18485     18488     18491     18493     18485     18488     18491     18494
     18486     18485     18488     18489     18486     18485     18488     18490
     18486     18485     18488     18491     18487     18485     18488     18489
     18487     18485     18488     18490     18487     18485     18488     18491
     18488     18491     18494     18495     18488     18491     18494     18496
     18488     18491     18494     18497     18489     18488     18491     18492
     18489     18488     18491     18493     18489     18488     18491     18494
     18490     18488     18491     18492     18490     18488     18491     18493
     18490     18488     18491     18494     18491     18494     18497     18498
     18491     18494     18497     18499     18491     18494     18497     18500
     18492     18491     18494     18495     18492     18491     18494     18496
     18492     18491     18494     18497     18493     18491     18494     18495
     18493     18491     18494     18496     18493     18491     18494     18497
     18494     18497     18500     18501     18494     18497     18500     18502
     18494     18497     18500     18503     18495     18494     18497     18498
     18495     18494     18497     18499     18495     18494     18497     18500
     18496     18494     18497     18498     18496     18494     18497     18499
     18496     18494     18497     18500     18497     18500     18503     18504
     18497     18500     18503     18505     18498     18497     18500     18501
     18498     18497     18500     18502     18498     18497     18500     18503
     18499     18497     18500     18501     18499     18497     18500     18502
     18499     18497     18500     18503     18500     18503     18505     18506
     18500     18503     18505     18507     18501     18500     18503     18504
     18501     18500     18503     18505     18502     18500     18503     18504
     18502     18500     18503     18505     18503     18505     18507     18508
     18503     18505     18507     18509     18503     18505     18507     18510
     18504     18503     18505     18506     18504     18503     18505     18507
     18505     18507     18510     18511     18505     18507     18510     18512
     18505     18507     18510     18513     18506     18505     18507     18508
     18506     18505     18507     18509     18506     18505     18507     18510
     18507     18510     18513     18514     18507     18510     18513     18515
     18507     18510     18513     18516     18508     18507     18510     18511
     18508     18507     18510     18512     18508     18507     18510     18513
     18509     18507     18510     18511     18509     18507     18510     18512
     18509     18507     18510     18513     18510     18513     18516     18517
     18510     18513     18516     18518     18510     18513     18516     18519
     18511     18510     18513     18514     18511     18510     18513     18515
     18511     18510     18513     18516     18512     18510     18513     18514
     18512     18510     18513     18515     18512     18510     18513     18516
     18513     18516     18519     18520     18513     18516     18519     18521
     18513     18516     18519     18522     18514     18513     18516     18517
     18514     18513     18516     18518     18514     18513     18516     18519
     18515     18513     18516     18517     18515     18513     18516     18518
     18515     18513     18516     18519     18516     18519     18522     18523
     18516     18519     18522     18524     18516     18519     18522     18525
     18517     18516     18519     18520     18517     18516     18519     18521
     18517     18516     18519     18522     18518     18516     18519     18520
     18518     18516     18519     18521     18518     18516     18519     18522
     18519     18522     18525     18526     18519     18522     18525     18527
     18519     18522     18525     18528     18520     18519     18522     18523
     18520     18519     18522     18524     18520     18519     18522     18525
     18521     18519     18522     18523     18521     18519     18522     18524
     18521     18519     18522     18525     18522     18525     18528     18529
     18522     18525     18528     18530     18522     18525     18528     18531
     18523     18522     18525     18526     18523     18522     18525     18527
     18523     18522     18525     18528     18524     18522     18525     18526
     18524     18522     18525     18527     18524     18522     18525     18528
     18526     18525     18528     18529     18526     18525     18528     18530
     18526     18525     18528     18531     18527     18525     18528     18529
     18527     18525     18528     18530     18527     18525     18528     18531
     18532     18535     18538     18539     18532     18535     18538     18540
     18532     18535     18538     18541     18533     18532     18535     18536
     18533     18532     18535     18537     18533     18532     18535     18538
     18534     18532     18535     18536     18534     18532     18535     18537
     18534     18532     18535     18538     18535     18538     18541     18542
     18535     18538     18541     18543     18535     18538     18541     18544
     18536     18535     18538     18539     18536     18535     18538     18540
     18536     18535     18538     18541     18537     18535     18538     18539
     18537     18535     18538     18540     18537     18535     18538     18541
     18538     18541     18544     18545     18538     18541     18544     18546
     18538     18541     18544     18547     18539     18538     18541     18542
     18539     18538     18541     18543     18539     18538     18541     18544
     18540     18538     18541     18542     18540     18538     18541     18543
     18540     18538     18541     18544     18541     18544     18547     18548
     18541     18544     18547     18549     18541     18544     18547     18550
     18542     18541     18544     18545     18542     18541     18544     18546
     18542     18541     18544     18547     18543     18541     18544     18545
     18543     18541     18544     18546     18543     18541     18544     18547
     18544     18547     18550     18551     18544     18547     18550     18552
     18545     18544     18547     18548     18545     18544     18547     18549
     18545     18544     18547     18550     18546     18544     18547     18548
     18546     18544     18547     18549     18546     18544     18547     18550
     18547     18550     18552     18553     18547     18550     18552     18554
     18548     18547     18550     18551     18548     18547     18550     18552
     18549     18547     18550     18551     18549     18547     18550     18552
     18550     18552     18554     18555     18550     18552     18554     18556
     18550     18552     18554     18557     18551     18550     18552     18553
     18551     18550     18552     18554     18552     18554     18557     18558
     18552     18554     18557     18559     18552     18554     18557     18560
     18553     18552     18554     18555     18553     18552     18554     18556
     18553     18552     18554     18557     18554     18557     18560     18561
     18554     18557     18560     18562     18554     18557     18560     18563
     18555     18554     18557     18558     18555     18554     18557     18559
     18555     18554     18557     18560     18556     18554     18557     18558
     18556     18554     18557     18559     18556     18554     18557     18560
     18557     18560     18563     18564     18557     18560     18563     18565
     18557     18560     18563     18566     18558     18557     18560     18561
     18558     18557     18560     18562     18558     18557     18560     18563
     18559     18557     18560     18561     18559     18557     18560     18562
     18559     18557     18560     18563     18560     18563     18566     18567
     18560     18563     18566     18568     18560     18563     18566     18569
     18561     18560     18563     18564     18561     18560     18563     18565
     18561     18560     18563     18566     18562     18560     18563     18564
     18562     18560     18563     18565     18562     18560     18563     18566
     18563     18566     18569     18570     18563     18566     18569     18571
     18563     18566     18569     18572     18564     18563     18566     18567
     18564     18563     18566     18568     18564     18563     18566     18569
     18565     18563     18566     18567     18565     18563     18566     18568
     18565     18563     18566     18569     18566     18569     18572     18573
     18566     18569     18572     18574     18566     18569     18572     18575
     18567     18566     18569     18570     18567     18566     18569     18571
     18567     18566     18569     18572     18568     18566     18569     18570
     18568     18566     18569     18571     18568     18566     18569     18572
     18569     18572     18575     18576     18569     18572     18575     18577
     18569     18572     18575     18578     18570     18569     18572     18573
     18570     18569     18572     18574     18570     18569     18572     18575
     18571     18569     18572     18573     18571     18569     18572     18574
     18571     18569     18572     18575     18573     18572     18575     18576
     18573     18572     18575     18577     18573     18572     18575     18578
     18574     18572     18575     18576     18574     18572     18575     18577
     18574     18572     18575     18578     18579     18580     18595     18596
     18579     18580     18595     18597     18579     18580     18595     18601
     18580     18579     18583     18584     18580     18579     18583     18585
     18580     18579     18583     18586     18580     18579     18587     18588
     18580     18579     18587     18589     18580     18579     18587     18590
     18580     18579     18591     18592     18580     18579     18591     18593
     18580     18579     18591     18594     18580     18595     18601     18598
     18581     18580     18579     18583     18581     18580     18579     18587
     18581     18580     18579     18591     18581     18580     18595     18596
     18581     18580     18595     18597     18581     18580     18595     18601
     18582     18580     18579     18583     18582     18580     18579     18587
     18582     18580     18579     18591     18582     18580     18595     18596
     18582     18580     18595     18597     18582     18580     18595     18601
     18583     18579     18580     18595     18583     18579     18587     18588
     18583     18579     18587     18589     18583     18579     18587     18590
     18583     18579     18591     18592     18583     18579     18591     18593
     18583     18579     18591     18594     18584     18583     18579     18587
     18584     18583     18579     18591     18585     18583     18579     18587
     18585     18583     18579     18591     18586     18583     18579     18587
     18586     18583     18579     18591     18587     18579     18580     18595
     18587     18579     18591     18592     18587     18579     18591     18593
     18587     18579     18591     18594     18588     18587     18579     18591
     18589     18587     18579     18591     18590     18587     18579     18591
     18591     18579     18580     18595     18595     18601     18598     18599
     18595     18601     18598     18600     18595     18601     18598     18602
     18596     18595     18601     18598     18597     18595     18601     18598
     18598     18602     18603     18604     18598     18602     18603     18605
     18598     18602     18603     18606     18599     18598     18602     18603
     18600     18598     18602     18603     18601     18598     18602     18603
     18602     18603     18606     18607     18602     18603     18606     18608
     18602     18603     18606     18614     18603     18606     18608     18609
     18603     18606     18614     18615     18603     18606     18614     18616
     18603     18606     18614     18617     18604     18603     18606     18607
     18604     18603     18606     18608     18604     18603     18606     18614
     18605     18603     18606     18607     18605     18603     18606     18608
     18605     18603     18606     18614     18606     18608     18609     18610
     18606     18608     18609     18611     18606     18614     18617     18618
     18607     18606     18608     18609     18607     18606     18614     18615
     18607     18606     18614     18616     18607     18606     18614     18617
     18608     18606     18614     18615     18608     18606     18614     18616
     18608     18606     18614     18617     18608     18609     18611     18612
     18608     18609     18611     18613     18608     18609     18611     18623
     18609     18608     18606     18614     18609     18611     18623     18624
     18609     18611     18623     18625     18609     18611     18623     18626
     18610     18609     18611     18612     18610     18609     18611     18613
     18610     18609     18611     18623     18611     18623     18626     18627
     18611     18623     18626     18628     18611     18623     18626     18629
     18612     18611     18623     18624     18612     18611     18623     18625
     18612     18611     18623     18626     18613     18611     18623     18624
     18613     18611     18623     18625     18613     18611     18623     18626
     18614     18617     18618     18619     18614     18617     18618     18620
     18615     18614     18617     18618     18616     18614     18617     18618
     18617     18618     18620     18621     18617     18618     18620     18622
     18617     18618     18620     18670     18618     18620     18670     18671
     18618     18620     18670     18672     18618     18620     18670     18673
     18619     18618     18620     18621     18619     18618     18620     18622
     18619     18618     18620     18670     18620     18670     18673     18674
     18620     18670     18673     18675     18620     18670     18673     18676
     18621     18620     18670     18671     18621     18620     18670     18672
     18621     18620     18670     18673     18622     18620     18670     18671
     18622     18620     18670     18672     18622     18620     18670     18673
     18623     18626     18629     18630     18623     18626     18629     18631
     18623     18626     18629     18632     18624     18623     18626     18627
     18624     18623     18626     18628     18624     18623     18626     18629
     18625     18623     18626     18627     18625     18623     18626     18628
     18625     18623     18626     18629     18626     18629     18632     18633
     18626     18629     18632     18634     18626     18629     18632     18635
     18627     18626     18629     18630     18627     18626     18629     18631
     18627     18626     18629     18632     18628     18626     18629     18630
     18628     18626     18629     18631     18628     18626     18629     18632
     18629     18632     18635     18636     18629     18632     18635     18637
     18629     18632     18635     18638     18630     18629     18632     18633
     18630     18629     18632     18634     18630     18629     18632     18635
     18631     18629     18632     18633     18631     18629     18632     18634
     18631     18629     18632     18635     18632     18635     18638     18639
     18632     18635     18638     18640     18632     18635     18638     18641
     18633     18632     18635     18636     18633     18632     18635     18637
     18633     18632     18635     18638     18634     18632     18635     18636
     18634     18632     18635     18637     18634     18632     18635     18638
     18635     18638     18641     18642     18635     18638     18641     18643
     18636     18635     18638     18639     18636     18635     18638     18640
     18636     18635     18638     18641     18637     18635     18638     18639
     18637     18635     18638     18640     18637     18635     18638     18641
     18638     18641     18643     18644     18638     18641     18643     18645
     18639     18638     18641     18642     18639     18638     18641     18643
     18640     18638     18641     18642     18640     18638     18641     18643
     18641     18643     18645     18646     18641     18643     18645     18647
     18641     18643     18645     18648     18642     18641     18643     18644
     18642     18641     18643     18645     18643     18645     18648     18649
     18643     18645     18648     18650     18643     18645     18648     18651
     18644     18643     18645     18646     18644     18643     18645     18647
     18644     18643     18645     18648     18645     18648     18651     18652
     18645     18648     18651     18653     18645     18648     18651     18654
     18646     18645     18648     18649     18646     18645     18648     18650
     18646     18645     18648     18651     18647     18645     18648     18649
     18647     18645     18648     18650     18647     18645     18648     18651
     18648     18651     18654     18655     18648     18651     18654     18656
     18648     18651     18654     18657     18649     18648     18651     18652
     18649     18648     18651     18653     18649     18648     18651     18654
     18650     18648     18651     18652     18650     18648     18651     18653
     18650     18648     18651     18654     18651     18654     18657     18658
     18651     18654     18657     18659     18651     18654     18657     18660
     18652     18651     18654     18655     18652     18651     18654     18656
     18652     18651     18654     18657     18653     18651     18654     18655
     18653     18651     18654     18656     18653     18651     18654     18657
     18654     18657     18660     18661     18654     18657     18660     18662
     18654     18657     18660     18663     18655     18654     18657     18658
     18655     18654     18657     18659     18655     18654     18657     18660
     18656     18654     18657     18658     18656     18654     18657     18659
     18656     18654     18657     18660     18657     18660     18663     18664
     18657     18660     18663     18665     18657     18660     18663     18666
     18658     18657     18660     18661     18658     18657     18660     18662
     18658     18657     18660     18663     18659     18657     18660     18661
     18659     18657     18660     18662     18659     18657     18660     18663
     18660     18663     18666     18667     18660     18663     18666     18668
     18660     18663     18666     18669     18661     18660     18663     18664
     18661     18660     18663     18665     18661     18660     18663     18666
     18662     18660     18663     18664     18662     18660     18663     18665
     18662     18660     18663     18666     18664     18663     18666     18667
     18664     18663     18666     18668     18664     18663     18666     18669
     18665     18663     18666     18667     18665     18663     18666     18668
     18665     18663     18666     18669     18670     18673     18676     18677
     18670     18673     18676     18678     18670     18673     18676     18679
     18671     18670     18673     18674     18671     18670     18673     18675
     18671     18670     18673     18676     18672     18670     18673     18674
     18672     18670     18673     18675     18672     18670     18673     18676
     18673     18676     18679     18680     18673     18676     18679     18681
     18673     18676     18679     18682     18674     18673     18676     18677
     18674     18673     18676     18678     18674     18673     18676     18679
     18675     18673     18676     18677     18675     18673     18676     18678
     18675     18673     18676     18679     18676     18679     18682     18683
     18676     18679     18682     18684     18676     18679     18682     18685
     18677     18676     18679     18680     18677     18676     18679     18681
     18677     18676     18679     18682     18678     18676     18679     18680
     18678     18676     18679     18681     18678     18676     18679     18682
     18679     18682     18685     18686     18679     18682     18685     18687
     18679     18682     18685     18688     18680     18679     18682     18683
     18680     18679     18682     18684     18680     18679     18682     18685
     18681     18679     18682     18683     18681     18679     18682     18684
     18681     18679     18682     18685     18682     18685     18688     18689
     18682     18685     18688     18690     18683     18682     18685     18686
     18683     18682     18685     18687     18683     18682     18685     18688
     18684     18682     18685     18686     18684     18682     18685     18687
     18684     18682     18685     18688     18685     18688     18690     18691
     18685     18688     18690     18692     18686     18685     18688     18689
     18686     18685     18688     18690     18687     18685     18688     18689
     18687     18685     18688     18690     18688     18690     18692     18693
     18688     18690     18692     18694     18688     18690     18692     18695
     18689     18688     18690     18691     18689     18688     18690     18692
     18690     18692     18695     18696     18690     18692     18695     18697
     18690     18692     18695     18698     18691     18690     18692     18693
     18691     18690     18692     18694     18691     18690     18692     18695
     18692     18695     18698     18699     18692     18695     18698     18700
     18692     18695     18698     18701     18693     18692     18695     18696
     18693     18692     18695     18697     18693     18692     18695     18698
     18694     18692     18695     18696     18694     18692     18695     18697
     18694     18692     18695     18698     18695     18698     18701     18702
     18695     18698     18701     18703     18695     18698     18701     18704
     18696     18695     18698     18699     18696     18695     18698     18700
     18696     18695     18698     18701     18697     18695     18698     18699
     18697     18695     18698     18700     18697     18695     18698     18701
     18698     18701     18704     18705     18698     18701     18704     18706
     18698     18701     18704     18707     18699     18698     18701     18702
     18699     18698     18701     18703     18699     18698     18701     18704
     18700     18698     18701     18702     18700     18698     18701     18703
     18700     18698     18701     18704     18701     18704     18707     18708
     18701     18704     18707     18709     18701     18704     18707     18710
     18702     18701     18704     18705     18702     18701     18704     18706
     18702     18701     18704     18707     18703     18701     18704     18705
     18703     18701     18704     18706     18703     18701     18704     18707
     18704     18707     18710     18711     18704     18707     18710     18712
     18704     18707     18710     18713     18705     18704     18707     18708
     18705     18704     18707     18709     18705     18704     18707     18710
     18706     18704     18707     18708     18706     18704     18707     18709
     18706     18704     18707     18710     18707     18710     18713     18714
     18707     18710     18713     18715     18707     18710     18713     18716
     18708     18707     18710     18711     18708     18707     18710     18712
     18708     18707     18710     18713     18709     18707     18710     18711
     18709     18707     18710     18712     18709     18707     18710     18713
     18711     18710     18713     18714     18711     18710     18713     18715
     18711     18710     18713     18716     18712     18710     18713     18714
     18712     18710     18713     18715     18712     18710     18713     18716

       318 !NIMPHI: impropers
         8         5        10         9        10         8        12        11
        18        12        20        19        20        18        22        21
        37        22        39        38        39        37        41        40
        47        41        49        48        49        47        51        50
        63        51        65        64        65        63        67        66
        79        67        81        80        81        79        83        82
        95        83        97        96        97        95        99        98
       119        99       121       120       121       119       123       122
       138       123       140       139       140       138       142       141
       162       142       164       163       164       162       166       165
       181       166       183       182       183       181       185       184
       205       185       207       206       207       205       209       208
       224       209       226       225       226       224       228       227
       248       228       250       249       258       255       260       259
       260       258       262       261       268       262       270       269
       270       268       272       271       287       272       289       288
       289       287       291       290       297       291       299       298
       299       297       301       300       313       301       315       314
       315       313       317       316       329       317       331       330
       331       329       333       332       345       333       347       346
       347       345       349       348       369       349       371       370
       371       369       373       372       388       373       390       389
       390       388       392       391       412       392       414       413
       414       412       416       415       431       416       433       432
       433       431       435       434       455       435       457       456
       457       455       459       458       474       459       476       475
       476       474       478       477       498       478       500       499
       531       530       533       532       540       539       542       541
       669       668       671       670       678       677       680       679
       807       806       809       808       816       815       818       817
       945       944       947       946       954       953       956       955
      1083      1082      1085      1084      1092      1091      1094      1093
      1221      1220      1223      1222      1230      1229      1232      1231
      1359      1358      1361      1360      1368      1367      1370      1369
      1497      1496      1499      1498      1506      1505      1508      1507
      1635      1634      1637      1636      1644      1643      1646      1645
      1773      1772      1775      1774      1782      1781      1784      1783
      1911      1910      1913      1912      1920      1919      1922      1921
      2049      2048      2051      2050      2058      2057      2060      2059
      2187      2186      2189      2188      2196      2195      2198      2197
      2325      2324      2327      2326      2334      2333      2336      2335
      2463      2462      2465      2464      2472      2471      2474      2473
      2601      2600      2603      2602      2610      2609      2612      2611
      2739      2738      2741      2740      2748      2747      2750      2749
      2877      2876      2879      2878      2886      2885      2888      2887
      3015      3014      3017      3016      3024      3023      3026      3025
      3153      3152      3155      3154      3162      3161      3164      3163
      3291      3290      3293      3292      3300      3299      3302      3301
      3429      3428      3431      3430      3438      3437      3440      3439
      3567      3566      3569      3568      3576      3575      3578      3577
      3705      3704      3707      3706      3714      3713      3716      3715
      3843      3842      3845      3844      3852      3851      3854      3853
      3981      3980      3983      3982      3990      3989      3992      3991
      4119      4118      4121      4120      4128      4127      4130      4129
      4257      4256      4259      4258      4266      4265      4268      4267
      4395      4394      4397      4396      4404      4403      4406      4405
      4533      4532      4535      4534      4542      4541      4544      4543
      4671      4670      4673      4672      4680      4679      4682      4681
      4809      4808      4811      4810      4818      4817      4820      4819
      4947      4946      4949      4948      4956      4955      4958      4957
      5085      5084      5087      5086      5094      5093      5096      5095
      5223      5222      5225      5224      5232      5231      5234      5233
      5361      5360      5363      5362      5370      5369      5372      5371
      5499      5498      5501      5500      5508      5507      5510      5509
      5637      5636      5639      5638      5646      5645      5648      5647
      5775      5774      5777      5776      5784      5783      5786      5785
      5913      5912      5915      5914      5922      5921      5924      5923
      6051      6050      6053      6052      6060      6059      6062      6061
      6189      6188      6191      6190      6198      6197      6200      6199
      6327      6326      6329      6328      6336      6335      6338      6337
      6465      6464      6467      6466      6474      6473      6476      6475
      6603      6602      6605      6604      6612      6611      6614      6613
      6741      6740      6743      6742      6750      6749      6752      6751
      6879      6878      6881      6880      6888      6887      6890      6889
      7017      7016      7019      7018      7026      7025      7028      7027
      7155      7154      7157      7156      7164      7163      7166      7165
      7293      7292      7295      7294      7302      7301      7304      7303
      7431      7430      7433      7432      7440      7439      7442      7441
      7569      7568      7571      7570      7578      7577      7580      7579
      7707      7706      7709      7708      7716      7715      7718      7717
      7845      7844      7847      7846      7854      7853      7856      7855
      7983      7982      7985      7984      7992      7991      7994      7993
      8121      8120      8123      8122      8130      8129      8132      8131
      8259      8258      8261      8260      8268      8267      8270      8269
      8397      8396      8399      8398      8406      8405      8408      8407
      8535      8534      8537      8536      8544      8543      8546      8545
      8673      8672      8675      8674      8682      8681      8684      8683
      8811      8810      8813      8812      8820      8819      8822      8821
      8949      8948      8951      8950      8958      8957      8960      8959
      9087      9086      9089      9088      9096      9095      9098      9097
      9225      9224      9227      9226      9234      9233      9236      9235
      9363      9362      9365      9364      9372      9371      9374      9373
      9501      9500      9503      9502      9510      9509      9512      9511
      9639      9638      9641      9640      9648      9647      9650      9649
      9777      9776      9779      9778      9786      9785      9788      9787
      9915      9914      9917      9916      9924      9923      9926      9925
     10053     10052     10055     10054     10062     10061     10064     10063
     10191     10190     10193     10192     10200     10199     10202     10201
     10329     10328     10331     10330     10338     10337     10340     10339
     10467     10466     10469     10468     10476     10475     10478     10477
     10605     10604     10607     10606     10614     10613     10616     10615
     10743     10742     10745     10744     10752     10751     10754     10753
     10881     10880     10883     10882     10890     10889     10892     10891
     11019     11018     11021     11020     11028     11027     11030     11029
     11157     11156     11159     11158     11166     11165     11168     11167
     11295     11294     11297     11296     11304     11303     11306     11305
     11433     11432     11435     11434     11442     11441     11444     11443
     11571     11570     11573     11572     11580     11579     11582     11581
     11709     11708     11711     11710     11718     11717     11720     11719
     11847     11846     11849     11848     11856     11855     11858     11857
     11985     11984     11987     11986     11994     11993     11996     11995
     12123     12122     12125     12124     12132     12131     12134     12133
     12261     12260     12263     12262     12270     12269     12272     12271
     12399     12398     12401     12400     12408     12407     12410     12409
     12537     12536     12539     12538     12546     12545     12548     12547
     12675     12674     12677     12676     12684     12683     12686     12685
     12813     12812     12815     12814     12822     12821     12824     12823
     12951     12950     12953     12952     12960     12959     12962     12961
     13089     13088     13091     13090     13098     13097     13100     13099
     13227     13226     13229     13228     13236     13235     13238     13237
     13365     13364     13367     13366     13374     13373     13376     13375
     13503     13502     13505     13504     13512     13511     13514     13513
     13641     13640     13643     13642     13650     13649     13652     13651
     13779     13778     13781     13780     13788     13787     13790     13789
     13917     13916     13919     13918     13926     13925     13928     13927
     14055     14054     14057     14056     14064     14063     14066     14065
     14193     14192     14195     14194     14202     14201     14204     14203
     14331     14330     14333     14332     14340     14339     14342     14341
     14469     14468     14471     14470     14478     14477     14480     14479
     14607     14606     14609     14608     14616     14615     14618     14617
     14745     14744     14747     14746     14754     14753     14756     14755
     14883     14882     14885     14884     14892     14891     14894     14893
     15021     15020     15023     15022     15030     15029     15032     15031
     15159     15158     15161     15160     15168     15167     15170     15169
     15297     15296     15299     15298     15306     15305     15308     15307
     15435     15434     15437     15436     15444     15443     15446     15445
     15573     15572     15575     15574     15582     15581     15584     15583
     15711     15710     15713     15712     15720     15719     15722     15721
     15849     15848     15851     15850     15858     15857     15860     15859
     15987     15986     15989     15988     15996     15995     15998     15997
     16125     16124     16127     16126     16134     16133     16136     16135
     16263     16262     16265     16264     16272     16271     16274     16273
     16401     16400     16403     16402     16410     16409     16412     16411
     16539     16538     16541     16540     16548     16547     16550     16549
     16677     16676     16679     16678     16686     16685     16688     16687
     16815     16814     16817     16816     16824     16823     16826     16825
     16953     16952     16955     16954     16962     16961     16964     16963
     17091     17090     17093     17092     17100     17099     17102     17101
     17229     17228     17231     17230     17238     17237     17240     17239
     17367     17366     17369     17368     17376     17375     17378     17377
     17505     17504     17507     17506     17514     17513     17516     17515
     17643     17642     17645     17644     17652     17651     17654     17653
     17781     17780     17783     17782     17790     17789     17792     17791
     17919     17918     17921     17920     17928     17927     17930     17929
     18057     18056     18059     18058     18066     18065     18068     18067
     18195     18194     18197     18196     18204     18203     18206     18205
     18333     18332     18335     18334     18342     18341     18344     18343
     18471     18470     18473     18472     18480     18479     18482     18481
     18609     18608     18611     18610     18618     18617     18620     18619

     13116 !NDON: donors
         1         2         1         3         1         4        10        11
        20        21        39        40        49        50        65        66
        81        82        97        98       107       108       121       122
       140       141       150       151       164       165       183       184
       193       194       207       208       226       227       236       237
       251       252       251       253       251       254       260       261
       270       271       289       290       299       300       315       316
       331       332       347       348       357       358       371       372
       390       391       400       401       414       415       433       434
       443       444       457       458       476       477       486       487
     18717     18718     18717     18719     18720     18721     18720     18722
     18723     18724     18723     18725     18726     18727     18726     18728
     18729     18730     18729     18731     18732     18733     18732     18734
     18735     18736     18735     18737     18738     18739     18738     18740
     18741     18742     18741     18743     18744     18745     18744     18746
     18747     18748     18747     18749     18750     18751     18750     18752
     18753     18754     18753     18755     18756     18757     18756     18758
     18759     18760     18759     18761     18762     18763     18762     18764
     18765     18766     18765     18767     18768     18769     18768     18770
     18771     18772     18771     18773     18774     18775     18774     18776
     18777     18778     18777     18779     18780     18781     18780     18782
     18783     18784     18783     18785     18786     18787     18786     18788
     18789     18790     18789     18791     18792     18793     18792     18794
     18795     18796     18795     18797     18798     18799     18798     18800
     18801     18802     18801     18803     18804     18805     18804     18806
     18807     18808     18807     18809     18810     18811     18810     18812
     18813     18814     18813     18815     18816     18817     18816     18818
     18819     18820     18819     18821     18822     18823     18822     18824
     18825     18826     18825     18827     18828     18829     18828     18830
     18831     18832     18831     18833     18834     18835     18834     18836
     18837     18838     18837     18839     18840     18841     18840     18842
     18843     18844     18843     18845     18846     18847     18846     18848
     18849     18850     18849     18851     18852     18853     18852     18854
     18855     18856     18855     18857     18858     18859     18858     18860
     18861     18862     18861     18863     18864     18865     18864     18866
     18867     18868     18867     18869     18870     18871     18870     18872
     18873     18874     18873     18875     18876     18877     18876     18878
     18879     18880     18879     18881     18882     18883     18882     18884
     18885     18886     18885     18887     18888     18889     18888     18890
     18891     18892     18891     18893     18894     18895     18894     18896
     18897     18898     18897     18899     18900     18901     18900     18902
     18903     18904     18903     18905     18906     18907     18906     18908
     18909     18910     18909     18911     18912     18913     18912     18914
     18915     18916     18915     18917     18918     18919     18918     18920
     18921     18922     18921     18923     18924     18925     18924     18926
     18927     18928     18927     18929     18930     18931     18930     18932
     18933     18934     18933     18935     18936     18937     18936     18938
     18939     18940     18939     18941     18942     18943     18942     18944
     18945     18946     18945     18947     18948     18949     18948     18950
     18951     18952     18951     18953     18954     18955     18954     18956
     18957     18958     18957     18959     18960     18961     18960     18962
     18963     18964     18963     18965     18966     18967     18966     18968
     18969     18970     18969     18971     18972     18973     18972     18974
     18975     18976     18975     18977     18978     18979     18978     18980
     18981     18982     18981     18983     18984     18985     18984     18986
     18987     18988     18987     18989     18990     18991     18990     18992
     18993     18994     18993     18995     18996     18997     18996     18998
     18999     19000     18999     19001     19002     19003     19002     19004
     19005     19006     19005     19007     19008     19009     19008     19010
     19011     19012     19011     19013     19014     19015     19014     19016
     19017     19018     19017     19019     19020     19021     19020     19022
     19023     19024     19023     19025     19026     19027     19026     19028
     19029     19030     19029     19031     19032     19033     19032     19034
     19035     19036     19035     19037     19038     19039     19038     19040
     19041     19042     19041     19043     19044     19045     19044     19046
     19047     19048     19047     19049     19050     19051     19050     19052
     19053     19054     19053     19055     19056     19057     19056     19058
     19059     19060     19059     19061     19062     19063     19062     19064
     19065     19066     19065     19067     19068     19069     19068     19070
     19071     19072     19071     19073     19074     19075     19074     19076
     19077     19078     19077     19079     19080     19081     19080     19082
     19083     19084     19083     19085     19086     19087     19086     19088
     19089     19090     19089     19091     19092     19093     19092     19094
     19095     19096     19095     19097     19098     19099     19098     19100
     19101     19102     19101     19103     19104     19105     19104     19106
     19107     19108     19107     19109     19110     19111     19110     19112
     19113     19114     19113     19115     19116     19117     19116     19118
     19119     19120     19119     19121     19122     19123     19122     19124
     19125     19126     19125     19127     19128     19129     19128     19130
     19131     19132     19131     19133     19134     19135     19134     19136
     19137     19138     19137     19139     19140     19141     19140     19142
     19143     19144     19143     19145     19146     19147     19146     19148
     19149     19150     19149     19151     19152     19153     19152     19154
     19155     19156     19155     19157     19158     19159     19158     19160
     19161     19162     19161     19163     19164     19165     19164     19166
     19167     19168     19167     19169     19170     19171     19170     19172
     19173     19174     19173     19175     19176     19177     19176     19178
     19179     19180     19179     19181     19182     19183     19182     19184
     19185     19186     19185     19187     19188     19189     19188     19190
     19191     19192     19191     19193     19194     19195     19194     19196
     19197     19198     19197     19199     19200     19201     19200     19202
     19203     19204     19203     19205     19206     19207     19206     19208
     19209     19210     19209     19211     19212     19213     19212     19214
     19215     19216     19215     19217     19218     19219     19218     19220
     19221     19222     19221     19223     19224     19225     19224     19226
     19227     19228     19227     19229     19230     19231     19230     19232
     19233     19234     19233     19235     19236     19237     19236     19238
     19239     19240     19239     19241     19242     19243     19242     19244
     19245     19246     19245     19247     19248     19249     19248     19250
     19251     19252     19251     19253     19254     19255     19254     19256
     19257     19258     19257     19259     19260     19261     19260     19262
     19263     19264     19263     19265     19266     19267     19266     19268
     19269     19270     19269     19271     19272     19273     19272     19274
     19275     19276     19275     19277     19278     19279     19278     19280
     19281     19282     19281     19283     19284     19285     19284     19286
     19287     19288     19287     19289     19290     19291     19290     19292
     19293     19294     19293     19295     19296     19297     19296     19298
     19299     19300     19299     19301     19302     19303     19302     19304
     19305     19306     19305     19307     19308     19309     19308     19310
     19311     19312     19311     19313     19314     19315     19314     19316
     19317     19318     19317     19319     19320     19321     19320     19322
     19323     19324     19323     19325     19326     19327     19326     19328
     19329     19330     19329     19331     19332     19333     19332     19334
     19335     19336     19335     19337     19338     19339     19338     19340
     19341     19342     19341     19343     19344     19345     19344     19346
     19347     19348     19347     19349     19350     19351     19350     19352
     19353     19354     19353     19355     19356     19357     19356     19358
     19359     19360     19359     19361     19362     19363     19362     19364
     19365     19366     19365     19367     19368     19369     19368     19370
     19371     19372     19371     19373     19374     19375     19374     19376
     19377     19378     19377     19379     19380     19381     19380     19382
     19383     19384     19383     19385     19386     19387     19386     19388
     19389     19390     19389     19391     19392     19393     19392     19394
     19395     19396     19395     19397     19398     19399     19398     19400
     19401     19402     19401     19403     19404     19405     19404     19406
     19407     19408     19407     19409     19410     19411     19410     19412
     19413     19414     19413     19415     19416     19417     19416     19418
     19419     19420     19419     19421     19422     19423     19422     19424
     19425     19426     19425     19427     19428     19429     19428     19430
     19431     19432     19431     19433     19434     19435     19434     19436
     19437     19438     19437     19439     19440     19441     19440     19442
     19443     19444     19443     19445     19446     19447     19446     19448
     19449     19450     19449     19451     19452     19453     19452     19454
     19455     19456     19455     19457     19458     19459     19458     19460
     19461     19462     19461     19463     19464     19465     19464     19466
     19467     19468     19467     19469     19470     19471     19470     19472
     19473     19474     19473     19475     19476     19477     19476     19478
     19479     19480     19479     19481     19482     19483     19482     19484
     19485     19486     19485     19487     19488     19489     19488     19490
     19491     19492     19491     19493     19494     19495     19494     19496
     19497     19498     19497     19499     19500     19501     19500     19502
     19503     19504     19503     19505     19506     19507     19506     19508
     19509     19510     19509     19511     19512     19513     19512     19514
     19515     19516     19515     19517     19518     19519     19518     19520
     19521     19522     19521     19523     19524     19525     19524     19526
     19527     19528     19527     19529     19530     19531     19530     19532
     19533     19534     19533     19535     19536     19537     19536     19538
     19539     19540     19539     19541     19542     19543     19542     19544
     19545     19546     19545     19547     19548     19549     19548     19550
     19551     19552     19551     19553     19554     19555     19554     19556
     19557     19558     19557     19559     19560     19561     19560     19562
     19563     19564     19563     19565     19566     19567     19566     19568
     19569     19570     19569     19571     19572     19573     19572     19574
     19575     19576     19575     19577     19578     19579     19578     19580
     19581     19582     19581     19583     19584     19585     19584     19586
     19587     19588     19587     19589     19590     19591     19590     19592
     19593     19594     19593     19595     19596     19597     19596     19598
     19599     19600     19599     19601     19602     19603     19602     19604
     19605     19606     19605     19607     19608     19609     19608     19610
     19611     19612     19611     19613     19614     19615     19614     19616
     19617     19618     19617     19619     19620     19621     19620     19622
     19623     19624     19623     19625     19626     19627     19626     19628
     19629     19630     19629     19631     19632     19633     19632     19634
     19635     19636     19635     19637     19638     19639     19638     19640
     19641     19642     19641     19643     19644     19645     19644     19646
     19647     19648     19647     19649     19650     19651     19650     19652
     19653     19654     19653     19655     19656     19657     19656     19658
     19659     19660     19659     19661     19662     19663     19662     19664
     19665     19666     19665     19667     19668     19669     19668     19670
     19671     19672     19671     19673     19674     19675     19674     19676
     19677     19678     19677     19679     19680     19681     19680     19682
     19683     19684     19683     19685     19686     19687     19686     19688
     19689     19690     19689     19691     19692     19693     19692     19694
     19695     19696     19695     19697     19698     19699     19698     19700
     19701     19702     19701     19703     19704     19705     19704     19706
     19707     19708     19707     19709     19710     19711     19710     19712
     19713     19714     19713     19715     19716     19717     19716     19718
     19719     19720     19719     19721     19722     19723     19722     19724
     19725     19726     19725     19727     19728     19729     19728     19730
     19731     19732     19731     19733     19734     19735     19734     19736
     19737     19738     19737     19739     19740     19741     19740     19742
     19743     19744     19743     19745     19746     19747     19746     19748
     19749     19750     19749     19751     19752     19753     19752     19754
     19755     19756     19755     19757     19758     19759     19758     19760
     19761     19762     19761     19763     19764     19765     19764     19766
     19767     19768     19767     19769     19770     19771     19770     19772
     19773     19774     19773     19775     19776     19777     19776     19778
     19779     19780     19779     19781     19782     19783     19782     19784
     19785     19786     19785     19787     19788     19789     19788     19790
     19791     19792     19791     19793     19794     19795     19794     19796
     19797     19798     19797     19799     19800     19801     19800     19802
     19803     19804     19803     19805     19806     19807     19806     19808
     19809     19810     19809     19811     19812     19813     19812     19814
     19815     19816     19815     19817     19818     19819     19818     19820
     19821     19822     19821     19823     19824     19825     19824     19826
     19827     19828     19827     19829     19830     19831     19830     19832
     19833     19834     19833     19835     19836     19837     19836     19838
     19839     19840     19839     19841     19842     19843     19842     19844
     19845     19846     19845     19847     19848     19849     19848     19850
     19851     19852     19851     19853     19854     19855     19854     19856
     19857     19858     19857     19859     19860     19861     19860     19862
     19863     19864     19863     19865     19866     19867     19866     19868
     19869     19870     19869     19871     19872     19873     19872     19874
     19875     19876     19875     19877     19878     19879     19878     19880
     19881     19882     19881     19883     19884     19885     19884     19886
     19887     19888     19887     19889     19890     19891     19890     19892
     19893     19894     19893     19895     19896     19897     19896     19898
     19899     19900     19899     19901     19902     19903     19902     19904
     19905     19906     19905     19907     19908     19909     19908     19910
     19911     19912     19911     19913     19914     19915     19914     19916
     19917     19918     19917     19919     19920     19921     19920     19922
     19923     19924     19923     19925     19926     19927     19926     19928
     19929     19930     19929     19931     19932     19933     19932     19934
     19935     19936     19935     19937     19938     19939     19938     19940
     19941     19942     19941     19943     19944     19945     19944     19946
     19947     19948     19947     19949     19950     19951     19950     19952
     19953     19954     19953     19955     19956     19957     19956     19958
     19959     19960     19959     19961     19962     19963     19962     19964
     19965     19966     19965     19967     19968     19969     19968     19970
     19971     19972     19971     19973     19974     19975     19974     19976
     19977     19978     19977     19979     19980     19981     19980     19982
     19983     19984     19983     19985     19986     19987     19986     19988
     19989     19990     19989     19991     19992     19993     19992     19994
     19995     19996     19995     19997     19998     19999     19998     20000
     20001     20002     20001     20003     20004     20005     20004     20006
     20007     20008     20007     20009     20010     20011     20010     20012
     20013     20014     20013     20015     20016     20017     20016     20018
     20019     20020     20019     20021     20022     20023     20022     20024
     20025     20026     20025     20027     20028     20029     20028     20030
     20031     20032     20031     20033     20034     20035     20034     20036
     20037     20038     20037     20039     20040     20041     20040     20042
     20043     20044     20043     20045     20046     20047     20046     20048
     20049     20050     20049     20051     20052     20053     20052     20054
     20055     20056     20055     20057     20058     20059     20058     20060
     20061     20062     20061     20063     20064     20065     20064     20066
     20067     20068     20067     20069     20070     20071     20070     20072
     20073     20074     20073     20075     20076     20077     20076     20078
     20079     20080     20079     20081     20082     20083     20082     20084
     20085     20086     20085     20087     20088     20089     20088     20090
     20091     20092     20091     20093     20094     20095     20094     20096
     20097     20098     20097     20099     20100     20101     20100     20102
     20103     20104     20103     20105     20106     20107     20106     20108
     20109     20110     20109     20111     20112     20113     20112     20114
     20115     20116     20115     20117     20118     20119     20118     20120
     20121     20122     20121     20123     20124     20125     20124     20126
     20127     20128     20127     20129     20130     20131     20130     20132
     20133     20134     20133     20135     20136     20137     20136     20138
     20139     20140     20139     20141     20142     20143     20142     20144
     20145     20146     20145     20147     20148     20149     20148     20150
     20151     20152     20151     20153     20154     20155     20154     20156
     20157     20158     20157     20159     20160     20161     20160     20162
     20163     20164     20163     20165     20166     20167     20166     20168
     20169     20170     20169     20171     20172     20173     20172     20174
     20175     20176     20175     20177     20178     20179     20178     20180
     20181     20182     20181     20183     20184     20185     20184     20186
     20187     20188     20187     20189     20190     20191     20190     20192
     20193     20194     20193     20195     20196     20197     20196     20198
     20199     20200     20199     20201     20202     20203     20202     20204
     20205     20206     20205     20207     20208     20209     20208     20210
     20211     20212     20211     20213     20214     20215     20214     20216
     20217     20218     20217     20219     20220     20221     20220     20222
     20223     20224     20223     20225     20226     20227     20226     20228
     20229     20230     20229     20231     20232     20233     20232     20234
     20235     20236     20235     20237     20238     20239     20238     20240
     20241     20242     20241     20243     20244     20245     20244     20246
     20247     20248     20247     20249     20250     20251     20250     20252
     20253     20254     20253     20255     20256     20257     20256     20258
     20259     20260     20259     20261     20262     20263     20262     20264
     20265     20266     20265     20267     20268     20269     20268     20270
     20271     20272     20271     20273     20274     20275     20274     20276
     20277     20278     20277     20279     20280     20281     20280     20282
     20283     20284     20283     20285     20286     20287     20286     20288
     20289     20290     20289     20291     20292     20293     20292     20294
     20295     20296     20295     20297     20298     20299     20298     20300
     20301     20302     20301     20303     20304     20305     20304     20306
     20307     20308     20307     20309     20310     20311     20310     20312
     20313     20314     20313     20315     20316     20317     20316     20318
     20319     20320     20319     20321     20322     20323     20322     20324
     20325     20326     20325     20327     20328     20329     20328     20330
     20331     20332     20331     20333     20334     20335     20334     20336
     20337     20338     20337     20339     20340     20341     20340     20342
     20343     20344     20343     20345     20346     20347     20346     20348
     20349     20350     20349     20351     20352     20353     20352     20354
     20355     20356     20355     20357     20358     20359     20358     20360
     20361     20362     20361     20363     20364     20365     20364     20366
     20367     20368     20367     20369     20370     20371     20370     20372
     20373     20374     20373     20375     20376     20377     20376     20378
     20379     20380     20379     20381     20382     20383     20382     20384
     20385     20386     20385     20387     20388     20389     20388     20390
     20391     20392     20391     20393     20394     20395     20394     20396
     20397     20398     20397     20399     20400     20401     20400     20402
     20403     20404     20403     20405     20406     20407     20406     20408
     20409     20410     20409     20411     20412     20413     20412     20414
     20415     20416     20415     20417     20418     20419     20418     20420
     20421     20422     20421     20423     20424     20425     20424     20426
     20427     20428     20427     20429     20430     20431     20430     20432
     20433     20434     20433     20435     20436     20437     20436     20438
     20439     20440     20439     20441     20442     20443     20442     20444
     20445     20446     20445     20447     20448     20449     20448     20450
     20451     20452     20451     20453     20454     20455     20454     20456
     20457     20458     20457     20459     20460     20461     20460     20462
     20463     20464     20463     20465     20466     20467     20466     20468
     20469     20470     20469     20471     20472     20473     20472     20474
     20475     20476     20475     20477     20478     20479     20478     20480
     20481     20482     20481     20483     20484     20485     20484     20486
     20487     20488     20487     20489     20490     20491     20490     20492
     20493     20494     20493     20495     20496     20497     20496     20498
     20499     20500     20499     20501     20502     20503     20502     20504
     20505     20506     20505     20507     20508     20509     20508     20510
     20511     20512     20511     20513     20514     20515     20514     20516
     20517     20518     20517     20519     20520     20521     20520     20522
     20523     20524     20523     20525     20526     20527     20526     20528
     20529     20530     20529     20531     20532     20533     20532     20534
     20535     20536     20535     20537     20538     20539     20538     20540
     20541     20542     20541     20543     20544     20545     20544     20546
     20547     20548     20547     20549     20550     20551     20550     20552
     20553     20554     20553     20555     20556     20557     20556     20558
     20559     20560     20559     20561     20562     20563     20562     20564
     20565     20566     20565     20567     20568     20569     20568     20570
     20571     20572     20571     20573     20574     20575     20574     20576
     20577     20578     20577     20579     20580     20581     20580     20582
     20583     20584     20583     20585     20586     20587     20586     20588
     20589     20590     20589     20591     20592     20593     20592     20594
     20595     20596     20595     20597     20598     20599     20598     20600
     20601     20602     20601     20603     20604     20605     20604     20606
     20607     20608     20607     20609     20610     20611     20610     20612
     20613     20614     20613     20615     20616     20617     20616     20618
     20619     20620     20619     20621     20622     20623     20622     20624
     20625     20626     20625     20627     20628     20629     20628     20630
     20631     20632     20631     20633     20634     20635     20634     20636
     20637     20638     20637     20639     20640     20641     20640     20642
     20643     20644     20643     20645     20646     20647     20646     20648
     20649     20650     20649     20651     20652     20653     20652     20654
     20655     20656     20655     20657     20658     20659     20658     20660
     20661     20662     20661     20663     20664     20665     20664     20666
     20667     20668     20667     20669     20670     20671     20670     20672
     20673     20674     20673     20675     20676     20677     20676     20678
     20679     20680     20679     20681     20682     20683     20682     20684
     20685     20686     20685     20687     20688     20689     20688     20690
     20691     20692     20691     20693     20694     20695     20694     20696
     20697     20698     20697     20699     20700     20701     20700     20702
     20703     20704     20703     20705     20706     20707     20706     20708
     20709     20710     20709     20711     20712     20713     20712     20714
     20715     20716     20715     20717     20718     20719     20718     20720
     20721     20722     20721     20723     20724     20725     20724     20726
     20727     20728     20727     20729     20730     20731     20730     20732
     20733     20734     20733     20735     20736     20737     20736     20738
     20739     20740     20739     20741     20742     20743     20742     20744
     20745     20746     20745     20747     20748     20749     20748     20750
     20751     20752     20751     20753     20754     20755     20754     20756
     20757     20758     20757     20759     20760     20761     20760     20762
     20763     20764     20763     20765     20766     20767     20766     20768
     20769     20770     20769     20771     20772     20773     20772     20774
     20775     20776     20775     20777     20778     20779     20778     20780
     20781     20782     20781     20783     20784     20785     20784     20786
     20787     20788     20787     20789     20790     20791     20790     20792
     20793     20794     20793     20795     20796     20797     20796     20798
     20799     20800     20799     20801     20802     20803     20802     20804
     20805     20806     20805     20807     20808     20809     20808     20810
     20811     20812     20811     20813     20814     20815     20814     20816
     20817     20818     20817     20819     20820     20821     20820     20822
     20823     20824     20823     20825     20826     20827     20826     20828
     20829     20830     20829     20831     20832     20833     20832     20834
     20835     20836     20835     20837     20838     20839     20838     20840
     20841     20842     20841     20843     20844     20845     20844     20846
     20847     20848     20847     20849     20850     20851     20850     20852
     20853     20854     20853     20855     20856     20857     20856     20858
     20859     20860     20859     20861     20862     20863     20862     20864
     20865     20866     20865     20867     20868     20869     20868     20870
     20871     20872     20871     20873     20874     20875     20874     20876
     20877     20878     20877     20879     20880     20881     20880     20882
     20883     20884     20883     20885     20886     20887     20886     20888
     20889     20890     20889     20891     20892     20893     20892     20894
     20895     20896     20895     20897     20898     20899     20898     20900
     20901     20902     20901     20903     20904     20905     20904     20906
     20907     20908     20907     20909     20910     20911     20910     20912
     20913     20914     20913     20915     20916     20917     20916     20918
     20919     20920     20919     20921     20922     20923     20922     20924
     20925     20926     20925     20927     20928     20929     20928     20930
     20931     20932     20931     20933     20934     20935     20934     20936
     20937     20938     20937     20939     20940     20941     20940     20942
     20943     20944     20943     20945     20946     20947     20946     20948
     20949     20950     20949     20951     20952     20953     20952     20954
     20955     20956     20955     20957     20958     20959     20958     20960
     20961     20962     20961     20963     20964     20965     20964     20966
     20967     20968     20967     20969     20970     20971     20970     20972
     20973     20974     20973     20975     20976     20977     20976     20978
     20979     20980     20979     20981     20982     20983     20982     20984
     20985     20986     20985     20987     20988     20989     20988     20990
     20991     20992     20991     20993     20994     20995     20994     20996
     20997     20998     20997     20999     21000     21001     21000     21002
     21003     21004     21003     21005     21006     21007     21006     21008
     21009     21010     21009     21011     21012     21013     21012     21014
     21015     21016     21015     21017     21018     21019     21018     21020
     21021     21022     21021     21023     21024     21025     21024     21026
     21027     21028     21027     21029     21030     21031     21030     21032
     21033     21034     21033     21035     21036     21037     21036     21038
     21039     21040     21039     21041     21042     21043     21042     21044
     21045     21046     21045     21047     21048     21049     21048     21050
     21051     21052     21051     21053     21054     21055     21054     21056
     21057     21058     21057     21059     21060     21061     21060     21062
     21063     21064     21063     21065     21066     21067     21066     21068
     21069     21070     21069     21071     21072     21073     21072     21074
     21075     21076     21075     21077     21078     21079     21078     21080
     21081     21082     21081     21083     21084     21085     21084     21086
     21087     21088     21087     21089     21090     21091     21090     21092
     21093     21094     21093     21095     21096     21097     21096     21098
     21099     21100     21099     21101     21102     21103     21102     21104
     21105     21106     21105     21107     21108     21109     21108     21110
     21111     21112     21111     21113     21114     21115     21114     21116
     21117     21118     21117     21119     21120     21121     21120     21122
     21123     21124     21123     21125     21126     21127     21126     21128
     21129     21130     21129     21131     21132     21133     21132     21134
     21135     21136     21135     21137     21138     21139     21138     21140
     21141     21142     21141     21143     21144     21145     21144     21146
     21147     21148     21147     21149     21150     21151     21150     21152
     21153     21154     21153     21155     21156     21157     21156     21158
     21159     21160     21159     21161     21162     21163     21162     21164
     21165     21166     21165     21167     21168     21169     21168     21170
     21171     21172     21171     21173     21174     21175     21174     21176
     21177     21178     21177     21179     21180     21181     21180     21182
     21183     21184     21183     21185     21186     21187     21186     21188
     21189     21190     21189     21191     21192     21193     21192     21194
     21195     21196     21195     21197     21198     21199     21198     21200
     21201     21202     21201     21203     21204     21205     21204     21206
     21207     21208     21207     21209     21210     21211     21210     21212
     21213     21214     21213     21215     21216     21217     21216     21218
     21219     21220     21219     21221     21222     21223     21222     21224
     21225     21226     21225     21227     21228     21229     21228     21230
     21231     21232     21231     21233     21234     21235     21234     21236
     21237     21238     21237     21239     21240     21241     21240     21242
     21243     21244     21243     21245     21246     21247     21246     21248
     21249     21250     21249     21251     21252     21253     21252     21254
     21255     21256     21255     21257     21258     21259     21258     21260
     21261     21262     21261     21263     21264     21265     21264     21266
     21267     21268     21267     21269     21270     21271     21270     21272
     21273     21274     21273     21275     21276     21277     21276     21278
     21279     21280     21279     21281     21282     21283     21282     21284
     21285     21286     21285     21287     21288     21289     21288     21290
     21291     21292     21291     21293     21294     21295     21294     21296
     21297     21298     21297     21299     21300     21301     21300     21302
     21303     21304     21303     21305     21306     21307     21306     21308
     21309     21310     21309     21311     21312     21313     21312     21314
     21315     21316     21315     21317     21318     21319     21318     21320
     21321     21322     21321     21323     21324     21325     21324     21326
     21327     21328     21327     21329     21330     21331     21330     21332
     21333     21334     21333     21335     21336     21337     21336     21338
     21339     21340     21339     21341     21342     21343     21342     21344
     21345     21346     21345     21347     21348     21349     21348     21350
     21351     21352     21351     21353     21354     21355     21354     21356
     21357     21358     21357     21359     21360     21361     21360     21362
     21363     21364     21363     21365     21366     21367     21366     21368
     21369     21370     21369     21371     21372     21373     21372     21374
     21375     21376     21375     21377     21378     21379     21378     21380
     21381     21382     21381     21383     21384     21385     21384     21386
     21387     21388     21387     21389     21390     21391     21390     21392
     21393     21394     21393     21395     21396     21397     21396     21398
     21399     21400     21399     21401     21402     21403     21402     21404
     21405     21406     21405     21407     21408     21409     21408     21410
     21411     21412     21411     21413     21414     21415     21414     21416
     21417     21418     21417     21419     21420     21421     21420     21422
     21423     21424     21423     21425     21426     21427     21426     21428
     21429     21430     21429     21431     21432     21433     21432     21434
     21435     21436     21435     21437     21438     21439     21438     21440
     21441     21442     21441     21443     21444     21445     21444     21446
     21447     21448     21447     21449     21450     21451     21450     21452
     21453     21454     21453     21455     21456     21457     21456     21458
     21459     21460     21459     21461     21462     21463     21462     21464
     21465     21466     21465     21467     21468     21469     21468     21470
     21471     21472     21471     21473     21474     21475     21474     21476
     21477     21478     21477     21479     21480     21481     21480     21482
     21483     21484     21483     21485     21486     21487     21486     21488
     21489     21490     21489     21491     21492     21493     21492     21494
     21495     21496     21495     21497     21498     21499     21498     21500
     21501     21502     21501     21503     21504     21505     21504     21506
     21507     21508     21507     21509     21510     21511     21510     21512
     21513     21514     21513     21515     21516     21517     21516     21518
     21519     21520     21519     21521     21522     21523     21522     21524
     21525     21526     21525     21527     21528     21529     21528     21530
     21531     21532     21531     21533     21534     21535     21534     21536
     21537     21538     21537     21539     21540     21541     21540     21542
     21543     21544     21543     21545     21546     21547     21546     21548
     21549     21550     21549     21551     21552     21553     21552     21554
     21555     21556     21555     21557     21558     21559     21558     21560
     21561     21562     21561     21563     21564     21565     21564     21566
     21567     21568     21567     21569     21570     21571     21570     21572
     21573     21574     21573     21575     21576     21577     21576     21578
     21579     21580     21579     21581     21582     21583     21582     21584
     21585     21586     21585     21587     21588     21589     21588     21590
     21591     21592     21591     21593     21594     21595     21594     21596
     21597     21598     21597     21599     21600     21601     21600     21602
     21603     21604     21603     21605     21606     21607     21606     21608
     21609     21610     21609     21611     21612     21613     21612     21614
     21615     21616     21615     21617     21618     21619     21618     21620
     21621     21622     21621     21623     21624     21625     21624     21626
     21627     21628     21627     21629     21630     21631     21630     21632
     21633     21634     21633     21635     21636     21637     21636     21638
     21639     21640     21639     21641     21642     21643     21642     21644
     21645     21646     21645     21647     21648     21649     21648     21650
     21651     21652     21651     21653     21654     21655     21654     21656
     21657     21658     21657     21659     21660     21661     21660     21662
     21663     21664     21663     21665     21666     21667     21666     21668
     21669     21670     21669     21671     21672     21673     21672     21674
     21675     21676     21675     21677     21678     21679     21678     21680
     21681     21682     21681     21683     21684     21685     21684     21686
     21687     21688     21687     21689     21690     21691     21690     21692
     21693     21694     21693     21695     21696     21697     21696     21698
     21699     21700     21699     21701     21702     21703     21702     21704
     21705     21706     21705     21707     21708     21709     21708     21710
     21711     21712     21711     21713     21714     21715     21714     21716
     21717     21718     21717     21719     21720     21721     21720     21722
     21723     21724     21723     21725     21726     21727     21726     21728
     21729     21730     21729     21731     21732     21733     21732     21734
     21735     21736     21735     21737     21738     21739     21738     21740
     21741     21742     21741     21743     21744     21745     21744     21746
     21747     21748     21747     21749     21750     21751     21750     21752
     21753     21754     21753     21755     21756     21757     21756     21758
     21759     21760     21759     21761     21762     21763     21762     21764
     21765     21766     21765     21767     21768     21769     21768     21770
     21771     21772     21771     21773     21774     21775     21774     21776
     21777     21778     21777     21779     21780     21781     21780     21782
     21783     21784     21783     21785     21786     21787     21786     21788
     21789     21790     21789     21791     21792     21793     21792     21794
     21795     21796     21795     21797     21798     21799     21798     21800
     21801     21802     21801     21803     21804     21805     21804     21806
     21807     21808     21807     21809     21810     21811     21810     21812
     21813     21814     21813     21815     21816     21817     21816     21818
     21819     21820     21819     21821     21822     21823     21822     21824
     21825     21826     21825     21827     21828     21829     21828     21830
     21831     21832     21831     21833     21834     21835     21834     21836
     21837     21838     21837     21839     21840     21841     21840     21842
     21843     21844     21843     21845     21846     21847     21846     21848
     21849     21850     21849     21851     21852     21853     21852     21854
     21855     21856     21855     21857     21858     21859     21858     21860
     21861     21862     21861     21863     21864     21865     21864     21866
     21867     21868     21867     21869     21870     21871     21870     21872
     21873     21874     21873     21875     21876     21877     21876     21878
     21879     21880     21879     21881     21882     21883     21882     21884
     21885     21886     21885     21887     21888     21889     21888     21890
     21891     21892     21891     21893     21894     21895     21894     21896
     21897     21898     21897     21899     21900     21901     21900     21902
     21903     21904     21903     21905     21906     21907     21906     21908
     21909     21910     21909     21911     21912     21913     21912     21914
     21915     21916     21915     21917     21918     21919     21918     21920
     21921     21922     21921     21923     21924     21925     21924     21926
     21927     21928     21927     21929     21930     21931     21930     21932
     21933     21934     21933     21935     21936     21937     21936     21938
     21939     21940     21939     21941     21942     21943     21942     21944
     21945     21946     21945     21947     21948     21949     21948     21950
     21951     21952     21951     21953     21954     21955     21954     21956
     21957     21958     21957     21959     21960     21961     21960     21962
     21963     21964     21963     21965     21966     21967     21966     21968
     21969     21970     21969     21971     21972     21973     21972     21974
     21975     21976     21975     21977     21978     21979     21978     21980
     21981     21982     21981     21983     21984     21985     21984     21986
     21987     21988     21987     21989     21990     21991     21990     21992
     21993     21994     21993     21995     21996     21997     21996     21998
     21999     22000     21999     22001     22002     22003     22002     22004
     22005     22006     22005     22007     22008     22009     22008     22010
     22011     22012     22011     22013     22014     22015     22014     22016
     22017     22018     22017     22019     22020     22021     22020     22022
     22023     22024     22023     22025     22026     22027     22026     22028
     22029     22030     22029     22031     22032     22033     22032     22034
     22035     22036     22035     22037     22038     22039     22038     22040
     22041     22042     22041     22043     22044     22045     22044     22046
     22047     22048     22047     22049     22050     22051     22050     22052
     22053     22054     22053     22055     22056     22057     22056     22058
     22059     22060     22059     22061     22062     22063     22062     22064
     22065     22066     22065     22067     22068     22069     22068     22070
     22071     22072     22071     22073     22074     22075     22074     22076
     22077     22078     22077     22079     22080     22081     22080     22082
     22083     22084     22083     22085     22086     22087     22086     22088
     22089     22090     22089     22091     22092     22093     22092     22094
     22095     22096     22095     22097     22098     22099     22098     22100
     22101     22102     22101     22103     22104     22105     22104     22106
     22107     22108     22107     22109     22110     22111     22110     22112
     22113     22114     22113     22115     22116     22117     22116     22118
     22119     22120     22119     22121     22122     22123     22122     22124
     22125     22126     22125     22127     22128     22129     22128     22130
     22131     22132     22131     22133     22134     22135     22134     22136
     22137     22138     22137     22139     22140     22141     22140     22142
     22143     22144     22143     22145     22146     22147     22146     22148
     22149     22150     22149     22151     22152     22153     22152     22154
     22155     22156     22155     22157     22158     22159     22158     22160
     22161     22162     22161     22163     22164     22165     22164     22166
     22167     22168     22167     22169     22170     22171     22170     22172
     22173     22174     22173     22175     22176     22177     22176     22178
     22179     22180     22179     22181     22182     22183     22182     22184
     22185     22186     22185     22187     22188     22189     22188     22190
     22191     22192     22191     22193     22194     22195     22194     22196
     22197     22198     22197     22199     22200     22201     22200     22202
     22203     22204     22203     22205     22206     22207     22206     22208
     22209     22210     22209     22211     22212     22213     22212     22214
     22215     22216     22215     22217     22218     22219     22218     22220
     22221     22222     22221     22223     22224     22225     22224     22226
     22227     22228     22227     22229     22230     22231     22230     22232
     22233     22234     22233     22235     22236     22237     22236     22238
     22239     22240     22239     22241     22242     22243     22242     22244
     22245     22246     22245     22247     22248     22249     22248     22250
     22251     22252     22251     22253     22254     22255     22254     22256
     22257     22258     22257     22259     22260     22261     22260     22262
     22263     22264     22263     22265     22266     22267     22266     22268
     22269     22270     22269     22271     22272     22273     22272     22274
     22275     22276     22275     22277     22278     22279     22278     22280
     22281     22282     22281     22283     22284     22285     22284     22286
     22287     22288     22287     22289     22290     22291     22290     22292
     22293     22294     22293     22295     22296     22297     22296     22298
     22299     22300     22299     22301     22302     22303     22302     22304
     22305     22306     22305     22307     22308     22309     22308     22310
     22311     22312     22311     22313     22314     22315     22314     22316
     22317     22318     22317     22319     22320     22321     22320     22322
     22323     22324     22323     22325     22326     22327     22326     22328
     22329     22330     22329     22331     22332     22333     22332     22334
     22335     22336     22335     22337     22338     22339     22338     22340
     22341     22342     22341     22343     22344     22345     22344     22346
     22347     22348     22347     22349     22350     22351     22350     22352
     22353     22354     22353     22355     22356     22357     22356     22358
     22359     22360     22359     22361     22362     22363     22362     22364
     22365     22366     22365     22367     22368     22369     22368     22370
     22371     22372     22371     22373     22374     22375     22374     22376
     22377     22378     22377     22379     22380     22381     22380     22382
     22383     22384     22383     22385     22386     22387     22386     22388
     22389     22390     22389     22391     22392     22393     22392     22394
     22395     22396     22395     22397     22398     22399     22398     22400
     22401     22402     22401     22403     22404     22405     22404     22406
     22407     22408     22407     22409     22410     22411     22410     22412
     22413     22414     22413     22415     22416     22417     22416     22418
     22419     22420     22419     22421     22422     22423     22422     22424
     22425     22426     22425     22427     22428     22429     22428     22430
     22431     22432     22431     22433     22434     22435     22434     22436
     22437     22438     22437     22439     22440     22441     22440     22442
     22443     22444     22443     22445     22446     22447     22446     22448
     22449     22450     22449     22451     22452     22453     22452     22454
     22455     22456     22455     22457     22458     22459     22458     22460
     22461     22462     22461     22463     22464     22465     22464     22466
     22467     22468     22467     22469     22470     22471     22470     22472
     22473     22474     22473     22475     22476     22477     22476     22478
     22479     22480     22479     22481     22482     22483     22482     22484
     22485     22486     22485     22487     22488     22489     22488     22490
     22491     22492     22491     22493     22494     22495     22494     22496
     22497     22498     22497     22499     22500     22501     22500     22502
     22503     22504     22503     22505     22506     22507     22506     22508
     22509     22510     22509     22511     22512     22513     22512     22514
     22515     22516     22515     22517     22518     22519     22518     22520
     22521     22522     22521     22523     22524     22525     22524     22526
     22527     22528     22527     22529     22530     22531     22530     22532
     22533     22534     22533     22535     22536     22537     22536     22538
     22539     22540     22539     22541     22542     22543     22542     22544
     22545     22546     22545     22547     22548     22549     22548     22550
     22551     22552     22551     22553     22554     22555     22554     22556
     22557     22558     22557     22559     22560     22561     22560     22562
     22563     22564     22563     22565     22566     22567     22566     22568
     22569     22570     22569     22571     22572     22573     22572     22574
     22575     22576     22575     22577     22578     22579     22578     22580
     22581     22582     22581     22583     22584     22585     22584     22586
     22587     22588     22587     22589     22590     22591     22590     22592
     22593     22594     22593     22595     22596     22597     22596     22598
     22599     22600     22599     22601     22602     22603     22602     22604
     22605     22606     22605     22607     22608     22609     22608     22610
     22611     22612     22611     22613     22614     22615     22614     22616
     22617     22618     22617     22619     22620     22621     22620     22622
     22623     22624     22623     22625     22626     22627     22626     22628
     22629     22630     22629     22631     22632     22633     22632     22634
     22635     22636     22635     22637     22638     22639     22638     22640
     22641     22642     22641     22643     22644     22645     22644     22646
     22647     22648     22647     22649     22650     22651     22650     22652
     22653     22654     22653     22655     22656     22657     22656     22658
     22659     22660     22659     22661     22662     22663     22662     22664
     22665     22666     22665     22667     22668     22669     22668     22670
     22671     22672     22671     22673     22674     22675     22674     22676
     22677     22678     22677     22679     22680     22681     22680     22682
     22683     22684     22683     22685     22686     22687     22686     22688
     22689     22690     22689     22691     22692     22693     22692     22694
     22695     22696     22695     22697     22698     22699     22698     22700
     22701     22702     22701     22703     22704     22705     22704     22706
     22707     22708     22707     22709     22710     22711     22710     22712
     22713     22714     22713     22715     22716     22717     22716     22718
     22719     22720     22719     22721     22722     22723     22722     22724
     22725     22726     22725     22727     22728     22729     22728     22730
     22731     22732     22731     22733     22734     22735     22734     22736
     22737     22738     22737     22739     22740     22741     22740     22742
     22743     22744     22743     22745     22746     22747     22746     22748
     22749     22750     22749     22751     22752     22753     22752     22754
     22755     22756     22755     22757     22758     22759     22758     22760
     22761     22762     22761     22763     22764     22765     22764     22766
     22767     22768     22767     22769     22770     22771     22770     22772
     22773     22774     22773     22775     22776     22777     22776     22778
     22779     22780     22779     22781     22782     22783     22782     22784
     22785     22786     22785     22787     22788     22789     22788     22790
     22791     22792     22791     22793     22794     22795     22794     22796
     22797     22798     22797     22799     22800     22801     22800     22802
     22803     22804     22803     22805     22806     22807     22806     22808
     22809     22810     22809     22811     22812     22813     22812     22814
     22815     22816     22815     22817     22818     22819     22818     22820
     22821     22822     22821     22823     22824     22825     22824     22826
     22827     22828     22827     22829     22830     22831     22830     22832
     22833     22834     22833     22835     22836     22837     22836     22838
     22839     22840     22839     22841     22842     22843     22842     22844
     22845     22846     22845     22847     22848     22849     22848     22850
     22851     22852     22851     22853     22854     22855     22854     22856
     22857     22858     22857     22859     22860     22861     22860     22862
     22863     22864     22863     22865     22866     22867     22866     22868
     22869     22870     22869     22871     22872     22873     22872     22874
     22875     22876     22875     22877     22878     22879     22878     22880
     22881     22882     22881     22883     22884     22885     22884     22886
     22887     22888     22887     22889     22890     22891     22890     22892
     22893     22894     22893     22895     22896     22897     22896     22898
     22899     22900     22899     22901     22902     22903     22902     22904
     22905     22906     22905     22907     22908     22909     22908     22910
     22911     22912     22911     22913     22914     22915     22914     22916
     22917     22918     22917     22919     22920     22921     22920     22922
     22923     22924     22923     22925     22926     22927     22926     22928
     22929     22930     22929     22931     22932     22933     22932     22934
     22935     22936     22935     22937     22938     22939     22938     22940
     22941     22942     22941     22943     22944     22945     22944     22946
     22947     22948     22947     22949     22950     22951     22950     22952
     22953     22954     22953     22955     22956     22957     22956     22958
     22959     22960     22959     22961     22962     22963     22962     22964
     22965     22966     22965     22967     22968     22969     22968     22970
     22971     22972     22971     22973     22974     22975     22974     22976
     22977     22978     22977     22979     22980     22981     22980     22982
     22983     22984     22983     22985     22986     22987     22986     22988
     22989     22990     22989     22991     22992     22993     22992     22994
     22995     22996     22995     22997     22998     22999     22998     23000
     23001     23002     23001     23003     23004     23005     23004     23006
     23007     23008     23007     23009     23010     23011     23010     23012
     23013     23014     23013     23015     23016     23017     23016     23018
     23019     23020     23019     23021     23022     23023     23022     23024
     23025     23026     23025     23027     23028     23029     23028     23030
     23031     23032     23031     23033     23034     23035     23034     23036
     23037     23038     23037     23039     23040     23041     23040     23042
     23043     23044     23043     23045     23046     23047     23046     23048
     23049     23050     23049     23051     23052     23053     23052     23054
     23055     23056     23055     23057     23058     23059     23058     23060
     23061     23062     23061     23063     23064     23065     23064     23066
     23067     23068     23067     23069     23070     23071     23070     23072
     23073     23074     23073     23075     23076     23077     23076     23078
     23079     23080     23079     23081     23082     23083     23082     23084
     23085     23086     23085     23087     23088     23089     23088     23090
     23091     23092     23091     23093     23094     23095     23094     23096
     23097     23098     23097     23099     23100     23101     23100     23102
     23103     23104     23103     23105     23106     23107     23106     23108
     23109     23110     23109     23111     23112     23113     23112     23114
     23115     23116     23115     23117     23118     23119     23118     23120
     23121     23122     23121     23123     23124     23125     23124     23126
     23127     23128     23127     23129     23130     23131     23130     23132
     23133     23134     23133     23135     23136     23137     23136     23138
     23139     23140     23139     23141     23142     23143     23142     23144
     23145     23146     23145     23147     23148     23149     23148     23150
     23151     23152     23151     23153     23154     23155     23154     23156
     23157     23158     23157     23159     23160     23161     23160     23162
     23163     23164     23163     23165     23166     23167     23166     23168
     23169     23170     23169     23171     23172     23173     23172     23174
     23175     23176     23175     23177     23178     23179     23178     23180
     23181     23182     23181     23183     23184     23185     23184     23186
     23187     23188     23187     23189     23190     23191     23190     23192
     23193     23194     23193     23195     23196     23197     23196     23198
     23199     23200     23199     23201     23202     23203     23202     23204
     23205     23206     23205     23207     23208     23209     23208     23210
     23211     23212     23211     23213     23214     23215     23214     23216
     23217     23218     23217     23219     23220     23221     23220     23222
     23223     23224     23223     23225     23226     23227     23226     23228
     23229     23230     23229     23231     23232     23233     23232     23234
     23235     23236     23235     23237     23238     23239     23238     23240
     23241     23242     23241     23243     23244     23245     23244     23246
     23247     23248     23247     23249     23250     23251     23250     23252
     23253     23254     23253     23255     23256     23257     23256     23258
     23259     23260     23259     23261     23262     23263     23262     23264
     23265     23266     23265     23267     23268     23269     23268     23270
     23271     23272     23271     23273     23274     23275     23274     23276
     23277     23278     23277     23279     23280     23281     23280     23282
     23283     23284     23283     23285     23286     23287     23286     23288
     23289     23290     23289     23291     23292     23293     23292     23294
     23295     23296     23295     23297     23298     23299     23298     23300
     23301     23302     23301     23303     23304     23305     23304     23306
     23307     23308     23307     23309     23310     23311     23310     23312
     23313     23314     23313     23315     23316     23317     23316     23318
     23319     23320     23319     23321     23322     23323     23322     23324
     23325     23326     23325     23327     23328     23329     23328     23330
     23331     23332     23331     23333     23334     23335     23334     23336
     23337     23338     23337     23339     23340     23341     23340     23342
     23343     23344     23343     23345     23346     23347     23346     23348
     23349     23350     23349     23351     23352     23353     23352     23354
     23355     23356     23355     23357     23358     23359     23358     23360
     23361     23362     23361     23363     23364     23365     23364     23366
     23367     23368     23367     23369     23370     23371     23370     23372
     23373     23374     23373     23375     23376     23377     23376     23378
     23379     23380     23379     23381     23382     23383     23382     23384
     23385     23386     23385     23387     23388     23389     23388     23390
     23391     23392     23391     23393     23394     23395     23394     23396
     23397     23398     23397     23399     23400     23401     23400     23402
     23403     23404     23403     23405     23406     23407     23406     23408
     23409     23410     23409     23411     23412     23413     23412     23414
     23415     23416     23415     23417     23418     23419     23418     23420
     23421     23422     23421     23423     23424     23425     23424     23426
     23427     23428     23427     23429     23430     23431     23430     23432
     23433     23434     23433     23435     23436     23437     23436     23438
     23439     23440     23439     23441     23442     23443     23442     23444
     23445     23446     23445     23447     23448     23449     23448     23450
     23451     23452     23451     23453     23454     23455     23454     23456
     23457     23458     23457     23459     23460     23461     23460     23462
     23463     23464     23463     23465     23466     23467     23466     23468
     23469     23470     23469     23471     23472     23473     23472     23474
     23475     23476     23475     23477     23478     23479     23478     23480
     23481     23482     23481     23483     23484     23485     23484     23486
     23487     23488     23487     23489     23490     23491     23490     23492
     23493     23494     23493     23495     23496     23497     23496     23498
     23499     23500     23499     23501     23502     23503     23502     23504
     23505     23506     23505     23507     23508     23509     23508     23510
     23511     23512     23511     23513     23514     23515     23514     23516
     23517     23518     23517     23519     23520     23521     23520     23522
     23523     23524     23523     23525     23526     23527     23526     23528
     23529     23530     23529     23531     23532     23533     23532     23534
     23535     23536     23535     23537     23538     23539     23538     23540
     23541     23542     23541     23543     23544     23545     23544     23546
     23547     23548     23547     23549     23550     23551     23550     23552
     23553     23554     23553     23555     23556     23557     23556     23558
     23559     23560     23559     23561     23562     23563     23562     23564
     23565     23566     23565     23567     23568     23569     23568     23570
     23571     23572     23571     23573     23574     23575     23574     23576
     23577     23578     23577     23579     23580     23581     23580     23582
     23583     23584     23583     23585     23586     23587     23586     23588
     23589     23590     23589     23591     23592     23593     23592     23594
     23595     23596     23595     23597     23598     23599     23598     23600
     23601     23602     23601     23603     23604     23605     23604     23606
     23607     23608     23607     23609     23610     23611     23610     23612
     23613     23614     23613     23615     23616     23617     23616     23618
     23619     23620     23619     23621     23622     23623     23622     23624
     23625     23626     23625     23627     23628     23629     23628     23630
     23631     23632     23631     23633     23634     23635     23634     23636
     23637     23638     23637     23639     23640     23641     23640     23642
     23643     23644     23643     23645     23646     23647     23646     23648
     23649     23650     23649     23651     23652     23653     23652     23654
     23655     23656     23655     23657     23658     23659     23658     23660
     23661     23662     23661     23663     23664     23665     23664     23666
     23667     23668     23667     23669     23670     23671     23670     23672
     23673     23674     23673     23675     23676     23677     23676     23678
     23679     23680     23679     23681     23682     23683     23682     23684
     23685     23686     23685     23687     23688     23689     23688     23690
     23691     23692     23691     23693     23694     23695     23694     23696
     23697     23698     23697     23699     23700     23701     23700     23702
     23703     23704     23703     23705     23706     23707     23706     23708
     23709     23710     23709     23711     23712     23713     23712     23714
     23715     23716     23715     23717     23718     23719     23718     23720
     23721     23722     23721     23723     23724     23725     23724     23726
     23727     23728     23727     23729     23730     23731     23730     23732
     23733     23734     23733     23735     23736     23737     23736     23738
     23739     23740     23739     23741     23742     23743     23742     23744
     23745     23746     23745     23747     23748     23749     23748     23750
     23751     23752     23751     23753     23754     23755     23754     23756
     23757     23758     23757     23759     23760     23761     23760     23762
     23763     23764     23763     23765     23766     23767     23766     23768
     23769     23770     23769     23771     23772     23773     23772     23774
     23775     23776     23775     23777     23778     23779     23778     23780
     23781     23782     23781     23783     23784     23785     23784     23786
     23787     23788     23787     23789     23790     23791     23790     23792
     23793     23794     23793     23795     23796     23797     23796     23798
     23799     23800     23799     23801     23802     23803     23802     23804
     23805     23806     23805     23807     23808     23809     23808     23810
     23811     23812     23811     23813     23814     23815     23814     23816
     23817     23818     23817     23819     23820     23821     23820     23822
     23823     23824     23823     23825     23826     23827     23826     23828
     23829     23830     23829     23831     23832     23833     23832     23834
     23835     23836     23835     23837     23838     23839     23838     23840
     23841     23842     23841     23843     23844     23845     23844     23846
     23847     23848     23847     23849     23850     23851     23850     23852
     23853     23854     23853     23855     23856     23857     23856     23858
     23859     23860     23859     23861     23862     23863     23862     23864
     23865     23866     23865     23867     23868     23869     23868     23870
     23871     23872     23871     23873     23874     23875     23874     23876
     23877     23878     23877     23879     23880     23881     23880     23882
     23883     23884     23883     23885     23886     23887     23886     23888
     23889     23890     23889     23891     23892     23893     23892     23894
     23895     23896     23895     23897     23898     23899     23898     23900
     23901     23902     23901     23903     23904     23905     23904     23906
     23907     23908     23907     23909     23910     23911     23910     23912
     23913     23914     23913     23915     23916     23917     23916     23918
     23919     23920     23919     23921     23922     23923     23922     23924
     23925     23926     23925     23927     23928     23929     23928     23930
     23931     23932     23931     23933     23934     23935     23934     23936
     23937     23938     23937     23939     23940     23941     23940     23942
     23943     23944     23943     23945     23946     23947     23946     23948
     23949     23950     23949     23951     23952     23953     23952     23954
     23955     23956     23955     23957     23958     23959     23958     23960
     23961     23962     23961     23963     23964     23965     23964     23966
     23967     23968     23967     23969     23970     23971     23970     23972
     23973     23974     23973     23975     23976     23977     23976     23978
     23979     23980     23979     23981     23982     23983     23982     23984
     23985     23986     23985     23987     23988     23989     23988     23990
     23991     23992     23991     23993     23994     23995     23994     23996
     23997     23998     23997     23999     24000     24001     24000     24002
     24003     24004     24003     24005     24006     24007     24006     24008
     24009     24010     24009     24011     24012     24013     24012     24014
     24015     24016     24015     24017     24018     24019     24018     24020
     24021     24022     24021     24023     24024     24025     24024     24026
     24027     24028     24027     24029     24030     24031     24030     24032
     24033     24034     24033     24035     24036     24037     24036     24038
     24039     24040     24039     24041     24042     24043     24042     24044
     24045     24046     24045     24047     24048     24049     24048     24050
     24051     24052     24051     24053     24054     24055     24054     24056
     24057     24058     24057     24059     24060     24061     24060     24062
     24063     24064     24063     24065     24066     24067     24066     24068
     24069     24070     24069     24071     24072     24073     24072     24074
     24075     24076     24075     24077     24078     24079     24078     24080
     24081     24082     24081     24083     24084     24085     24084     24086
     24087     24088     24087     24089     24090     24091     24090     24092
     24093     24094     24093     24095     24096     24097     24096     24098
     24099     24100     24099     24101     24102     24103     24102     24104
     24105     24106     24105     24107     24108     24109     24108     24110
     24111     24112     24111     24113     24114     24115     24114     24116
     24117     24118     24117     24119     24120     24121     24120     24122
     24123     24124     24123     24125     24126     24127     24126     24128
     24129     24130     24129     24131     24132     24133     24132     24134
     24135     24136     24135     24137     24138     24139     24138     24140
     24141     24142     24141     24143     24144     24145     24144     24146
     24147     24148     24147     24149     24150     24151     24150     24152
     24153     24154     24153     24155     24156     24157     24156     24158
     24159     24160     24159     24161     24162     24163     24162     24164
     24165     24166     24165     24167     24168     24169     24168     24170
     24171     24172     24171     24173     24174     24175     24174     24176
     24177     24178     24177     24179     24180     24181     24180     24182
     24183     24184     24183     24185     24186     24187     24186     24188
     24189     24190     24189     24191     24192     24193     24192     24194
     24195     24196     24195     24197     24198     24199     24198     24200
     24201     24202     24201     24203     24204     24205     24204     24206
     24207     24208     24207     24209     24210     24211     24210     24212
     24213     24214     24213     24215     24216     24217     24216     24218
     24219     24220     24219     24221     24222     24223     24222     24224
     24225     24226     24225     24227     24228     24229     24228     24230
     24231     24232     24231     24233     24234     24235     24234     24236
     24237     24238     24237     24239     24240     24241     24240     24242
     24243     24244     24243     24245     24246     24247     24246     24248
     24249     24250     24249     24251     24252     24253     24252     24254
     24255     24256     24255     24257     24258     24259     24258     24260
     24261     24262     24261     24263     24264     24265     24264     24266
     24267     24268     24267     24269     24270     24271     24270     24272
     24273     24274     24273     24275     24276     24277     24276     24278
     24279     24280     24279     24281     24282     24283     24282     24284
     24285     24286     24285     24287     24288     24289     24288     24290
     24291     24292     24291     24293     24294     24295     24294     24296
     24297     24298     24297     24299     24300     24301     24300     24302
     24303     24304     24303     24305     24306     24307     24306     24308
     24309     24310     24309     24311     24312     24313     24312     24314
     24315     24316     24315     24317     24318     24319     24318     24320
     24321     24322     24321     24323     24324     24325     24324     24326
     24327     24328     24327     24329     24330     24331     24330     24332
     24333     24334     24333     24335     24336     24337     24336     24338
     24339     24340     24339     24341     24342     24343     24342     24344
     24345     24346     24345     24347     24348     24349     24348     24350
     24351     24352     24351     24353     24354     24355     24354     24356
     24357     24358     24357     24359     24360     24361     24360     24362
     24363     24364     24363     24365     24366     24367     24366     24368
     24369     24370     24369     24371     24372     24373     24372     24374
     24375     24376     24375     24377     24378     24379     24378     24380
     24381     24382     24381     24383     24384     24385     24384     24386
     24387     24388     24387     24389     24390     24391     24390     24392
     24393     24394     24393     24395     24396     24397     24396     24398
     24399     24400     24399     24401     24402     24403     24402     24404
     24405     24406     24405     24407     24408     24409     24408     24410
     24411     24412     24411     24413     24414     24415     24414     24416
     24417     24418     24417     24419     24420     24421     24420     24422
     24423     24424     24423     24425     24426     24427     24426     24428
     24429     24430     24429     24431     24432     24433     24432     24434
     24435     24436     24435     24437     24438     24439     24438     24440
     24441     24442     24441     24443     24444     24445     24444     24446
     24447     24448     24447     24449     24450     24451     24450     24452
     24453     24454     24453     24455     24456     24457     24456     24458
     24459     24460     24459     24461     24462     24463     24462     24464
     24465     24466     24465     24467     24468     24469     24468     24470
     24471     24472     24471     24473     24474     24475     24474     24476
     24477     24478     24477     24479     24480     24481     24480     24482
     24483     24484     24483     24485     24486     24487     24486     24488
     24489     24490     24489     24491     24492     24493     24492     24494
     24495     24496     24495     24497     24498     24499     24498     24500
     24501     24502     24501     24503     24504     24505     24504     24506
     24507     24508     24507     24509     24510     24511     24510     24512
     24513     24514     24513     24515     24516     24517     24516     24518
     24519     24520     24519     24521     24522     24523     24522     24524
     24525     24526     24525     24527     24528     24529     24528     24530
     24531     24532     24531     24533     24534     24535     24534     24536
     24537     24538     24537     24539     24540     24541     24540     24542
     24543     24544     24543     24545     24546     24547     24546     24548
     24549     24550     24549     24551     24552     24553     24552     24554
     24555     24556     24555     24557     24558     24559     24558     24560
     24561     24562     24561     24563     24564     24565     24564     24566
     24567     24568     24567     24569     24570     24571     24570     24572
     24573     24574     24573     24575     24576     24577     24576     24578
     24579     24580     24579     24581     24582     24583     24582     24584
     24585     24586     24585     24587     24588     24589     24588     24590
     24591     24592     24591     24593     24594     24595     24594     24596
     24597     24598     24597     24599     24600     24601     24600     24602
     24603     24604     24603     24605     24606     24607     24606     24608
     24609     24610     24609     24611     24612     24613     24612     24614
     24615     24616     24615     24617     24618     24619     24618     24620
     24621     24622     24621     24623     24624     24625     24624     24626
     24627     24628     24627     24629     24630     24631     24630     24632
     24633     24634     24633     24635     24636     24637     24636     24638
     24639     24640     24639     24641     24642     24643     24642     24644
     24645     24646     24645     24647     24648     24649     24648     24650
     24651     24652     24651     24653     24654     24655     24654     24656
     24657     24658     24657     24659     24660     24661     24660     24662
     24663     24664     24663     24665     24666     24667     24666     24668
     24669     24670     24669     24671     24672     24673     24672     24674
     24675     24676     24675     24677     24678     24679     24678     24680
     24681     24682     24681     24683     24684     24685     24684     24686
     24687     24688     24687     24689     24690     24691     24690     24692
     24693     24694     24693     24695     24696     24697     24696     24698
     24699     24700     24699     24701     24702     24703     24702     24704
     24705     24706     24705     24707     24708     24709     24708     24710
     24711     24712     24711     24713     24714     24715     24714     24716
     24717     24718     24717     24719     24720     24721     24720     24722
     24723     24724     24723     24725     24726     24727     24726     24728
     24729     24730     24729     24731     24732     24733     24732     24734
     24735     24736     24735     24737     24738     24739     24738     24740
     24741     24742     24741     24743     24744     24745     24744     24746
     24747     24748     24747     24749     24750     24751     24750     24752
     24753     24754     24753     24755     24756     24757     24756     24758
     24759     24760     24759     24761     24762     24763     24762     24764
     24765     24766     24765     24767     24768     24769     24768     24770
     24771     24772     24771     24773     24774     24775     24774     24776
     24777     24778     24777     24779     24780     24781     24780     24782
     24783     24784     24783     24785     24786     24787     24786     24788
     24789     24790     24789     24791     24792     24793     24792     24794
     24795     24796     24795     24797     24798     24799     24798     24800
     24801     24802     24801     24803     24804     24805     24804     24806
     24807     24808     24807     24809     24810     24811     24810     24812
     24813     24814     24813     24815     24816     24817     24816     24818
     24819     24820     24819     24821     24822     24823     24822     24824
     24825     24826     24825     24827     24828     24829     24828     24830
     24831     24832     24831     24833     24834     24835     24834     24836
     24837     24838     24837     24839     24840     24841     24840     24842
     24843     24844     24843     24845     24846     24847     24846     24848
     24849     24850     24849     24851     24852     24853     24852     24854
     24855     24856     24855     24857     24858     24859     24858     24860
     24861     24862     24861     24863     24864     24865     24864     24866
     24867     24868     24867     24869     24870     24871     24870     24872
     24873     24874     24873     24875     24876     24877     24876     24878
     24879     24880     24879     24881     24882     24883     24882     24884
     24885     24886     24885     24887     24888     24889     24888     24890
     24891     24892     24891     24893     24894     24895     24894     24896
     24897     24898     24897     24899     24900     24901     24900     24902
     24903     24904     24903     24905     24906     24907     24906     24908
     24909     24910     24909     24911     24912     24913     24912     24914
     24915     24916     24915     24917     24918     24919     24918     24920
     24921     24922     24921     24923     24924     24925     24924     24926
     24927     24928     24927     24929     24930     24931     24930     24932
     24933     24934     24933     24935     24936     24937     24936     24938
     24939     24940     24939     24941     24942     24943     24942     24944
     24945     24946     24945     24947     24948     24949     24948     24950
     24951     24952     24951     24953     24954     24955     24954     24956
     24957     24958     24957     24959     24960     24961     24960     24962
     24963     24964     24963     24965     24966     24967     24966     24968
     24969     24970     24969     24971     24972     24973     24972     24974
     24975     24976     24975     24977     24978     24979     24978     24980
     24981     24982     24981     24983     24984     24985     24984     24986
     24987     24988     24987     24989     24990     24991     24990     24992
     24993     24994     24993     24995     24996     24997     24996     24998
     24999     25000     24999     25001     25002     25003     25002     25004
     25005     25006     25005     25007     25008     25009     25008     25010
     25011     25012     25011     25013     25014     25015     25014     25016
     25017     25018     25017     25019     25020     25021     25020     25022
     25023     25024     25023     25025     25026     25027     25026     25028
     25029     25030     25029     25031     25032     25033     25032     25034
     25035     25036     25035     25037     25038     25039     25038     25040
     25041     25042     25041     25043     25044     25045     25044     25046
     25047     25048     25047     25049     25050     25051     25050     25052
     25053     25054     25053     25055     25056     25057     25056     25058
     25059     25060     25059     25061     25062     25063     25062     25064
     25065     25066     25065     25067     25068     25069     25068     25070
     25071     25072     25071     25073     25074     25075     25074     25076
     25077     25078     25077     25079     25080     25081     25080     25082
     25083     25084     25083     25085     25086     25087     25086     25088
     25089     25090     25089     25091     25092     25093     25092     25094
     25095     25096     25095     25097     25098     25099     25098     25100
     25101     25102     25101     25103     25104     25105     25104     25106
     25107     25108     25107     25109     25110     25111     25110     25112
     25113     25114     25113     25115     25116     25117     25116     25118
     25119     25120     25119     25121     25122     25123     25122     25124
     25125     25126     25125     25127     25128     25129     25128     25130
     25131     25132     25131     25133     25134     25135     25134     25136
     25137     25138     25137     25139     25140     25141     25140     25142
     25143     25144     25143     25145     25146     25147     25146     25148
     25149     25150     25149     25151     25152     25153     25152     25154
     25155     25156     25155     25157     25158     25159     25158     25160
     25161     25162     25161     25163     25164     25165     25164     25166
     25167     25168     25167     25169     25170     25171     25170     25172
     25173     25174     25173     25175     25176     25177     25176     25178
     25179     25180     25179     25181     25182     25183     25182     25184
     25185     25186     25185     25187     25188     25189     25188     25190
     25191     25192     25191     25193     25194     25195     25194     25196
     25197     25198     25197     25199     25200     25201     25200     25202
     25203     25204     25203     25205     25206     25207     25206     25208
     25209     25210     25209     25211     25212     25213     25212     25214
     25215     25216     25215     25217     25218     25219     25218     25220
     25221     25222     25221     25223     25224     25225     25224     25226
     25227     25228     25227     25229     25230     25231     25230     25232
     25233     25234     25233     25235     25236     25237     25236     25238
     25239     25240     25239     25241     25242     25243     25242     25244
     25245     25246     25245     25247     25248     25249     25248     25250
     25251     25252     25251     25253     25254     25255     25254     25256
     25257     25258     25257     25259     25260     25261     25260     25262
     25263     25264     25263     25265     25266     25267     25266     25268
     25269     25270     25269     25271     25272     25273     25272     25274
     25275     25276     25275     25277     25278     25279     25278     25280
     25281     25282     25281     25283     25284     25285     25284     25286
     25287     25288     25287     25289     25290     25291     25290     25292
     25293     25294     25293     25295     25296     25297     25296     25298
     25299     25300     25299     25301     25302     25303     25302     25304
     25305     25306     25305     25307     25308     25309     25308     25310
     25311     25312     25311     25313     25314     25315     25314     25316
     25317     25318     25317     25319     25320     25321     25320     25322
     25323     25324     25323     25325     25326     25327     25326     25328
     25329     25330     25329     25331     25332     25333     25332     25334
     25335     25336     25335     25337     25338     25339     25338     25340
     25341     25342     25341     25343     25344     25345     25344     25346
     25347     25348     25347     25349     25350     25351     25350     25352
     25353     25354     25353     25355     25356     25357     25356     25358
     25359     25360     25359     25361     25362     25363     25362     25364
     25365     25366     25365     25367     25368     25369     25368     25370
     25371     25372     25371     25373     25374     25375     25374     25376
     25377     25378     25377     25379     25380     25381     25380     25382
     25383     25384     25383     25385     25386     25387     25386     25388
     25389     25390     25389     25391     25392     25393     25392     25394
     25395     25396     25395     25397     25398     25399     25398     25400
     25401     25402     25401     25403     25404     25405     25404     25406
     25407     25408     25407     25409     25410     25411     25410     25412
     25413     25414     25413     25415     25416     25417     25416     25418
     25419     25420     25419     25421     25422     25423     25422     25424
     25425     25426     25425     25427     25428     25429     25428     25430
     25431     25432     25431     25433     25434     25435     25434     25436
     25437     25438     25437     25439     25440     25441     25440     25442
     25443     25444     25443     25445     25446     25447     25446     25448
     25449     25450     25449     25451     25452     25453     25452     25454
     25455     25456     25455     25457     25458     25459     25458     25460
     25461     25462     25461     25463     25464     25465     25464     25466
     25467     25468     25467     25469     25470     25471     25470     25472
     25473     25474     25473     25475     25476     25477     25476     25478
     25479     25480     25479     25481     25482     25483     25482     25484
     25485     25486     25485     25487     25488     25489     25488     25490
     25491     25492     25491     25493     25494     25495     25494     25496
     25497     25498     25497     25499     25500     25501     25500     25502
     25503     25504     25503     25505     25506     25507     25506     25508
     25509     25510     25509     25511     25512     25513     25512     25514
     25515     25516     25515     25517     25518     25519     25518     25520
     25521     25522     25521     25523     25524     25525     25524     25526
     25527     25528     25527     25529     25530     25531     25530     25532
     25533     25534     25533     25535     25536     25537     25536     25538
     25539     25540     25539     25541     25542     25543     25542     25544
     25545     25546     25545     25547     25548     25549     25548     25550
     25551     25552     25551     25553     25554     25555     25554     25556
     25557     25558     25557     25559     25560     25561     25560     25562
     25563     25564     25563     25565     25566     25567     25566     25568
     25569     25570     25569     25571     25572     25573     25572     25574
     25575     25576     25575     25577     25578     25579     25578     25580
     25581     25582     25581     25583     25584     25585     25584     25586
     25587     25588     25587     25589     25590     25591     25590     25592
     25593     25594     25593     25595     25596     25597     25596     25598
     25599     25600     25599     25601     25602     25603     25602     25604
     25605     25606     25605     25607     25608     25609     25608     25610
     25611     25612     25611     25613     25614     25615     25614     25616
     25617     25618     25617     25619     25620     25621     25620     25622
     25623     25624     25623     25625     25626     25627     25626     25628
     25629     25630     25629     25631     25632     25633     25632     25634
     25635     25636     25635     25637     25638     25639     25638     25640
     25641     25642     25641     25643     25644     25645     25644     25646
     25647     25648     25647     25649     25650     25651     25650     25652
     25653     25654     25653     25655     25656     25657     25656     25658
     25659     25660     25659     25661     25662     25663     25662     25664
     25665     25666     25665     25667     25668     25669     25668     25670
     25671     25672     25671     25673     25674     25675     25674     25676
     25677     25678     25677     25679     25680     25681     25680     25682
     25683     25684     25683     25685     25686     25687     25686     25688
     25689     25690     25689     25691     25692     25693     25692     25694
     25695     25696     25695     25697     25698     25699     25698     25700
     25701     25702     25701     25703     25704     25705     25704     25706
     25707     25708     25707     25709     25710     25711     25710     25712
     25713     25714     25713     25715     25716     25717     25716     25718
     25719     25720     25719     25721     25722     25723     25722     25724
     25725     25726     25725     25727     25728     25729     25728     25730
     25731     25732     25731     25733     25734     25735     25734     25736
     25737     25738     25737     25739     25740     25741     25740     25742
     25743     25744     25743     25745     25746     25747     25746     25748
     25749     25750     25749     25751     25752     25753     25752     25754
     25755     25756     25755     25757     25758     25759     25758     25760
     25761     25762     25761     25763     25764     25765     25764     25766
     25767     25768     25767     25769     25770     25771     25770     25772
     25773     25774     25773     25775     25776     25777     25776     25778
     25779     25780     25779     25781     25782     25783     25782     25784
     25785     25786     25785     25787     25788     25789     25788     25790
     25791     25792     25791     25793     25794     25795     25794     25796
     25797     25798     25797     25799     25800     25801     25800     25802
     25803     25804     25803     25805     25806     25807     25806     25808
     25809     25810     25809     25811     25812     25813     25812     25814
     25815     25816     25815     25817     25818     25819     25818     25820
     25821     25822     25821     25823     25824     25825     25824     25826
     25827     25828     25827     25829     25830     25831     25830     25832
     25833     25834     25833     25835     25836     25837     25836     25838
     25839     25840     25839     25841     25842     25843     25842     25844
     25845     25846     25845     25847     25848     25849     25848     25850
     25851     25852     25851     25853     25854     25855     25854     25856
     25857     25858     25857     25859     25860     25861     25860     25862
     25863     25864     25863     25865     25866     25867     25866     25868
     25869     25870     25869     25871     25872     25873     25872     25874
     25875     25876     25875     25877     25878     25879     25878     25880
     25881     25882     25881     25883     25884     25885     25884     25886
     25887     25888     25887     25889     25890     25891     25890     25892
     25893     25894     25893     25895     25896     25897     25896     25898
     25899     25900     25899     25901     25902     25903     25902     25904
     25905     25906     25905     25907     25908     25909     25908     25910
     25911     25912     25911     25913     25914     25915     25914     25916
     25917     25918     25917     25919     25920     25921     25920     25922
     25923     25924     25923     25925     25926     25927     25926     25928
     25929     25930     25929     25931     25932     25933     25932     25934
     25935     25936     25935     25937     25938     25939     25938     25940
     25941     25942     25941     25943     25944     25945     25944     25946
     25947     25948     25947     25949     25950     25951     25950     25952
     25953     25954     25953     25955     25956     25957     25956     25958
     25959     25960     25959     25961     25962     25963     25962     25964
     25965     25966     25965     25967     25968     25969     25968     25970
     25971     25972     25971     25973     25974     25975     25974     25976
     25977     25978     25977     25979     25980     25981     25980     25982
     25983     25984     25983     25985     25986     25987     25986     25988
     25989     25990     25989     25991     25992     25993     25992     25994
     25995     25996     25995     25997     25998     25999     25998     26000
     26001     26002     26001     26003     26004     26005     26004     26006
     26007     26008     26007     26009     26010     26011     26010     26012
     26013     26014     26013     26015     26016     26017     26016     26018
     26019     26020     26019     26021     26022     26023     26022     26024
     26025     26026     26025     26027     26028     26029     26028     26030
     26031     26032     26031     26033     26034     26035     26034     26036
     26037     26038     26037     26039     26040     26041     26040     26042
     26043     26044     26043     26045     26046     26047     26046     26048
     26049     26050     26049     26051     26052     26053     26052     26054
     26055     26056     26055     26057     26058     26059     26058     26060
     26061     26062     26061     26063     26064     26065     26064     26066
     26067     26068     26067     26069     26070     26071     26070     26072
     26073     26074     26073     26075     26076     26077     26076     26078
     26079     26080     26079     26081     26082     26083     26082     26084
     26085     26086     26085     26087     26088     26089     26088     26090
     26091     26092     26091     26093     26094     26095     26094     26096
     26097     26098     26097     26099     26100     26101     26100     26102
     26103     26104     26103     26105     26106     26107     26106     26108
     26109     26110     26109     26111     26112     26113     26112     26114
     26115     26116     26115     26117     26118     26119     26118     26120
     26121     26122     26121     26123     26124     26125     26124     26126
     26127     26128     26127     26129     26130     26131     26130     26132
     26133     26134     26133     26135     26136     26137     26136     26138
     26139     26140     26139     26141     26142     26143     26142     26144
     26145     26146     26145     26147     26148     26149     26148     26150
     26151     26152     26151     26153     26154     26155     26154     26156
     26157     26158     26157     26159     26160     26161     26160     26162
     26163     26164     26163     26165     26166     26167     26166     26168
     26169     26170     26169     26171     26172     26173     26172     26174
     26175     26176     26175     26177     26178     26179     26178     26180
     26181     26182     26181     26183     26184     26185     26184     26186
     26187     26188     26187     26189     26190     26191     26190     26192
     26193     26194     26193     26195     26196     26197     26196     26198
     26199     26200     26199     26201     26202     26203     26202     26204
     26205     26206     26205     26207     26208     26209     26208     26210
     26211     26212     26211     26213     26214     26215     26214     26216
     26217     26218     26217     26219     26220     26221     26220     26222
     26223     26224     26223     26225     26226     26227     26226     26228
     26229     26230     26229     26231     26232     26233     26232     26234
     26235     26236     26235     26237     26238     26239     26238     26240
     26241     26242     26241     26243     26244     26245     26244     26246
     26247     26248     26247     26249     26250     26251     26250     26252
     26253     26254     26253     26255     26256     26257     26256     26258
     26259     26260     26259     26261     26262     26263     26262     26264
     26265     26266     26265     26267     26268     26269     26268     26270
     26271     26272     26271     26273     26274     26275     26274     26276
     26277     26278     26277     26279     26280     26281     26280     26282
     26283     26284     26283     26285     26286     26287     26286     26288
     26289     26290     26289     26291     26292     26293     26292     26294
     26295     26296     26295     26297     26298     26299     26298     26300
     26301     26302     26301     26303     26304     26305     26304     26306
     26307     26308     26307     26309     26310     26311     26310     26312
     26313     26314     26313     26315     26316     26317     26316     26318
     26319     26320     26319     26321     26322     26323     26322     26324
     26325     26326     26325     26327     26328     26329     26328     26330
     26331     26332     26331     26333     26334     26335     26334     26336
     26337     26338     26337     26339     26340     26341     26340     26342
     26343     26344     26343     26345     26346     26347     26346     26348
     26349     26350     26349     26351     26352     26353     26352     26354
     26355     26356     26355     26357     26358     26359     26358     26360
     26361     26362     26361     26363     26364     26365     26364     26366
     26367     26368     26367     26369     26370     26371     26370     26372
     26373     26374     26373     26375     26376     26377     26376     26378
     26379     26380     26379     26381     26382     26383     26382     26384
     26385     26386     26385     26387     26388     26389     26388     26390
     26391     26392     26391     26393     26394     26395     26394     26396
     26397     26398     26397     26399     26400     26401     26400     26402
     26403     26404     26403     26405     26406     26407     26406     26408
     26409     26410     26409     26411     26412     26413     26412     26414
     26415     26416     26415     26417     26418     26419     26418     26420
     26421     26422     26421     26423     26424     26425     26424     26426
     26427     26428     26427     26429     26430     26431     26430     26432
     26433     26434     26433     26435     26436     26437     26436     26438
     26439     26440     26439     26441     26442     26443     26442     26444
     26445     26446     26445     26447     26448     26449     26448     26450
     26451     26452     26451     26453     26454     26455     26454     26456
     26457     26458     26457     26459     26460     26461     26460     26462
     26463     26464     26463     26465     26466     26467     26466     26468
     26469     26470     26469     26471     26472     26473     26472     26474
     26475     26476     26475     26477     26478     26479     26478     26480
     26481     26482     26481     26483     26484     26485     26484     26486
     26487     26488     26487     26489     26490     26491     26490     26492
     26493     26494     26493     26495     26496     26497     26496     26498
     26499     26500     26499     26501     26502     26503     26502     26504
     26505     26506     26505     26507     26508     26509     26508     26510
     26511     26512     26511     26513     26514     26515     26514     26516
     26517     26518     26517     26519     26520     26521     26520     26522
     26523     26524     26523     26525     26526     26527     26526     26528
     26529     26530     26529     26531     26532     26533     26532     26534
     26535     26536     26535     26537     26538     26539     26538     26540
     26541     26542     26541     26543     26544     26545     26544     26546
     26547     26548     26547     26549     26550     26551     26550     26552
     26553     26554     26553     26555     26556     26557     26556     26558
     26559     26560     26559     26561     26562     26563     26562     26564
     26565     26566     26565     26567     26568     26569     26568     26570
     26571     26572     26571     26573     26574     26575     26574     26576
     26577     26578     26577     26579     26580     26581     26580     26582
     26583     26584     26583     26585     26586     26587     26586     26588
     26589     26590     26589     26591     26592     26593     26592     26594
     26595     26596     26595     26597     26598     26599     26598     26600
     26601     26602     26601     26603     26604     26605     26604     26606
     26607     26608     26607     26609     26610     26611     26610     26612
     26613     26614     26613     26615     26616     26617     26616     26618
     26619     26620     26619     26621     26622     26623     26622     26624
     26625     26626     26625     26627     26628     26629     26628     26630
     26631     26632     26631     26633     26634     26635     26634     26636
     26637     26638     26637     26639     26640     26641     26640     26642
     26643     26644     26643     26645     26646     26647     26646     26648
     26649     26650     26649     26651     26652     26653     26652     26654
     26655     26656     26655     26657     26658     26659     26658     26660
     26661     26662     26661     26663     26664     26665     26664     26666
     26667     26668     26667     26669     26670     26671     26670     26672
     26673     26674     26673     26675     26676     26677     26676     26678
     26679     26680     26679     26681     26682     26683     26682     26684
     26685     26686     26685     26687     26688     26689     26688     26690
     26691     26692     26691     26693     26694     26695     26694     26696
     26697     26698     26697     26699     26700     26701     26700     26702
     26703     26704     26703     26705     26706     26707     26706     26708
     26709     26710     26709     26711     26712     26713     26712     26714
     26715     26716     26715     26717     26718     26719     26718     26720
     26721     26722     26721     26723     26724     26725     26724     26726
     26727     26728     26727     26729     26730     26731     26730     26732
     26733     26734     26733     26735     26736     26737     26736     26738
     26739     26740     26739     26741     26742     26743     26742     26744
     26745     26746     26745     26747     26748     26749     26748     26750
     26751     26752     26751     26753     26754     26755     26754     26756
     26757     26758     26757     26759     26760     26761     26760     26762
     26763     26764     26763     26765     26766     26767     26766     26768
     26769     26770     26769     26771     26772     26773     26772     26774
     26775     26776     26775     26777     26778     26779     26778     26780
     26781     26782     26781     26783     26784     26785     26784     26786
     26787     26788     26787     26789     26790     26791     26790     26792
     26793     26794     26793     26795     26796     26797     26796     26798
     26799     26800     26799     26801     26802     26803     26802     26804
     26805     26806     26805     26807     26808     26809     26808     26810
     26811     26812     26811     26813     26814     26815     26814     26816
     26817     26818     26817     26819     26820     26821     26820     26822
     26823     26824     26823     26825     26826     26827     26826     26828
     26829     26830     26829     26831     26832     26833     26832     26834
     26835     26836     26835     26837     26838     26839     26838     26840
     26841     26842     26841     26843     26844     26845     26844     26846
     26847     26848     26847     26849     26850     26851     26850     26852
     26853     26854     26853     26855     26856     26857     26856     26858
     26859     26860     26859     26861     26862     26863     26862     26864
     26865     26866     26865     26867     26868     26869     26868     26870
     26871     26872     26871     26873     26874     26875     26874     26876
     26877     26878     26877     26879     26880     26881     26880     26882
     26883     26884     26883     26885     26886     26887     26886     26888
     26889     26890     26889     26891     26892     26893     26892     26894
     26895     26896     26895     26897     26898     26899     26898     26900
     26901     26902     26901     26903     26904     26905     26904     26906
     26907     26908     26907     26909     26910     26911     26910     26912
     26913     26914     26913     26915     26916     26917     26916     26918
     26919     26920     26919     26921     26922     26923     26922     26924
     26925     26926     26925     26927     26928     26929     26928     26930
     26931     26932     26931     26933     26934     26935     26934     26936
     26937     26938     26937     26939     26940     26941     26940     26942
     26943     26944     26943     26945     26946     26947     26946     26948
     26949     26950     26949     26951     26952     26953     26952     26954
     26955     26956     26955     26957     26958     26959     26958     26960
     26961     26962     26961     26963     26964     26965     26964     26966
     26967     26968     26967     26969     26970     26971     26970     26972
     26973     26974     26973     26975     26976     26977     26976     26978
     26979     26980     26979     26981     26982     26983     26982     26984
     26985     26986     26985     26987     26988     26989     26988     26990
     26991     26992     26991     26993     26994     26995     26994     26996
     26997     26998     26997     26999     27000     27001     27000     27002
     27003     27004     27003     27005     27006     27007     27006     27008
     27009     27010     27009     27011     27012     27013     27012     27014
     27015     27016     27015     27017     27018     27019     27018     27020
     27021     27022     27021     27023     27024     27025     27024     27026
     27027     27028     27027     27029     27030     27031     27030     27032
     27033     27034     27033     27035     27036     27037     27036     27038
     27039     27040     27039     27041     27042     27043     27042     27044
     27045     27046     27045     27047     27048     27049     27048     27050
     27051     27052     27051     27053     27054     27055     27054     27056
     27057     27058     27057     27059     27060     27061     27060     27062
     27063     27064     27063     27065     27066     27067     27066     27068
     27069     27070     27069     27071     27072     27073     27072     27074
     27075     27076     27075     27077     27078     27079     27078     27080
     27081     27082     27081     27083     27084     27085     27084     27086
     27087     27088     27087     27089     27090     27091     27090     27092
     27093     27094     27093     27095     27096     27097     27096     27098
     27099     27100     27099     27101     27102     27103     27102     27104
     27105     27106     27105     27107     27108     27109     27108     27110
     27111     27112     27111     27113     27114     27115     27114     27116
     27117     27118     27117     27119     27120     27121     27120     27122
     27123     27124     27123     27125     27126     27127     27126     27128
     27129     27130     27129     27131     27132     27133     27132     27134
     27135     27136     27135     27137     27138     27139     27138     27140
     27141     27142     27141     27143     27144     27145     27144     27146
     27147     27148     27147     27149     27150     27151     27150     27152
     27153     27154     27153     27155     27156     27157     27156     27158
     27159     27160     27159     27161     27162     27163     27162     27164
     27165     27166     27165     27167     27168     27169     27168     27170
     27171     27172     27171     27173     27174     27175     27174     27176
     27177     27178     27177     27179     27180     27181     27180     27182
     27183     27184     27183     27185     27186     27187     27186     27188
     27189     27190     27189     27191     27192     27193     27192     27194
     27195     27196     27195     27197     27198     27199     27198     27200
     27201     27202     27201     27203     27204     27205     27204     27206
     27207     27208     27207     27209     27210     27211     27210     27212
     27213     27214     27213     27215     27216     27217     27216     27218
     27219     27220     27219     27221     27222     27223     27222     27224
     27225     27226     27225     27227     27228     27229     27228     27230
     27231     27232     27231     27233     27234     27235     27234     27236
     27237     27238     27237     27239     27240     27241     27240     27242
     27243     27244     27243     27245     27246     27247     27246     27248
     27249     27250     27249     27251     27252     27253     27252     27254
     27255     27256     27255     27257     27258     27259     27258     27260
     27261     27262     27261     27263     27264     27265     27264     27266
     27267     27268     27267     27269     27270     27271     27270     27272
     27273     27274     27273     27275     27276     27277     27276     27278
     27279     27280     27279     27281     27282     27283     27282     27284
     27285     27286     27285     27287     27288     27289     27288     27290
     27291     27292     27291     27293     27294     27295     27294     27296
     27297     27298     27297     27299     27300     27301     27300     27302
     27303     27304     27303     27305     27306     27307     27306     27308
     27309     27310     27309     27311     27312     27313     27312     27314
     27315     27316     27315     27317     27318     27319     27318     27320
     27321     27322     27321     27323     27324     27325     27324     27326
     27327     27328     27327     27329     27330     27331     27330     27332
     27333     27334     27333     27335     27336     27337     27336     27338
     27339     27340     27339     27341     27342     27343     27342     27344
     27345     27346     27345     27347     27348     27349     27348     27350
     27351     27352     27351     27353     27354     27355     27354     27356
     27357     27358     27357     27359     27360     27361     27360     27362
     27363     27364     27363     27365     27366     27367     27366     27368
     27369     27370     27369     27371     27372     27373     27372     27374
     27375     27376     27375     27377     27378     27379     27378     27380
     27381     27382     27381     27383     27384     27385     27384     27386
     27387     27388     27387     27389     27390     27391     27390     27392
     27393     27394     27393     27395     27396     27397     27396     27398
     27399     27400     27399     27401     27402     27403     27402     27404
     27405     27406     27405     27407     27408     27409     27408     27410
     27411     27412     27411     27413     27414     27415     27414     27416
     27417     27418     27417     27419     27420     27421     27420     27422
     27423     27424     27423     27425     27426     27427     27426     27428
     27429     27430     27429     27431     27432     27433     27432     27434
     27435     27436     27435     27437     27438     27439     27438     27440
     27441     27442     27441     27443     27444     27445     27444     27446
     27447     27448     27447     27449     27450     27451     27450     27452
     27453     27454     27453     27455     27456     27457     27456     27458
     27459     27460     27459     27461     27462     27463     27462     27464
     27465     27466     27465     27467     27468     27469     27468     27470
     27471     27472     27471     27473     27474     27475     27474     27476
     27477     27478     27477     27479     27480     27481     27480     27482
     27483     27484     27483     27485     27486     27487     27486     27488
     27489     27490     27489     27491     27492     27493     27492     27494
     27495     27496     27495     27497     27498     27499     27498     27500
     27501     27502     27501     27503     27504     27505     27504     27506
     27507     27508     27507     27509     27510     27511     27510     27512
     27513     27514     27513     27515     27516     27517     27516     27518
     27519     27520     27519     27521     27522     27523     27522     27524
     27525     27526     27525     27527     27528     27529     27528     27530
     27531     27532     27531     27533     27534     27535     27534     27536
     27537     27538     27537     27539     27540     27541     27540     27542
     27543     27544     27543     27545     27546     27547     27546     27548
     27549     27550     27549     27551     27552     27553     27552     27554
     27555     27556     27555     27557     27558     27559     27558     27560
     27561     27562     27561     27563     27564     27565     27564     27566
     27567     27568     27567     27569     27570     27571     27570     27572
     27573     27574     27573     27575     27576     27577     27576     27578
     27579     27580     27579     27581     27582     27583     27582     27584
     27585     27586     27585     27587     27588     27589     27588     27590
     27591     27592     27591     27593     27594     27595     27594     27596
     27597     27598     27597     27599     27600     27601     27600     27602
     27603     27604     27603     27605     27606     27607     27606     27608
     27609     27610     27609     27611     27612     27613     27612     27614
     27615     27616     27615     27617     27618     27619     27618     27620
     27621     27622     27621     27623     27624     27625     27624     27626
     27627     27628     27627     27629     27630     27631     27630     27632
     27633     27634     27633     27635     27636     27637     27636     27638
     27639     27640     27639     27641     27642     27643     27642     27644
     27645     27646     27645     27647     27648     27649     27648     27650
     27651     27652     27651     27653     27654     27655     27654     27656
     27657     27658     27657     27659     27660     27661     27660     27662
     27663     27664     27663     27665     27666     27667     27666     27668
     27669     27670     27669     27671     27672     27673     27672     27674
     27675     27676     27675     27677     27678     27679     27678     27680
     27681     27682     27681     27683     27684     27685     27684     27686
     27687     27688     27687     27689     27690     27691     27690     27692
     27693     27694     27693     27695     27696     27697     27696     27698
     27699     27700     27699     27701     27702     27703     27702     27704
     27705     27706     27705     27707     27708     27709     27708     27710
     27711     27712     27711     27713     27714     27715     27714     27716
     27717     27718     27717     27719     27720     27721     27720     27722
     27723     27724     27723     27725     27726     27727     27726     27728
     27729     27730     27729     27731     27732     27733     27732     27734
     27735     27736     27735     27737     27738     27739     27738     27740
     27741     27742     27741     27743     27744     27745     27744     27746
     27747     27748     27747     27749     27750     27751     27750     27752
     27753     27754     27753     27755     27756     27757     27756     27758
     27759     27760     27759     27761     27762     27763     27762     27764
     27765     27766     27765     27767     27768     27769     27768     27770
     27771     27772     27771     27773     27774     27775     27774     27776
     27777     27778     27777     27779     27780     27781     27780     27782
     27783     27784     27783     27785     27786     27787     27786     27788
     27789     27790     27789     27791     27792     27793     27792     27794
     27795     27796     27795     27797     27798     27799     27798     27800
     27801     27802     27801     27803     27804     27805     27804     27806
     27807     27808     27807     27809     27810     27811     27810     27812
     27813     27814     27813     27815     27816     27817     27816     27818
     27819     27820     27819     27821     27822     27823     27822     27824
     27825     27826     27825     27827     27828     27829     27828     27830
     27831     27832     27831     27833     27834     27835     27834     27836
     27837     27838     27837     27839     27840     27841     27840     27842
     27843     27844     27843     27845     27846     27847     27846     27848
     27849     27850     27849     27851     27852     27853     27852     27854
     27855     27856     27855     27857     27858     27859     27858     27860
     27861     27862     27861     27863     27864     27865     27864     27866
     27867     27868     27867     27869     27870     27871     27870     27872
     27873     27874     27873     27875     27876     27877     27876     27878
     27879     27880     27879     27881     27882     27883     27882     27884
     27885     27886     27885     27887     27888     27889     27888     27890
     27891     27892     27891     27893     27894     27895     27894     27896
     27897     27898     27897     27899     27900     27901     27900     27902
     27903     27904     27903     27905     27906     27907     27906     27908
     27909     27910     27909     27911     27912     27913     27912     27914
     27915     27916     27915     27917     27918     27919     27918     27920
     27921     27922     27921     27923     27924     27925     27924     27926
     27927     27928     27927     27929     27930     27931     27930     27932
     27933     27934     27933     27935     27936     27937     27936     27938
     27939     27940     27939     27941     27942     27943     27942     27944
     27945     27946     27945     27947     27948     27949     27948     27950
     27951     27952     27951     27953     27954     27955     27954     27956
     27957     27958     27957     27959     27960     27961     27960     27962
     27963     27964     27963     27965     27966     27967     27966     27968
     27969     27970     27969     27971     27972     27973     27972     27974
     27975     27976     27975     27977     27978     27979     27978     27980
     27981     27982     27981     27983     27984     27985     27984     27986
     27987     27988     27987     27989     27990     27991     27990     27992
     27993     27994     27993     27995     27996     27997     27996     27998
     27999     28000     27999     28001     28002     28003     28002     28004
     28005     28006     28005     28007     28008     28009     28008     28010
     28011     28012     28011     28013     28014     28015     28014     28016
     28017     28018     28017     28019     28020     28021     28020     28022
     28023     28024     28023     28025     28026     28027     28026     28028
     28029     28030     28029     28031     28032     28033     28032     28034
     28035     28036     28035     28037     28038     28039     28038     28040
     28041     28042     28041     28043     28044     28045     28044     28046
     28047     28048     28047     28049     28050     28051     28050     28052
     28053     28054     28053     28055     28056     28057     28056     28058
     28059     28060     28059     28061     28062     28063     28062     28064
     28065     28066     28065     28067     28068     28069     28068     28070
     28071     28072     28071     28073     28074     28075     28074     28076
     28077     28078     28077     28079     28080     28081     28080     28082
     28083     28084     28083     28085     28086     28087     28086     28088
     28089     28090     28089     28091     28092     28093     28092     28094
     28095     28096     28095     28097     28098     28099     28098     28100
     28101     28102     28101     28103     28104     28105     28104     28106
     28107     28108     28107     28109     28110     28111     28110     28112
     28113     28114     28113     28115     28116     28117     28116     28118
     28119     28120     28119     28121     28122     28123     28122     28124
     28125     28126     28125     28127     28128     28129     28128     28130
     28131     28132     28131     28133     28134     28135     28134     28136
     28137     28138     28137     28139     28140     28141     28140     28142
     28143     28144     28143     28145     28146     28147     28146     28148
     28149     28150     28149     28151     28152     28153     28152     28154
     28155     28156     28155     28157     28158     28159     28158     28160
     28161     28162     28161     28163     28164     28165     28164     28166
     28167     28168     28167     28169     28170     28171     28170     28172
     28173     28174     28173     28175     28176     28177     28176     28178
     28179     28180     28179     28181     28182     28183     28182     28184
     28185     28186     28185     28187     28188     28189     28188     28190
     28191     28192     28191     28193     28194     28195     28194     28196
     28197     28198     28197     28199     28200     28201     28200     28202
     28203     28204     28203     28205     28206     28207     28206     28208
     28209     28210     28209     28211     28212     28213     28212     28214
     28215     28216     28215     28217     28218     28219     28218     28220
     28221     28222     28221     28223     28224     28225     28224     28226
     28227     28228     28227     28229     28230     28231     28230     28232
     28233     28234     28233     28235     28236     28237     28236     28238
     28239     28240     28239     28241     28242     28243     28242     28244
     28245     28246     28245     28247     28248     28249     28248     28250
     28251     28252     28251     28253     28254     28255     28254     28256
     28257     28258     28257     28259     28260     28261     28260     28262
     28263     28264     28263     28265     28266     28267     28266     28268
     28269     28270     28269     28271     28272     28273     28272     28274
     28275     28276     28275     28277     28278     28279     28278     28280
     28281     28282     28281     28283     28284     28285     28284     28286
     28287     28288     28287     28289     28290     28291     28290     28292
     28293     28294     28293     28295     28296     28297     28296     28298
     28299     28300     28299     28301     28302     28303     28302     28304
     28305     28306     28305     28307     28308     28309     28308     28310
     28311     28312     28311     28313     28314     28315     28314     28316
     28317     28318     28317     28319     28320     28321     28320     28322
     28323     28324     28323     28325     28326     28327     28326     28328
     28329     28330     28329     28331     28332     28333     28332     28334
     28335     28336     28335     28337     28338     28339     28338     28340
     28341     28342     28341     28343     28344     28345     28344     28346
     28347     28348     28347     28349     28350     28351     28350     28352
     28353     28354     28353     28355     28356     28357     28356     28358
     28359     28360     28359     28361     28362     28363     28362     28364
     28365     28366     28365     28367     28368     28369     28368     28370
     28371     28372     28371     28373     28374     28375     28374     28376
     28377     28378     28377     28379     28380     28381     28380     28382
     28383     28384     28383     28385     28386     28387     28386     28388
     28389     28390     28389     28391     28392     28393     28392     28394
     28395     28396     28395     28397     28398     28399     28398     28400
     28401     28402     28401     28403     28404     28405     28404     28406
     28407     28408     28407     28409     28410     28411     28410     28412
     28413     28414     28413     28415     28416     28417     28416     28418
     28419     28420     28419     28421     28422     28423     28422     28424
     28425     28426     28425     28427     28428     28429     28428     28430
     28431     28432     28431     28433     28434     28435     28434     28436
     28437     28438     28437     28439     28440     28441     28440     28442
     28443     28444     28443     28445     28446     28447     28446     28448
     28449     28450     28449     28451     28452     28453     28452     28454
     28455     28456     28455     28457     28458     28459     28458     28460
     28461     28462     28461     28463     28464     28465     28464     28466
     28467     28468     28467     28469     28470     28471     28470     28472
     28473     28474     28473     28475     28476     28477     28476     28478
     28479     28480     28479     28481     28482     28483     28482     28484
     28485     28486     28485     28487     28488     28489     28488     28490
     28491     28492     28491     28493     28494     28495     28494     28496
     28497     28498     28497     28499     28500     28501     28500     28502
     28503     28504     28503     28505     28506     28507     28506     28508
     28509     28510     28509     28511     28512     28513     28512     28514
     28515     28516     28515     28517     28518     28519     28518     28520
     28521     28522     28521     28523     28524     28525     28524     28526
     28527     28528     28527     28529     28530     28531     28530     28532
     28533     28534     28533     28535     28536     28537     28536     28538
     28539     28540     28539     28541     28542     28543     28542     28544
     28545     28546     28545     28547     28548     28549     28548     28550
     28551     28552     28551     28553     28554     28555     28554     28556
     28557     28558     28557     28559     28560     28561     28560     28562
     28563     28564     28563     28565     28566     28567     28566     28568
     28569     28570     28569     28571     28572     28573     28572     28574
     28575     28576     28575     28577     28578     28579     28578     28580
     28581     28582     28581     28583     28584     28585     28584     28586
     28587     28588     28587     28589     28590     28591     28590     28592
     28593     28594     28593     28595     28596     28597     28596     28598
     28599     28600     28599     28601     28602     28603     28602     28604
     28605     28606     28605     28607     28608     28609     28608     28610
     28611     28612     28611     28613     28614     28615     28614     28616
     28617     28618     28617     28619     28620     28621     28620     28622
     28623     28624     28623     28625     28626     28627     28626     28628
     28629     28630     28629     28631     28632     28633     28632     28634
     28635     28636     28635     28637     28638     28639     28638     28640
     28641     28642     28641     28643     28644     28645     28644     28646
     28647     28648     28647     28649     28650     28651     28650     28652
     28653     28654     28653     28655     28656     28657     28656     28658
     28659     28660     28659     28661     28662     28663     28662     28664
     28665     28666     28665     28667     28668     28669     28668     28670
     28671     28672     28671     28673     28674     28675     28674     28676
     28677     28678     28677     28679     28680     28681     28680     28682
     28683     28684     28683     28685     28686     28687     28686     28688
     28689     28690     28689     28691     28692     28693     28692     28694
     28695     28696     28695     28697     28698     28699     28698     28700
     28701     28702     28701     28703     28704     28705     28704     28706
     28707     28708     28707     28709     28710     28711     28710     28712
     28713     28714     28713     28715     28716     28717     28716     28718
     28719     28720     28719     28721     28722     28723     28722     28724
     28725     28726     28725     28727     28728     28729     28728     28730
     28731     28732     28731     28733     28734     28735     28734     28736
     28737     28738     28737     28739     28740     28741     28740     28742
     28743     28744     28743     28745     28746     28747     28746     28748
     28749     28750     28749     28751     28752     28753     28752     28754
     28755     28756     28755     28757     28758     28759     28758     28760
     28761     28762     28761     28763     28764     28765     28764     28766
     28767     28768     28767     28769     28770     28771     28770     28772
     28773     28774     28773     28775     28776     28777     28776     28778
     28779     28780     28779     28781     28782     28783     28782     28784
     28785     28786     28785     28787     28788     28789     28788     28790
     28791     28792     28791     28793     28794     28795     28794     28796
     28797     28798     28797     28799     28800     28801     28800     28802
     28803     28804     28803     28805     28806     28807     28806     28808
     28809     28810     28809     28811     28812     28813     28812     28814
     28815     28816     28815     28817     28818     28819     28818     28820
     28821     28822     28821     28823     28824     28825     28824     28826
     28827     28828     28827     28829     28830     28831     28830     28832
     28833     28834     28833     28835     28836     28837     28836     28838
     28839     28840     28839     28841     28842     28843     28842     28844
     28845     28846     28845     28847     28848     28849     28848     28850
     28851     28852     28851     28853     28854     28855     28854     28856
     28857     28858     28857     28859     28860     28861     28860     28862
     28863     28864     28863     28865     28866     28867     28866     28868
     28869     28870     28869     28871     28872     28873     28872     28874
     28875     28876     28875     28877     28878     28879     28878     28880
     28881     28882     28881     28883     28884     28885     28884     28886
     28887     28888     28887     28889     28890     28891     28890     28892
     28893     28894     28893     28895     28896     28897     28896     28898
     28899     28900     28899     28901     28902     28903     28902     28904
     28905     28906     28905     28907     28908     28909     28908     28910
     28911     28912     28911     28913     28914     28915     28914     28916
     28917     28918     28917     28919     28920     28921     28920     28922
     28923     28924     28923     28925     28926     28927     28926     28928
     28929     28930     28929     28931     28932     28933     28932     28934
     28935     28936     28935     28937     28938     28939     28938     28940
     28941     28942     28941     28943     28944     28945     28944     28946
     28947     28948     28947     28949     28950     28951     28950     28952
     28953     28954     28953     28955     28956     28957     28956     28958
     28959     28960     28959     28961     28962     28963     28962     28964
     28965     28966     28965     28967     28968     28969     28968     28970
     28971     28972     28971     28973     28974     28975     28974     28976
     28977     28978     28977     28979     28980     28981     28980     28982
     28983     28984     28983     28985     28986     28987     28986     28988
     28989     28990     28989     28991     28992     28993     28992     28994
     28995     28996     28995     28997     28998     28999     28998     29000
     29001     29002     29001     29003     29004     29005     29004     29006
     29007     29008     29007     29009     29010     29011     29010     29012
     29013     29014     29013     29015     29016     29017     29016     29018
     29019     29020     29019     29021     29022     29023     29022     29024
     29025     29026     29025     29027     29028     29029     29028     29030
     29031     29032     29031     29033     29034     29035     29034     29036
     29037     29038     29037     29039     29040     29041     29040     29042
     29043     29044     29043     29045     29046     29047     29046     29048
     29049     29050     29049     29051     29052     29053     29052     29054
     29055     29056     29055     29057     29058     29059     29058     29060
     29061     29062     29061     29063     29064     29065     29064     29066
     29067     29068     29067     29069     29070     29071     29070     29072
     29073     29074     29073     29075     29076     29077     29076     29078
     29079     29080     29079     29081     29082     29083     29082     29084
     29085     29086     29085     29087     29088     29089     29088     29090
     29091     29092     29091     29093     29094     29095     29094     29096
     29097     29098     29097     29099     29100     29101     29100     29102
     29103     29104     29103     29105     29106     29107     29106     29108
     29109     29110     29109     29111     29112     29113     29112     29114
     29115     29116     29115     29117     29118     29119     29118     29120
     29121     29122     29121     29123     29124     29125     29124     29126
     29127     29128     29127     29129     29130     29131     29130     29132
     29133     29134     29133     29135     29136     29137     29136     29138
     29139     29140     29139     29141     29142     29143     29142     29144
     29145     29146     29145     29147     29148     29149     29148     29150
     29151     29152     29151     29153     29154     29155     29154     29156
     29157     29158     29157     29159     29160     29161     29160     29162
     29163     29164     29163     29165     29166     29167     29166     29168
     29169     29170     29169     29171     29172     29173     29172     29174
     29175     29176     29175     29177     29178     29179     29178     29180
     29181     29182     29181     29183     29184     29185     29184     29186
     29187     29188     29187     29189     29190     29191     29190     29192
     29193     29194     29193     29195     29196     29197     29196     29198
     29199     29200     29199     29201     29202     29203     29202     29204
     29205     29206     29205     29207     29208     29209     29208     29210
     29211     29212     29211     29213     29214     29215     29214     29216
     29217     29218     29217     29219     29220     29221     29220     29222
     29223     29224     29223     29225     29226     29227     29226     29228
     29229     29230     29229     29231     29232     29233     29232     29234
     29235     29236     29235     29237     29238     29239     29238     29240
     29241     29242     29241     29243     29244     29245     29244     29246
     29247     29248     29247     29249     29250     29251     29250     29252
     29253     29254     29253     29255     29256     29257     29256     29258
     29259     29260     29259     29261     29262     29263     29262     29264
     29265     29266     29265     29267     29268     29269     29268     29270
     29271     29272     29271     29273     29274     29275     29274     29276
     29277     29278     29277     29279     29280     29281     29280     29282
     29283     29284     29283     29285     29286     29287     29286     29288
     29289     29290     29289     29291     29292     29293     29292     29294
     29295     29296     29295     29297     29298     29299     29298     29300
     29301     29302     29301     29303     29304     29305     29304     29306
     29307     29308     29307     29309     29310     29311     29310     29312
     29313     29314     29313     29315     29316     29317     29316     29318
     29319     29320     29319     29321     29322     29323     29322     29324
     29325     29326     29325     29327     29328     29329     29328     29330
     29331     29332     29331     29333     29334     29335     29334     29336
     29337     29338     29337     29339     29340     29341     29340     29342
     29343     29344     29343     29345     29346     29347     29346     29348
     29349     29350     29349     29351     29352     29353     29352     29354
     29355     29356     29355     29357     29358     29359     29358     29360
     29361     29362     29361     29363     29364     29365     29364     29366
     29367     29368     29367     29369     29370     29371     29370     29372
     29373     29374     29373     29375     29376     29377     29376     29378
     29379     29380     29379     29381     29382     29383     29382     29384
     29385     29386     29385     29387     29388     29389     29388     29390
     29391     29392     29391     29393     29394     29395     29394     29396
     29397     29398     29397     29399     29400     29401     29400     29402
     29403     29404     29403     29405     29406     29407     29406     29408
     29409     29410     29409     29411     29412     29413     29412     29414
     29415     29416     29415     29417     29418     29419     29418     29420
     29421     29422     29421     29423     29424     29425     29424     29426
     29427     29428     29427     29429     29430     29431     29430     29432
     29433     29434     29433     29435     29436     29437     29436     29438
     29439     29440     29439     29441     29442     29443     29442     29444
     29445     29446     29445     29447     29448     29449     29448     29450
     29451     29452     29451     29453     29454     29455     29454     29456
     29457     29458     29457     29459     29460     29461     29460     29462
     29463     29464     29463     29465     29466     29467     29466     29468
     29469     29470     29469     29471     29472     29473     29472     29474
     29475     29476     29475     29477     29478     29479     29478     29480
     29481     29482     29481     29483     29484     29485     29484     29486
     29487     29488     29487     29489     29490     29491     29490     29492
     29493     29494     29493     29495     29496     29497     29496     29498
     29499     29500     29499     29501     29502     29503     29502     29504
     29505     29506     29505     29507     29508     29509     29508     29510
     29511     29512     29511     29513     29514     29515     29514     29516
     29517     29518     29517     29519     29520     29521     29520     29522
     29523     29524     29523     29525     29526     29527     29526     29528
     29529     29530     29529     29531     29532     29533     29532     29534
     29535     29536     29535     29537     29538     29539     29538     29540
     29541     29542     29541     29543     29544     29545     29544     29546
     29547     29548     29547     29549     29550     29551     29550     29552
     29553     29554     29553     29555     29556     29557     29556     29558
     29559     29560     29559     29561     29562     29563     29562     29564
     29565     29566     29565     29567     29568     29569     29568     29570
     29571     29572     29571     29573     29574     29575     29574     29576
     29577     29578     29577     29579     29580     29581     29580     29582
     29583     29584     29583     29585     29586     29587     29586     29588
     29589     29590     29589     29591     29592     29593     29592     29594
     29595     29596     29595     29597     29598     29599     29598     29600
     29601     29602     29601     29603     29604     29605     29604     29606
     29607     29608     29607     29609     29610     29611     29610     29612
     29613     29614     29613     29615     29616     29617     29616     29618
     29619     29620     29619     29621     29622     29623     29622     29624
     29625     29626     29625     29627     29628     29629     29628     29630
     29631     29632     29631     29633     29634     29635     29634     29636
     29637     29638     29637     29639     29640     29641     29640     29642
     29643     29644     29643     29645     29646     29647     29646     29648
     29649     29650     29649     29651     29652     29653     29652     29654
     29655     29656     29655     29657     29658     29659     29658     29660
     29661     29662     29661     29663     29664     29665     29664     29666
     29667     29668     29667     29669     29670     29671     29670     29672
     29673     29674     29673     29675     29676     29677     29676     29678
     29679     29680     29679     29681     29682     29683     29682     29684
     29685     29686     29685     29687     29688     29689     29688     29690
     29691     29692     29691     29693     29694     29695     29694     29696
     29697     29698     29697     29699     29700     29701     29700     29702
     29703     29704     29703     29705     29706     29707     29706     29708
     29709     29710     29709     29711     29712     29713     29712     29714
     29715     29716     29715     29717     29718     29719     29718     29720
     29721     29722     29721     29723     29724     29725     29724     29726
     29727     29728     29727     29729     29730     29731     29730     29732
     29733     29734     29733     29735     29736     29737     29736     29738
     29739     29740     29739     29741     29742     29743     29742     29744
     29745     29746     29745     29747     29748     29749     29748     29750
     29751     29752     29751     29753     29754     29755     29754     29756
     29757     29758     29757     29759     29760     29761     29760     29762
     29763     29764     29763     29765     29766     29767     29766     29768
     29769     29770     29769     29771     29772     29773     29772     29774
     29775     29776     29775     29777     29778     29779     29778     29780
     29781     29782     29781     29783     29784     29785     29784     29786
     29787     29788     29787     29789     29790     29791     29790     29792
     29793     29794     29793     29795     29796     29797     29796     29798
     29799     29800     29799     29801     29802     29803     29802     29804
     29805     29806     29805     29807     29808     29809     29808     29810
     29811     29812     29811     29813     29814     29815     29814     29816
     29817     29818     29817     29819     29820     29821     29820     29822
     29823     29824     29823     29825     29826     29827     29826     29828
     29829     29830     29829     29831     29832     29833     29832     29834
     29835     29836     29835     29837     29838     29839     29838     29840
     29841     29842     29841     29843     29844     29845     29844     29846
     29847     29848     29847     29849     29850     29851     29850     29852
     29853     29854     29853     29855     29856     29857     29856     29858
     29859     29860     29859     29861     29862     29863     29862     29864
     29865     29866     29865     29867     29868     29869     29868     29870
     29871     29872     29871     29873     29874     29875     29874     29876
     29877     29878     29877     29879     29880     29881     29880     29882
     29883     29884     29883     29885     29886     29887     29886     29888
     29889     29890     29889     29891     29892     29893     29892     29894
     29895     29896     29895     29897     29898     29899     29898     29900
     29901     29902     29901     29903     29904     29905     29904     29906
     29907     29908     29907     29909     29910     29911     29910     29912
     29913     29914     29913     29915     29916     29917     29916     29918
     29919     29920     29919     29921     29922     29923     29922     29924
     29925     29926     29925     29927     29928     29929     29928     29930
     29931     29932     29931     29933     29934     29935     29934     29936
     29937     29938     29937     29939     29940     29941     29940     29942
     29943     29944     29943     29945     29946     29947     29946     29948
     29949     29950     29949     29951     29952     29953     29952     29954
     29955     29956     29955     29957     29958     29959     29958     29960
     29961     29962     29961     29963     29964     29965     29964     29966
     29967     29968     29967     29969     29970     29971     29970     29972
     29973     29974     29973     29975     29976     29977     29976     29978
     29979     29980     29979     29981     29982     29983     29982     29984
     29985     29986     29985     29987     29988     29989     29988     29990
     29991     29992     29991     29993     29994     29995     29994     29996
     29997     29998     29997     29999     30000     30001     30000     30002
     30003     30004     30003     30005     30006     30007     30006     30008
     30009     30010     30009     30011     30012     30013     30012     30014
     30015     30016     30015     30017     30018     30019     30018     30020
     30021     30022     30021     30023     30024     30025     30024     30026
     30027     30028     30027     30029     30030     30031     30030     30032
     30033     30034     30033     30035     30036     30037     30036     30038
     30039     30040     30039     30041     30042     30043     30042     30044
     30045     30046     30045     30047     30048     30049     30048     30050
     30051     30052     30051     30053     30054     30055     30054     30056
     30057     30058     30057     30059     30060     30061     30060     30062
     30063     30064     30063     30065     30066     30067     30066     30068
     30069     30070     30069     30071     30072     30073     30072     30074
     30075     30076     30075     30077     30078     30079     30078     30080
     30081     30082     30081     30083     30084     30085     30084     30086
     30087     30088     30087     30089     30090     30091     30090     30092
     30093     30094     30093     30095     30096     30097     30096     30098
     30099     30100     30099     30101     30102     30103     30102     30104
     30105     30106     30105     30107     30108     30109     30108     30110
     30111     30112     30111     30113     30114     30115     30114     30116
     30117     30118     30117     30119     30120     30121     30120     30122
     30123     30124     30123     30125     30126     30127     30126     30128
     30129     30130     30129     30131     30132     30133     30132     30134
     30135     30136     30135     30137     30138     30139     30138     30140
     30141     30142     30141     30143     30144     30145     30144     30146
     30147     30148     30147     30149     30150     30151     30150     30152
     30153     30154     30153     30155     30156     30157     30156     30158
     30159     30160     30159     30161     30162     30163     30162     30164
     30165     30166     30165     30167     30168     30169     30168     30170
     30171     30172     30171     30173     30174     30175     30174     30176
     30177     30178     30177     30179     30180     30181     30180     30182
     30183     30184     30183     30185     30186     30187     30186     30188
     30189     30190     30189     30191     30192     30193     30192     30194
     30195     30196     30195     30197     30198     30199     30198     30200
     30201     30202     30201     30203     30204     30205     30204     30206
     30207     30208     30207     30209     30210     30211     30210     30212
     30213     30214     30213     30215     30216     30217     30216     30218
     30219     30220     30219     30221     30222     30223     30222     30224
     30225     30226     30225     30227     30228     30229     30228     30230
     30231     30232     30231     30233     30234     30235     30234     30236
     30237     30238     30237     30239     30240     30241     30240     30242
     30243     30244     30243     30245     30246     30247     30246     30248
     30249     30250     30249     30251     30252     30253     30252     30254
     30255     30256     30255     30257     30258     30259     30258     30260
     30261     30262     30261     30263     30264     30265     30264     30266
     30267     30268     30267     30269     30270     30271     30270     30272
     30273     30274     30273     30275     30276     30277     30276     30278
     30279     30280     30279     30281     30282     30283     30282     30284
     30285     30286     30285     30287     30288     30289     30288     30290
     30291     30292     30291     30293     30294     30295     30294     30296
     30297     30298     30297     30299     30300     30301     30300     30302
     30303     30304     30303     30305     30306     30307     30306     30308
     30309     30310     30309     30311     30312     30313     30312     30314
     30315     30316     30315     30317     30318     30319     30318     30320
     30321     30322     30321     30323     30324     30325     30324     30326
     30327     30328     30327     30329     30330     30331     30330     30332
     30333     30334     30333     30335     30336     30337     30336     30338
     30339     30340     30339     30341     30342     30343     30342     30344
     30345     30346     30345     30347     30348     30349     30348     30350
     30351     30352     30351     30353     30354     30355     30354     30356
     30357     30358     30357     30359     30360     30361     30360     30362
     30363     30364     30363     30365     30366     30367     30366     30368
     30369     30370     30369     30371     30372     30373     30372     30374
     30375     30376     30375     30377     30378     30379     30378     30380
     30381     30382     30381     30383     30384     30385     30384     30386
     30387     30388     30387     30389     30390     30391     30390     30392
     30393     30394     30393     30395     30396     30397     30396     30398
     30399     30400     30399     30401     30402     30403     30402     30404
     30405     30406     30405     30407     30408     30409     30408     30410
     30411     30412     30411     30413     30414     30415     30414     30416
     30417     30418     30417     30419     30420     30421     30420     30422
     30423     30424     30423     30425     30426     30427     30426     30428
     30429     30430     30429     30431     30432     30433     30432     30434
     30435     30436     30435     30437     30438     30439     30438     30440
     30441     30442     30441     30443     30444     30445     30444     30446
     30447     30448     30447     30449     30450     30451     30450     30452
     30453     30454     30453     30455     30456     30457     30456     30458
     30459     30460     30459     30461     30462     30463     30462     30464
     30465     30466     30465     30467     30468     30469     30468     30470
     30471     30472     30471     30473     30474     30475     30474     30476
     30477     30478     30477     30479     30480     30481     30480     30482
     30483     30484     30483     30485     30486     30487     30486     30488
     30489     30490     30489     30491     30492     30493     30492     30494
     30495     30496     30495     30497     30498     30499     30498     30500
     30501     30502     30501     30503     30504     30505     30504     30506
     30507     30508     30507     30509     30510     30511     30510     30512
     30513     30514     30513     30515     30516     30517     30516     30518
     30519     30520     30519     30521     30522     30523     30522     30524
     30525     30526     30525     30527     30528     30529     30528     30530
     30531     30532     30531     30533     30534     30535     30534     30536
     30537     30538     30537     30539     30540     30541     30540     30542
     30543     30544     30543     30545     30546     30547     30546     30548
     30549     30550     30549     30551     30552     30553     30552     30554
     30555     30556     30555     30557     30558     30559     30558     30560
     30561     30562     30561     30563     30564     30565     30564     30566
     30567     30568     30567     30569     30570     30571     30570     30572
     30573     30574     30573     30575     30576     30577     30576     30578
     30579     30580     30579     30581     30582     30583     30582     30584
     30585     30586     30585     30587     30588     30589     30588     30590
     30591     30592     30591     30593     30594     30595     30594     30596
     30597     30598     30597     30599     30600     30601     30600     30602
     30603     30604     30603     30605     30606     30607     30606     30608
     30609     30610     30609     30611     30612     30613     30612     30614
     30615     30616     30615     30617     30618     30619     30618     30620
     30621     30622     30621     30623     30624     30625     30624     30626
     30627     30628     30627     30629     30630     30631     30630     30632
     30633     30634     30633     30635     30636     30637     30636     30638
     30639     30640     30639     30641     30642     30643     30642     30644
     30645     30646     30645     30647     30648     30649     30648     30650
     30651     30652     30651     30653     30654     30655     30654     30656
     30657     30658     30657     30659     30660     30661     30660     30662
     30663     30664     30663     30665     30666     30667     30666     30668
     30669     30670     30669     30671     30672     30673     30672     30674
     30675     30676     30675     30677     30678     30679     30678     30680
     30681     30682     30681     30683     30684     30685     30684     30686
     30687     30688     30687     30689     30690     30691     30690     30692
     30693     30694     30693     30695     30696     30697     30696     30698
     30699     30700     30699     30701     30702     30703     30702     30704
     30705     30706     30705     30707     30708     30709     30708     30710
     30711     30712     30711     30713     30714     30715     30714     30716
     30717     30718     30717     30719     30720     30721     30720     30722
     30723     30724     30723     30725     30726     30727     30726     30728
     30729     30730     30729     30731     30732     30733     30732     30734
     30735     30736     30735     30737     30738     30739     30738     30740
     30741     30742     30741     30743     30744     30745     30744     30746
     30747     30748     30747     30749     30750     30751     30750     30752
     30753     30754     30753     30755     30756     30757     30756     30758
     30759     30760     30759     30761     30762     30763     30762     30764
     30765     30766     30765     30767     30768     30769     30768     30770
     30771     30772     30771     30773     30774     30775     30774     30776
     30777     30778     30777     30779     30780     30781     30780     30782
     30783     30784     30783     30785     30786     30787     30786     30788
     30789     30790     30789     30791     30792     30793     30792     30794
     30795     30796     30795     30797     30798     30799     30798     30800
     30801     30802     30801     30803     30804     30805     30804     30806
     30807     30808     30807     30809     30810     30811     30810     30812
     30813     30814     30813     30815     30816     30817     30816     30818
     30819     30820     30819     30821     30822     30823     30822     30824
     30825     30826     30825     30827     30828     30829     30828     30830
     30831     30832     30831     30833     30834     30835     30834     30836
     30837     30838     30837     30839     30840     30841     30840     30842
     30843     30844     30843     30845     30846     30847     30846     30848
     30849     30850     30849     30851     30852     30853     30852     30854
     30855     30856     30855     30857     30858     30859     30858     30860
     30861     30862     30861     30863     30864     30865     30864     30866
     30867     30868     30867     30869     30870     30871     30870     30872
     30873     30874     30873     30875     30876     30877     30876     30878
     30879     30880     30879     30881     30882     30883     30882     30884
     30885     30886     30885     30887     30888     30889     30888     30890
     30891     30892     30891     30893     30894     30895     30894     30896
     30897     30898     30897     30899     30900     30901     30900     30902
     30903     30904     30903     30905     30906     30907     30906     30908
     30909     30910     30909     30911     30912     30913     30912     30914
     30915     30916     30915     30917     30918     30919     30918     30920
     30921     30922     30921     30923     30924     30925     30924     30926
     30927     30928     30927     30929     30930     30931     30930     30932
     30933     30934     30933     30935     30936     30937     30936     30938
     30939     30940     30939     30941     30942     30943     30942     30944
     30945     30946     30945     30947     30948     30949     30948     30950
     30951     30952     30951     30953     30954     30955     30954     30956
     30957     30958     30957     30959     30960     30961     30960     30962
     30963     30964     30963     30965     30966     30967     30966     30968
     30969     30970     30969     30971     30972     30973     30972     30974
     30975     30976     30975     30977     30978     30979     30978     30980
     30981     30982     30981     30983     30984     30985     30984     30986
     30987     30988     30987     30989     30990     30991     30990     30992
     30993     30994     30993     30995     30996     30997     30996     30998
     30999     31000     30999     31001     31002     31003     31002     31004
     31005     31006     31005     31007     31008     31009     31008     31010
     31011     31012     31011     31013     31014     31015     31014     31016
     31017     31018     31017     31019     31020     31021     31020     31022
     31023     31024     31023     31025     31026     31027     31026     31028
     31029     31030     31029     31031     31032     31033     31032     31034
     31035     31036     31035     31037     31038     31039     31038     31040
     31041     31042     31041     31043     31044     31045     31044     31046
     31047     31048     31047     31049     31050     31051     31050     31052
     31053     31054     31053     31055     31056     31057     31056     31058
     31059     31060     31059     31061     31062     31063     31062     31064
     31065     31066     31065     31067     31068     31069     31068     31070
     31071     31072     31071     31073     31074     31075     31074     31076
     31077     31078     31077     31079     31080     31081     31080     31082
     31083     31084     31083     31085     31086     31087     31086     31088
     31089     31090     31089     31091     31092     31093     31092     31094
     31095     31096     31095     31097     31098     31099     31098     31100
     31101     31102     31101     31103     31104     31105     31104     31106
     31107     31108     31107     31109     31110     31111     31110     31112
     31113     31114     31113     31115     31116     31117     31116     31118
     31119     31120     31119     31121     31122     31123     31122     31124
     31125     31126     31125     31127     31128     31129     31128     31130
     31131     31132     31131     31133     31134     31135     31134     31136
     31137     31138     31137     31139     31140     31141     31140     31142
     31143     31144     31143     31145     31146     31147     31146     31148
     31149     31150     31149     31151     31152     31153     31152     31154
     31155     31156     31155     31157     31158     31159     31158     31160
     31161     31162     31161     31163     31164     31165     31164     31166
     31167     31168     31167     31169     31170     31171     31170     31172
     31173     31174     31173     31175     31176     31177     31176     31178
     31179     31180     31179     31181     31182     31183     31182     31184
     31185     31186     31185     31187     31188     31189     31188     31190
     31191     31192     31191     31193     31194     31195     31194     31196
     31197     31198     31197     31199     31200     31201     31200     31202
     31203     31204     31203     31205     31206     31207     31206     31208
     31209     31210     31209     31211     31212     31213     31212     31214
     31215     31216     31215     31217     31218     31219     31218     31220
     31221     31222     31221     31223     31224     31225     31224     31226
     31227     31228     31227     31229     31230     31231     31230     31232
     31233     31234     31233     31235     31236     31237     31236     31238
     31239     31240     31239     31241     31242     31243     31242     31244
     31245     31246     31245     31247     31248     31249     31248     31250
     31251     31252     31251     31253     31254     31255     31254     31256
     31257     31258     31257     31259     31260     31261     31260     31262
     31263     31264     31263     31265     31266     31267     31266     31268
     31269     31270     31269     31271     31272     31273     31272     31274
     31275     31276     31275     31277     31278     31279     31278     31280
     31281     31282     31281     31283     31284     31285     31284     31286
     31287     31288     31287     31289     31290     31291     31290     31292
     31293     31294     31293     31295     31296     31297     31296     31298
     31299     31300     31299     31301     31302     31303     31302     31304
     31305     31306     31305     31307     31308     31309     31308     31310
     31311     31312     31311     31313     31314     31315     31314     31316
     31317     31318     31317     31319     31320     31321     31320     31322
     31323     31324     31323     31325     31326     31327     31326     31328
     31329     31330     31329     31331     31332     31333     31332     31334
     31335     31336     31335     31337     31338     31339     31338     31340
     31341     31342     31341     31343     31344     31345     31344     31346
     31347     31348     31347     31349     31350     31351     31350     31352
     31353     31354     31353     31355     31356     31357     31356     31358
     31359     31360     31359     31361     31362     31363     31362     31364
     31365     31366     31365     31367     31368     31369     31368     31370
     31371     31372     31371     31373     31374     31375     31374     31376
     31377     31378     31377     31379     31380     31381     31380     31382
     31383     31384     31383     31385     31386     31387     31386     31388
     31389     31390     31389     31391     31392     31393     31392     31394
     31395     31396     31395     31397     31398     31399     31398     31400
     31401     31402     31401     31403     31404     31405     31404     31406
     31407     31408     31407     31409     31410     31411     31410     31412
     31413     31414     31413     31415     31416     31417     31416     31418
     31419     31420     31419     31421     31422     31423     31422     31424
     31425     31426     31425     31427     31428     31429     31428     31430
     31431     31432     31431     31433     31434     31435     31434     31436
     31437     31438     31437     31439     31440     31441     31440     31442
     31443     31444     31443     31445     31446     31447     31446     31448
     31449     31450     31449     31451     31452     31453     31452     31454
     31455     31456     31455     31457     31458     31459     31458     31460
     31461     31462     31461     31463     31464     31465     31464     31466
     31467     31468     31467     31469     31470     31471     31470     31472
     31473     31474     31473     31475     31476     31477     31476     31478
     31479     31480     31479     31481     31482     31483     31482     31484
     31485     31486     31485     31487     31488     31489     31488     31490
     31491     31492     31491     31493     31494     31495     31494     31496
     31497     31498     31497     31499     31500     31501     31500     31502
     31503     31504     31503     31505     31506     31507     31506     31508
     31509     31510     31509     31511     31512     31513     31512     31514
     31515     31516     31515     31517     31518     31519     31518     31520
     31521     31522     31521     31523     31524     31525     31524     31526
     31527     31528     31527     31529     31530     31531     31530     31532
     31533     31534     31533     31535     31536     31537     31536     31538
     31539     31540     31539     31541     31542     31543     31542     31544
     31545     31546     31545     31547     31548     31549     31548     31550
     31551     31552     31551     31553     31554     31555     31554     31556
     31557     31558     31557     31559     31560     31561     31560     31562
     31563     31564     31563     31565     31566     31567     31566     31568
     31569     31570     31569     31571     31572     31573     31572     31574
     31575     31576     31575     31577     31578     31579     31578     31580
     31581     31582     31581     31583     31584     31585     31584     31586
     31587     31588     31587     31589     31590     31591     31590     31592
     31593     31594     31593     31595     31596     31597     31596     31598
     31599     31600     31599     31601     31602     31603     31602     31604
     31605     31606     31605     31607     31608     31609     31608     31610
     31611     31612     31611     31613     31614     31615     31614     31616
     31617     31618     31617     31619     31620     31621     31620     31622
     31623     31624     31623     31625     31626     31627     31626     31628
     31629     31630     31629     31631     31632     31633     31632     31634
     31635     31636     31635     31637     31638     31639     31638     31640
     31641     31642     31641     31643     31644     31645     31644     31646
     31647     31648     31647     31649     31650     31651     31650     31652
     31653     31654     31653     31655     31656     31657     31656     31658
     31659     31660     31659     31661     31662     31663     31662     31664
     31665     31666     31665     31667     31668     31669     31668     31670
     31671     31672     31671     31673     31674     31675     31674     31676
     31677     31678     31677     31679     31680     31681     31680     31682
     31683     31684     31683     31685     31686     31687     31686     31688
     31689     31690     31689     31691     31692     31693     31692     31694
     31695     31696     31695     31697     31698     31699     31698     31700
     31701     31702     31701     31703     31704     31705     31704     31706
     31707     31708     31707     31709     31710     31711     31710     31712
     31713     31714     31713     31715     31716     31717     31716     31718
     31719     31720     31719     31721     31722     31723     31722     31724
     31725     31726     31725     31727     31728     31729     31728     31730
     31731     31732     31731     31733     31734     31735     31734     31736
     31737     31738     31737     31739     31740     31741     31740     31742
     31743     31744     31743     31745     31746     31747     31746     31748
     31749     31750     31749     31751     31752     31753     31752     31754
     31755     31756     31755     31757     31758     31759     31758     31760
     31761     31762     31761     31763     31764     31765     31764     31766
     31767     31768     31767     31769     31770     31771     31770     31772
     31773     31774     31773     31775     31776     31777     31776     31778
     31779     31780     31779     31781     31782     31783     31782     31784
     31785     31786     31785     31787     31788     31789     31788     31790
     31791     31792     31791     31793     31794     31795     31794     31796
     31797     31798     31797     31799     31800     31801     31800     31802
     31803     31804     31803     31805     31806     31807     31806     31808
     31809     31810     31809     31811     31812     31813     31812     31814
     31815     31816     31815     31817     31818     31819     31818     31820
     31821     31822     31821     31823     31824     31825     31824     31826
     31827     31828     31827     31829     31830     31831     31830     31832
     31833     31834     31833     31835     31836     31837     31836     31838
     31839     31840     31839     31841     31842     31843     31842     31844
     31845     31846     31845     31847     31848     31849     31848     31850
     31851     31852     31851     31853     31854     31855     31854     31856
     31857     31858     31857     31859     31860     31861     31860     31862
     31863     31864     31863     31865     31866     31867     31866     31868
     31869     31870     31869     31871     31872     31873     31872     31874
     31875     31876     31875     31877     31878     31879     31878     31880
     31881     31882     31881     31883     31884     31885     31884     31886
     31887     31888     31887     31889     31890     31891     31890     31892
     31893     31894     31893     31895     31896     31897     31896     31898
     31899     31900     31899     31901     31902     31903     31902     31904
     31905     31906     31905     31907     31908     31909     31908     31910
     31911     31912     31911     31913     31914     31915     31914     31916
     31917     31918     31917     31919     31920     31921     31920     31922
     31923     31924     31923     31925     31926     31927     31926     31928
     31929     31930     31929     31931     31932     31933     31932     31934
     31935     31936     31935     31937     31938     31939     31938     31940
     31941     31942     31941     31943     31944     31945     31944     31946
     31947     31948     31947     31949     31950     31951     31950     31952
     31953     31954     31953     31955     31956     31957     31956     31958
     31959     31960     31959     31961     31962     31963     31962     31964
     31965     31966     31965     31967     31968     31969     31968     31970
     31971     31972     31971     31973     31974     31975     31974     31976
     31977     31978     31977     31979     31980     31981     31980     31982
     31983     31984     31983     31985     31986     31987     31986     31988
     31989     31990     31989     31991     31992     31993     31992     31994
     31995     31996     31995     31997     31998     31999     31998     32000
     32001     32002     32001     32003     32004     32005     32004     32006
     32007     32008     32007     32009     32010     32011     32010     32012
     32013     32014     32013     32015     32016     32017     32016     32018
     32019     32020     32019     32021     32022     32023     32022     32024
     32025     32026     32025     32027     32028     32029     32028     32030
     32031     32032     32031     32033     32034     32035     32034     32036
     32037     32038     32037     32039     32040     32041     32040     32042
     32043     32044     32043     32045     32046     32047     32046     32048
     32049     32050     32049     32051     32052     32053     32052     32054
     32055     32056     32055     32057     32058     32059     32058     32060
     32061     32062     32061     32063     32064     32065     32064     32066
     32067     32068     32067     32069     32070     32071     32070     32072
     32073     32074     32073     32075     32076     32077     32076     32078
     32079     32080     32079     32081     32082     32083     32082     32084
     32085     32086     32085     32087     32088     32089     32088     32090
     32091     32092     32091     32093     32094     32095     32094     32096
     32097     32098     32097     32099     32100     32101     32100     32102
     32103     32104     32103     32105     32106     32107     32106     32108
     32109     32110     32109     32111     32112     32113     32112     32114
     32115     32116     32115     32117     32118     32119     32118     32120
     32121     32122     32121     32123     32124     32125     32124     32126
     32127     32128     32127     32129     32130     32131     32130     32132
     32133     32134     32133     32135     32136     32137     32136     32138
     32139     32140     32139     32141     32142     32143     32142     32144
     32145     32146     32145     32147     32148     32149     32148     32150
     32151     32152     32151     32153     32154     32155     32154     32156
     32157     32158     32157     32159     32160     32161     32160     32162
     32163     32164     32163     32165     32166     32167     32166     32168
     32169     32170     32169     32171     32172     32173     32172     32174
     32175     32176     32175     32177     32178     32179     32178     32180
     32181     32182     32181     32183     32184     32185     32184     32186
     32187     32188     32187     32189     32190     32191     32190     32192
     32193     32194     32193     32195     32196     32197     32196     32198
     32199     32200     32199     32201     32202     32203     32202     32204
     32205     32206     32205     32207     32208     32209     32208     32210
     32211     32212     32211     32213     32214     32215     32214     32216
     32217     32218     32217     32219     32220     32221     32220     32222
     32223     32224     32223     32225     32226     32227     32226     32228
     32229     32230     32229     32231     32232     32233     32232     32234
     32235     32236     32235     32237     32238     32239     32238     32240
     32241     32242     32241     32243     32244     32245     32244     32246
     32247     32248     32247     32249     32250     32251     32250     32252
     32253     32254     32253     32255     32256     32257     32256     32258
     32259     32260     32259     32261     32262     32263     32262     32264
     32265     32266     32265     32267     32268     32269     32268     32270
     32271     32272     32271     32273     32274     32275     32274     32276
     32277     32278     32277     32279     32280     32281     32280     32282
     32283     32284     32283     32285     32286     32287     32286     32288
     32289     32290     32289     32291     32292     32293     32292     32294
     32295     32296     32295     32297     32298     32299     32298     32300
     32301     32302     32301     32303     32304     32305     32304     32306
     32307     32308     32307     32309     32310     32311     32310     32312
     32313     32314     32313     32315     32316     32317     32316     32318
     32319     32320     32319     32321     32322     32323     32322     32324
     32325     32326     32325     32327     32328     32329     32328     32330
     32331     32332     32331     32333     32334     32335     32334     32336
     32337     32338     32337     32339     32340     32341     32340     32342
     32343     32344     32343     32345     32346     32347     32346     32348
     32349     32350     32349     32351     32352     32353     32352     32354
     32355     32356     32355     32357     32358     32359     32358     32360
     32361     32362     32361     32363     32364     32365     32364     32366
     32367     32368     32367     32369     32370     32371     32370     32372
     32373     32374     32373     32375     32376     32377     32376     32378
     32379     32380     32379     32381     32382     32383     32382     32384
     32385     32386     32385     32387     32388     32389     32388     32390
     32391     32392     32391     32393     32394     32395     32394     32396
     32397     32398     32397     32399     32400     32401     32400     32402
     32403     32404     32403     32405     32406     32407     32406     32408
     32409     32410     32409     32411     32412     32413     32412     32414
     32415     32416     32415     32417     32418     32419     32418     32420
     32421     32422     32421     32423     32424     32425     32424     32426
     32427     32428     32427     32429     32430     32431     32430     32432
     32433     32434     32433     32435     32436     32437     32436     32438
     32439     32440     32439     32441     32442     32443     32442     32444
     32445     32446     32445     32447     32448     32449     32448     32450
     32451     32452     32451     32453     32454     32455     32454     32456
     32457     32458     32457     32459     32460     32461     32460     32462
     32463     32464     32463     32465     32466     32467     32466     32468
     32469     32470     32469     32471     32472     32473     32472     32474
     32475     32476     32475     32477     32478     32479     32478     32480
     32481     32482     32481     32483     32484     32485     32484     32486
     32487     32488     32487     32489     32490     32491     32490     32492
     32493     32494     32493     32495     32496     32497     32496     32498
     32499     32500     32499     32501     32502     32503     32502     32504
     32505     32506     32505     32507     32508     32509     32508     32510
     32511     32512     32511     32513     32514     32515     32514     32516
     32517     32518     32517     32519     32520     32521     32520     32522
     32523     32524     32523     32525     32526     32527     32526     32528
     32529     32530     32529     32531     32532     32533     32532     32534
     32535     32536     32535     32537     32538     32539     32538     32540
     32541     32542     32541     32543     32544     32545     32544     32546
     32547     32548     32547     32549     32550     32551     32550     32552
     32553     32554     32553     32555     32556     32557     32556     32558
     32559     32560     32559     32561     32562     32563     32562     32564
     32565     32566     32565     32567     32568     32569     32568     32570
     32571     32572     32571     32573     32574     32575     32574     32576
     32577     32578     32577     32579     32580     32581     32580     32582
     32583     32584     32583     32585     32586     32587     32586     32588
     32589     32590     32589     32591     32592     32593     32592     32594
     32595     32596     32595     32597     32598     32599     32598     32600
     32601     32602     32601     32603     32604     32605     32604     32606
     32607     32608     32607     32609     32610     32611     32610     32612
     32613     32614     32613     32615     32616     32617     32616     32618
     32619     32620     32619     32621     32622     32623     32622     32624
     32625     32626     32625     32627     32628     32629     32628     32630
     32631     32632     32631     32633     32634     32635     32634     32636
     32637     32638     32637     32639     32640     32641     32640     32642
     32643     32644     32643     32645     32646     32647     32646     32648
     32649     32650     32649     32651     32652     32653     32652     32654
     32655     32656     32655     32657     32658     32659     32658     32660
     32661     32662     32661     32663     32664     32665     32664     32666
     32667     32668     32667     32669     32670     32671     32670     32672
     32673     32674     32673     32675     32676     32677     32676     32678
     32679     32680     32679     32681     32682     32683     32682     32684
     32685     32686     32685     32687     32688     32689     32688     32690
     32691     32692     32691     32693     32694     32695     32694     32696
     32697     32698     32697     32699     32700     32701     32700     32702
     32703     32704     32703     32705     32706     32707     32706     32708
     32709     32710     32709     32711     32712     32713     32712     32714
     32715     32716     32715     32717     32718     32719     32718     32720
     32721     32722     32721     32723     32724     32725     32724     32726
     32727     32728     32727     32729     32730     32731     32730     32732
     32733     32734     32733     32735     32736     32737     32736     32738
     32739     32740     32739     32741     32742     32743     32742     32744
     32745     32746     32745     32747     32748     32749     32748     32750
     32751     32752     32751     32753     32754     32755     32754     32756
     32757     32758     32757     32759     32760     32761     32760     32762
     32763     32764     32763     32765     32766     32767     32766     32768
     32769     32770     32769     32771     32772     32773     32772     32774
     32775     32776     32775     32777     32778     32779     32778     32780
     32781     32782     32781     32783     32784     32785     32784     32786
     32787     32788     32787     32789     32790     32791     32790     32792
     32793     32794     32793     32795     32796     32797     32796     32798
     32799     32800     32799     32801     32802     32803     32802     32804
     32805     32806     32805     32807     32808     32809     32808     32810
     32811     32812     32811     32813     32814     32815     32814     32816
     32817     32818     32817     32819     32820     32821     32820     32822
     32823     32824     32823     32825     32826     32827     32826     32828
     32829     32830     32829     32831     32832     32833     32832     32834
     32835     32836     32835     32837     32838     32839     32838     32840
     32841     32842     32841     32843     32844     32845     32844     32846
     32847     32848     32847     32849     32850     32851     32850     32852
     32853     32854     32853     32855     32856     32857     32856     32858
     32859     32860     32859     32861     32862     32863     32862     32864
     32865     32866     32865     32867     32868     32869     32868     32870
     32871     32872     32871     32873     32874     32875     32874     32876
     32877     32878     32877     32879     32880     32881     32880     32882
     32883     32884     32883     32885     32886     32887     32886     32888
     32889     32890     32889     32891     32892     32893     32892     32894
     32895     32896     32895     32897     32898     32899     32898     32900
     32901     32902     32901     32903     32904     32905     32904     32906
     32907     32908     32907     32909     32910     32911     32910     32912
     32913     32914     32913     32915     32916     32917     32916     32918
     32919     32920     32919     32921     32922     32923     32922     32924
     32925     32926     32925     32927     32928     32929     32928     32930
     32931     32932     32931     32933     32934     32935     32934     32936
     32937     32938     32937     32939     32940     32941     32940     32942
     32943     32944     32943     32945     32946     32947     32946     32948
     32949     32950     32949     32951     32952     32953     32952     32954
     32955     32956     32955     32957     32958     32959     32958     32960
     32961     32962     32961     32963     32964     32965     32964     32966
     32967     32968     32967     32969     32970     32971     32970     32972
     32973     32974     32973     32975     32976     32977     32976     32978
     32979     32980     32979     32981     32982     32983     32982     32984
     32985     32986     32985     32987     32988     32989     32988     32990
     32991     32992     32991     32993     32994     32995     32994     32996
     32997     32998     32997     32999     33000     33001     33000     33002
     33003     33004     33003     33005     33006     33007     33006     33008
     33009     33010     33009     33011     33012     33013     33012     33014
     33015     33016     33015     33017     33018     33019     33018     33020
     33021     33022     33021     33023     33024     33025     33024     33026
     33027     33028     33027     33029     33030     33031     33030     33032
     33033     33034     33033     33035     33036     33037     33036     33038
     33039     33040     33039     33041     33042     33043     33042     33044
     33045     33046     33045     33047     33048     33049     33048     33050
     33051     33052     33051     33053     33054     33055     33054     33056
     33057     33058     33057     33059     33060     33061     33060     33062
     33063     33064     33063     33065     33066     33067     33066     33068
     33069     33070     33069     33071     33072     33073     33072     33074
     33075     33076     33075     33077     33078     33079     33078     33080
     33081     33082     33081     33083     33084     33085     33084     33086
     33087     33088     33087     33089     33090     33091     33090     33092
     33093     33094     33093     33095     33096     33097     33096     33098
     33099     33100     33099     33101     33102     33103     33102     33104
     33105     33106     33105     33107     33108     33109     33108     33110
     33111     33112     33111     33113     33114     33115     33114     33116
     33117     33118     33117     33119     33120     33121     33120     33122
     33123     33124     33123     33125     33126     33127     33126     33128
     33129     33130     33129     33131     33132     33133     33132     33134
     33135     33136     33135     33137     33138     33139     33138     33140
     33141     33142     33141     33143     33144     33145     33144     33146
     33147     33148     33147     33149     33150     33151     33150     33152
     33153     33154     33153     33155     33156     33157     33156     33158
     33159     33160     33159     33161     33162     33163     33162     33164
     33165     33166     33165     33167     33168     33169     33168     33170
     33171     33172     33171     33173     33174     33175     33174     33176
     33177     33178     33177     33179     33180     33181     33180     33182
     33183     33184     33183     33185     33186     33187     33186     33188
     33189     33190     33189     33191     33192     33193     33192     33194
     33195     33196     33195     33197     33198     33199     33198     33200
     33201     33202     33201     33203     33204     33205     33204     33206
     33207     33208     33207     33209     33210     33211     33210     33212
     33213     33214     33213     33215     33216     33217     33216     33218
     33219     33220     33219     33221     33222     33223     33222     33224
     33225     33226     33225     33227     33228     33229     33228     33230
     33231     33232     33231     33233     33234     33235     33234     33236
     33237     33238     33237     33239     33240     33241     33240     33242
     33243     33244     33243     33245     33246     33247     33246     33248
     33249     33250     33249     33251     33252     33253     33252     33254
     33255     33256     33255     33257     33258     33259     33258     33260
     33261     33262     33261     33263     33264     33265     33264     33266
     33267     33268     33267     33269     33270     33271     33270     33272
     33273     33274     33273     33275     33276     33277     33276     33278
     33279     33280     33279     33281     33282     33283     33282     33284
     33285     33286     33285     33287     33288     33289     33288     33290
     33291     33292     33291     33293     33294     33295     33294     33296
     33297     33298     33297     33299     33300     33301     33300     33302
     33303     33304     33303     33305     33306     33307     33306     33308
     33309     33310     33309     33311     33312     33313     33312     33314
     33315     33316     33315     33317     33318     33319     33318     33320
     33321     33322     33321     33323     33324     33325     33324     33326
     33327     33328     33327     33329     33330     33331     33330     33332
     33333     33334     33333     33335     33336     33337     33336     33338
     33339     33340     33339     33341     33342     33343     33342     33344
     33345     33346     33345     33347     33348     33349     33348     33350
     33351     33352     33351     33353     33354     33355     33354     33356
     33357     33358     33357     33359     33360     33361     33360     33362
     33363     33364     33363     33365     33366     33367     33366     33368
     33369     33370     33369     33371     33372     33373     33372     33374
     33375     33376     33375     33377     33378     33379     33378     33380
     33381     33382     33381     33383     33384     33385     33384     33386
     33387     33388     33387     33389     33390     33391     33390     33392
     33393     33394     33393     33395     33396     33397     33396     33398
     33399     33400     33399     33401     33402     33403     33402     33404
     33405     33406     33405     33407     33408     33409     33408     33410
     33411     33412     33411     33413     33414     33415     33414     33416
     33417     33418     33417     33419     33420     33421     33420     33422
     33423     33424     33423     33425     33426     33427     33426     33428
     33429     33430     33429     33431     33432     33433     33432     33434
     33435     33436     33435     33437     33438     33439     33438     33440
     33441     33442     33441     33443     33444     33445     33444     33446
     33447     33448     33447     33449     33450     33451     33450     33452
     33453     33454     33453     33455     33456     33457     33456     33458
     33459     33460     33459     33461     33462     33463     33462     33464
     33465     33466     33465     33467     33468     33469     33468     33470
     33471     33472     33471     33473     33474     33475     33474     33476
     33477     33478     33477     33479     33480     33481     33480     33482
     33483     33484     33483     33485     33486     33487     33486     33488
     33489     33490     33489     33491     33492     33493     33492     33494
     33495     33496     33495     33497     33498     33499     33498     33500
     33501     33502     33501     33503     33504     33505     33504     33506
     33507     33508     33507     33509     33510     33511     33510     33512
     33513     33514     33513     33515     33516     33517     33516     33518
     33519     33520     33519     33521     33522     33523     33522     33524
     33525     33526     33525     33527     33528     33529     33528     33530
     33531     33532     33531     33533     33534     33535     33534     33536
     33537     33538     33537     33539     33540     33541     33540     33542
     33543     33544     33543     33545     33546     33547     33546     33548
     33549     33550     33549     33551     33552     33553     33552     33554
     33555     33556     33555     33557     33558     33559     33558     33560
     33561     33562     33561     33563     33564     33565     33564     33566
     33567     33568     33567     33569     33570     33571     33570     33572
     33573     33574     33573     33575     33576     33577     33576     33578
     33579     33580     33579     33581     33582     33583     33582     33584
     33585     33586     33585     33587     33588     33589     33588     33590
     33591     33592     33591     33593     33594     33595     33594     33596
     33597     33598     33597     33599     33600     33601     33600     33602
     33603     33604     33603     33605     33606     33607     33606     33608
     33609     33610     33609     33611     33612     33613     33612     33614
     33615     33616     33615     33617     33618     33619     33618     33620
     33621     33622     33621     33623     33624     33625     33624     33626
     33627     33628     33627     33629     33630     33631     33630     33632
     33633     33634     33633     33635     33636     33637     33636     33638
     33639     33640     33639     33641     33642     33643     33642     33644
     33645     33646     33645     33647     33648     33649     33648     33650
     33651     33652     33651     33653     33654     33655     33654     33656
     33657     33658     33657     33659     33660     33661     33660     33662
     33663     33664     33663     33665     33666     33667     33666     33668
     33669     33670     33669     33671     33672     33673     33672     33674
     33675     33676     33675     33677     33678     33679     33678     33680
     33681     33682     33681     33683     33684     33685     33684     33686
     33687     33688     33687     33689     33690     33691     33690     33692
     33693     33694     33693     33695     33696     33697     33696     33698
     33699     33700     33699     33701     33702     33703     33702     33704
     33705     33706     33705     33707     33708     33709     33708     33710
     33711     33712     33711     33713     33714     33715     33714     33716
     33717     33718     33717     33719     33720     33721     33720     33722
     33723     33724     33723     33725     33726     33727     33726     33728
     33729     33730     33729     33731     33732     33733     33732     33734
     33735     33736     33735     33737     33738     33739     33738     33740
     33741     33742     33741     33743     33744     33745     33744     33746
     33747     33748     33747     33749     33750     33751     33750     33752
     33753     33754     33753     33755     33756     33757     33756     33758
     33759     33760     33759     33761     33762     33763     33762     33764
     33765     33766     33765     33767     33768     33769     33768     33770
     33771     33772     33771     33773     33774     33775     33774     33776
     33777     33778     33777     33779     33780     33781     33780     33782
     33783     33784     33783     33785     33786     33787     33786     33788
     33789     33790     33789     33791     33792     33793     33792     33794
     33795     33796     33795     33797     33798     33799     33798     33800
     33801     33802     33801     33803     33804     33805     33804     33806
     33807     33808     33807     33809     33810     33811     33810     33812
     33813     33814     33813     33815     33816     33817     33816     33818
     33819     33820     33819     33821     33822     33823     33822     33824
     33825     33826     33825     33827     33828     33829     33828     33830
     33831     33832     33831     33833     33834     33835     33834     33836
     33837     33838     33837     33839     33840     33841     33840     33842
     33843     33844     33843     33845     33846     33847     33846     33848
     33849     33850     33849     33851     33852     33853     33852     33854
     33855     33856     33855     33857     33858     33859     33858     33860
     33861     33862     33861     33863     33864     33865     33864     33866
     33867     33868     33867     33869     33870     33871     33870     33872
     33873     33874     33873     33875     33876     33877     33876     33878
     33879     33880     33879     33881     33882     33883     33882     33884
     33885     33886     33885     33887     33888     33889     33888     33890
     33891     33892     33891     33893     33894     33895     33894     33896
     33897     33898     33897     33899     33900     33901     33900     33902
     33903     33904     33903     33905     33906     33907     33906     33908
     33909     33910     33909     33911     33912     33913     33912     33914
     33915     33916     33915     33917     33918     33919     33918     33920
     33921     33922     33921     33923     33924     33925     33924     33926
     33927     33928     33927     33929     33930     33931     33930     33932
     33933     33934     33933     33935     33936     33937     33936     33938
     33939     33940     33939     33941     33942     33943     33942     33944
     33945     33946     33945     33947     33948     33949     33948     33950
     33951     33952     33951     33953     33954     33955     33954     33956
     33957     33958     33957     33959     33960     33961     33960     33962
     33963     33964     33963     33965     33966     33967     33966     33968
     33969     33970     33969     33971     33972     33973     33972     33974
     33975     33976     33975     33977     33978     33979     33978     33980
     33981     33982     33981     33983     33984     33985     33984     33986
     33987     33988     33987     33989     33990     33991     33990     33992
     33993     33994     33993     33995     33996     33997     33996     33998
     33999     34000     33999     34001     34002     34003     34002     34004
     34005     34006     34005     34007     34008     34009     34008     34010
     34011     34012     34011     34013     34014     34015     34014     34016
     34017     34018     34017     34019     34020     34021     34020     34022
     34023     34024     34023     34025     34026     34027     34026     34028
     34029     34030     34029     34031     34032     34033     34032     34034
     34035     34036     34035     34037     34038     34039     34038     34040
     34041     34042     34041     34043     34044     34045     34044     34046
     34047     34048     34047     34049     34050     34051     34050     34052
     34053     34054     34053     34055     34056     34057     34056     34058
     34059     34060     34059     34061     34062     34063     34062     34064
     34065     34066     34065     34067     34068     34069     34068     34070
     34071     34072     34071     34073     34074     34075     34074     34076
     34077     34078     34077     34079     34080     34081     34080     34082
     34083     34084     34083     34085     34086     34087     34086     34088
     34089     34090     34089     34091     34092     34093     34092     34094
     34095     34096     34095     34097     34098     34099     34098     34100
     34101     34102     34101     34103     34104     34105     34104     34106
     34107     34108     34107     34109     34110     34111     34110     34112
     34113     34114     34113     34115     34116     34117     34116     34118
     34119     34120     34119     34121     34122     34123     34122     34124
     34125     34126     34125     34127     34128     34129     34128     34130
     34131     34132     34131     34133     34134     34135     34134     34136
     34137     34138     34137     34139     34140     34141     34140     34142
     34143     34144     34143     34145     34146     34147     34146     34148
     34149     34150     34149     34151     34152     34153     34152     34154
     34155     34156     34155     34157     34158     34159     34158     34160
     34161     34162     34161     34163     34164     34165     34164     34166
     34167     34168     34167     34169     34170     34171     34170     34172
     34173     34174     34173     34175     34176     34177     34176     34178
     34179     34180     34179     34181     34182     34183     34182     34184
     34185     34186     34185     34187     34188     34189     34188     34190
     34191     34192     34191     34193     34194     34195     34194     34196
     34197     34198     34197     34199     34200     34201     34200     34202
     34203     34204     34203     34205     34206     34207     34206     34208
     34209     34210     34209     34211     34212     34213     34212     34214
     34215     34216     34215     34217     34218     34219     34218     34220
     34221     34222     34221     34223     34224     34225     34224     34226
     34227     34228     34227     34229     34230     34231     34230     34232
     34233     34234     34233     34235     34236     34237     34236     34238
     34239     34240     34239     34241     34242     34243     34242     34244
     34245     34246     34245     34247     34248     34249     34248     34250
     34251     34252     34251     34253     34254     34255     34254     34256
     34257     34258     34257     34259     34260     34261     34260     34262
     34263     34264     34263     34265     34266     34267     34266     34268
     34269     34270     34269     34271     34272     34273     34272     34274
     34275     34276     34275     34277     34278     34279     34278     34280
     34281     34282     34281     34283     34284     34285     34284     34286
     34287     34288     34287     34289     34290     34291     34290     34292
     34293     34294     34293     34295     34296     34297     34296     34298
     34299     34300     34299     34301     34302     34303     34302     34304
     34305     34306     34305     34307     34308     34309     34308     34310
     34311     34312     34311     34313     34314     34315     34314     34316
     34317     34318     34317     34319     34320     34321     34320     34322
     34323     34324     34323     34325     34326     34327     34326     34328
     34329     34330     34329     34331     34332     34333     34332     34334
     34335     34336     34335     34337     34338     34339     34338     34340
     34341     34342     34341     34343     34344     34345     34344     34346
     34347     34348     34347     34349     34350     34351     34350     34352
     34353     34354     34353     34355     34356     34357     34356     34358
     34359     34360     34359     34361     34362     34363     34362     34364
     34365     34366     34365     34367     34368     34369     34368     34370
     34371     34372     34371     34373     34374     34375     34374     34376
     34377     34378     34377     34379     34380     34381     34380     34382
     34383     34384     34383     34385     34386     34387     34386     34388
     34389     34390     34389     34391     34392     34393     34392     34394
     34395     34396     34395     34397     34398     34399     34398     34400
     34401     34402     34401     34403     34404     34405     34404     34406
     34407     34408     34407     34409     34410     34411     34410     34412
     34413     34414     34413     34415     34416     34417     34416     34418
     34419     34420     34419     34421     34422     34423     34422     34424
     34425     34426     34425     34427     34428     34429     34428     34430
     34431     34432     34431     34433     34434     34435     34434     34436
     34437     34438     34437     34439     34440     34441     34440     34442
     34443     34444     34443     34445     34446     34447     34446     34448
     34449     34450     34449     34451     34452     34453     34452     34454
     34455     34456     34455     34457     34458     34459     34458     34460
     34461     34462     34461     34463     34464     34465     34464     34466
     34467     34468     34467     34469     34470     34471     34470     34472
     34473     34474     34473     34475     34476     34477     34476     34478
     34479     34480     34479     34481     34482     34483     34482     34484
     34485     34486     34485     34487     34488     34489     34488     34490
     34491     34492     34491     34493     34494     34495     34494     34496
     34497     34498     34497     34499     34500     34501     34500     34502
     34503     34504     34503     34505     34506     34507     34506     34508
     34509     34510     34509     34511     34512     34513     34512     34514
     34515     34516     34515     34517     34518     34519     34518     34520
     34521     34522     34521     34523     34524     34525     34524     34526
     34527     34528     34527     34529     34530     34531     34530     34532
     34533     34534     34533     34535     34536     34537     34536     34538
     34539     34540     34539     34541     34542     34543     34542     34544
     34545     34546     34545     34547     34548     34549     34548     34550
     34551     34552     34551     34553     34554     34555     34554     34556
     34557     34558     34557     34559     34560     34561     34560     34562
     34563     34564     34563     34565     34566     34567     34566     34568
     34569     34570     34569     34571     34572     34573     34572     34574
     34575     34576     34575     34577     34578     34579     34578     34580
     34581     34582     34581     34583     34584     34585     34584     34586
     34587     34588     34587     34589     34590     34591     34590     34592
     34593     34594     34593     34595     34596     34597     34596     34598
     34599     34600     34599     34601     34602     34603     34602     34604
     34605     34606     34605     34607     34608     34609     34608     34610
     34611     34612     34611     34613     34614     34615     34614     34616
     34617     34618     34617     34619     34620     34621     34620     34622
     34623     34624     34623     34625     34626     34627     34626     34628
     34629     34630     34629     34631     34632     34633     34632     34634
     34635     34636     34635     34637     34638     34639     34638     34640
     34641     34642     34641     34643     34644     34645     34644     34646
     34647     34648     34647     34649     34650     34651     34650     34652
     34653     34654     34653     34655     34656     34657     34656     34658
     34659     34660     34659     34661     34662     34663     34662     34664
     34665     34666     34665     34667     34668     34669     34668     34670
     34671     34672     34671     34673     34674     34675     34674     34676
     34677     34678     34677     34679     34680     34681     34680     34682
     34683     34684     34683     34685     34686     34687     34686     34688
     34689     34690     34689     34691     34692     34693     34692     34694
     34695     34696     34695     34697     34698     34699     34698     34700
     34701     34702     34701     34703     34704     34705     34704     34706
     34707     34708     34707     34709     34710     34711     34710     34712
     34713     34714     34713     34715     34716     34717     34716     34718
     34719     34720     34719     34721     34722     34723     34722     34724
     34725     34726     34725     34727     34728     34729     34728     34730
     34731     34732     34731     34733     34734     34735     34734     34736
     34737     34738     34737     34739     34740     34741     34740     34742
     34743     34744     34743     34745     34746     34747     34746     34748
     34749     34750     34749     34751     34752     34753     34752     34754
     34755     34756     34755     34757     34758     34759     34758     34760
     34761     34762     34761     34763     34764     34765     34764     34766
     34767     34768     34767     34769     34770     34771     34770     34772
     34773     34774     34773     34775     34776     34777     34776     34778
     34779     34780     34779     34781     34782     34783     34782     34784
     34785     34786     34785     34787     34788     34789     34788     34790
     34791     34792     34791     34793     34794     34795     34794     34796
     34797     34798     34797     34799     34800     34801     34800     34802
     34803     34804     34803     34805     34806     34807     34806     34808
     34809     34810     34809     34811     34812     34813     34812     34814
     34815     34816     34815     34817     34818     34819     34818     34820
     34821     34822     34821     34823     34824     34825     34824     34826
     34827     34828     34827     34829     34830     34831     34830     34832
     34833     34834     34833     34835     34836     34837     34836     34838
     34839     34840     34839     34841     34842     34843     34842     34844
     34845     34846     34845     34847     34848     34849     34848     34850
     34851     34852     34851     34853     34854     34855     34854     34856
     34857     34858     34857     34859     34860     34861     34860     34862
     34863     34864     34863     34865     34866     34867     34866     34868
     34869     34870     34869     34871     34872     34873     34872     34874
     34875     34876     34875     34877     34878     34879     34878     34880
     34881     34882     34881     34883     34884     34885     34884     34886
     34887     34888     34887     34889     34890     34891     34890     34892
     34893     34894     34893     34895     34896     34897     34896     34898
     34899     34900     34899     34901     34902     34903     34902     34904
     34905     34906     34905     34907     34908     34909     34908     34910
     34911     34912     34911     34913     34914     34915     34914     34916
     34917     34918     34917     34919     34920     34921     34920     34922
     34923     34924     34923     34925     34926     34927     34926     34928
     34929     34930     34929     34931     34932     34933     34932     34934
     34935     34936     34935     34937     34938     34939     34938     34940
     34941     34942     34941     34943     34944     34945     34944     34946
     34947     34948     34947     34949     34950     34951     34950     34952
     34953     34954     34953     34955     34956     34957     34956     34958
     34959     34960     34959     34961     34962     34963     34962     34964
     34965     34966     34965     34967     34968     34969     34968     34970
     34971     34972     34971     34973     34974     34975     34974     34976
     34977     34978     34977     34979     34980     34981     34980     34982
     34983     34984     34983     34985     34986     34987     34986     34988
     34989     34990     34989     34991     34992     34993     34992     34994
     34995     34996     34995     34997     34998     34999     34998     35000
     35001     35002     35001     35003     35004     35005     35004     35006
     35007     35008     35007     35009     35010     35011     35010     35012
     35013     35014     35013     35015     35016     35017     35016     35018
     35019     35020     35019     35021     35022     35023     35022     35024
     35025     35026     35025     35027     35028     35029     35028     35030
     35031     35032     35031     35033     35034     35035     35034     35036
     35037     35038     35037     35039     35040     35041     35040     35042
     35043     35044     35043     35045     35046     35047     35046     35048
     35049     35050     35049     35051     35052     35053     35052     35054
     35055     35056     35055     35057     35058     35059     35058     35060
     35061     35062     35061     35063     35064     35065     35064     35066
     35067     35068     35067     35069     35070     35071     35070     35072
     35073     35074     35073     35075     35076     35077     35076     35078
     35079     35080     35079     35081     35082     35083     35082     35084
     35085     35086     35085     35087     35088     35089     35088     35090
     35091     35092     35091     35093     35094     35095     35094     35096
     35097     35098     35097     35099     35100     35101     35100     35102
     35103     35104     35103     35105     35106     35107     35106     35108
     35109     35110     35109     35111     35112     35113     35112     35114
     35115     35116     35115     35117     35118     35119     35118     35120
     35121     35122     35121     35123     35124     35125     35124     35126
     35127     35128     35127     35129     35130     35131     35130     35132
     35133     35134     35133     35135     35136     35137     35136     35138
     35139     35140     35139     35141     35142     35143     35142     35144
     35145     35146     35145     35147     35148     35149     35148     35150
     35151     35152     35151     35153     35154     35155     35154     35156
     35157     35158     35157     35159     35160     35161     35160     35162
     35163     35164     35163     35165     35166     35167     35166     35168
     35169     35170     35169     35171     35172     35173     35172     35174
     35175     35176     35175     35177     35178     35179     35178     35180
     35181     35182     35181     35183     35184     35185     35184     35186
     35187     35188     35187     35189     35190     35191     35190     35192
     35193     35194     35193     35195     35196     35197     35196     35198
     35199     35200     35199     35201     35202     35203     35202     35204
     35205     35206     35205     35207     35208     35209     35208     35210
     35211     35212     35211     35213     35214     35215     35214     35216
     35217     35218     35217     35219     35220     35221     35220     35222
     35223     35224     35223     35225     35226     35227     35226     35228
     35229     35230     35229     35231     35232     35233     35232     35234
     35235     35236     35235     35237     35238     35239     35238     35240
     35241     35242     35241     35243     35244     35245     35244     35246
     35247     35248     35247     35249     35250     35251     35250     35252
     35253     35254     35253     35255     35256     35257     35256     35258
     35259     35260     35259     35261     35262     35263     35262     35264
     35265     35266     35265     35267     35268     35269     35268     35270
     35271     35272     35271     35273     35274     35275     35274     35276
     35277     35278     35277     35279     35280     35281     35280     35282
     35283     35284     35283     35285     35286     35287     35286     35288
     35289     35290     35289     35291     35292     35293     35292     35294
     35295     35296     35295     35297     35298     35299     35298     35300
     35301     35302     35301     35303     35304     35305     35304     35306
     35307     35308     35307     35309     35310     35311     35310     35312
     35313     35314     35313     35315     35316     35317     35316     35318
     35319     35320     35319     35321     35322     35323     35322     35324
     35325     35326     35325     35327     35328     35329     35328     35330
     35331     35332     35331     35333     35334     35335     35334     35336
     35337     35338     35337     35339     35340     35341     35340     35342
     35343     35344     35343     35345     35346     35347     35346     35348
     35349     35350     35349     35351     35352     35353     35352     35354
     35355     35356     35355     35357     35358     35359     35358     35360
     35361     35362     35361     35363     35364     35365     35364     35366
     35367     35368     35367     35369     35370     35371     35370     35372
     35373     35374     35373     35375     35376     35377     35376     35378
     35379     35380     35379     35381     35382     35383     35382     35384
     35385     35386     35385     35387     35388     35389     35388     35390
     35391     35392     35391     35393     35394     35395     35394     35396
     35397     35398     35397     35399     35400     35401     35400     35402
     35403     35404     35403     35405     35406     35407     35406     35408
     35409     35410     35409     35411     35412     35413     35412     35414
     35415     35416     35415     35417     35418     35419     35418     35420
     35421     35422     35421     35423     35424     35425     35424     35426
     35427     35428     35427     35429     35430     35431     35430     35432
     35433     35434     35433     35435     35436     35437     35436     35438
     35439     35440     35439     35441     35442     35443     35442     35444
     35445     35446     35445     35447     35448     35449     35448     35450
     35451     35452     35451     35453     35454     35455     35454     35456
     35457     35458     35457     35459     35460     35461     35460     35462
     35463     35464     35463     35465     35466     35467     35466     35468
     35469     35470     35469     35471     35472     35473     35472     35474
     35475     35476     35475     35477     35478     35479     35478     35480
     35481     35482     35481     35483     35484     35485     35484     35486
     35487     35488     35487     35489     35490     35491     35490     35492
     35493     35494     35493     35495     35496     35497     35496     35498
     35499     35500     35499     35501     35502     35503     35502     35504
     35505     35506     35505     35507     35508     35509     35508     35510
     35511     35512     35511     35513     35514     35515     35514     35516
     35517     35518     35517     35519     35520     35521     35520     35522
     35523     35524     35523     35525     35526     35527     35526     35528
     35529     35530     35529     35531     35532     35533     35532     35534
     35535     35536     35535     35537     35538     35539     35538     35540
     35541     35542     35541     35543     35544     35545     35544     35546
     35547     35548     35547     35549     35550     35551     35550     35552
     35553     35554     35553     35555     35556     35557     35556     35558
     35559     35560     35559     35561     35562     35563     35562     35564
     35565     35566     35565     35567     35568     35569     35568     35570
     35571     35572     35571     35573     35574     35575     35574     35576
     35577     35578     35577     35579     35580     35581     35580     35582
     35583     35584     35583     35585     35586     35587     35586     35588
     35589     35590     35589     35591     35592     35593     35592     35594
     35595     35596     35595     35597     35598     35599     35598     35600
     35601     35602     35601     35603     35604     35605     35604     35606
     35607     35608     35607     35609     35610     35611     35610     35612
     35613     35614     35613     35615     35616     35617     35616     35618
     35619     35620     35619     35621     35622     35623     35622     35624
     35625     35626     35625     35627     35628     35629     35628     35630
     35631     35632     35631     35633     35634     35635     35634     35636
     35637     35638     35637     35639     35640     35641     35640     35642
     35643     35644     35643     35645     35646     35647     35646     35648
     35649     35650     35649     35651     35652     35653     35652     35654
     35655     35656     35655     35657     35658     35659     35658     35660
     35661     35662     35661     35663     35664     35665     35664     35666
     35667     35668     35667     35669     35670     35671     35670     35672
     35673     35674     35673     35675     35676     35677     35676     35678
     35679     35680     35679     35681     35682     35683     35682     35684
     35685     35686     35685     35687     35688     35689     35688     35690
     35691     35692     35691     35693     35694     35695     35694     35696
     35697     35698     35697     35699     35700     35701     35700     35702
     35703     35704     35703     35705     35706     35707     35706     35708
     35709     35710     35709     35711     35712     35713     35712     35714
     35715     35716     35715     35717     35718     35719     35718     35720
     35721     35722     35721     35723     35724     35725     35724     35726
     35727     35728     35727     35729     35730     35731     35730     35732
     35733     35734     35733     35735     35736     35737     35736     35738
     35739     35740     35739     35741     35742     35743     35742     35744
     35745     35746     35745     35747     35748     35749     35748     35750
     35751     35752     35751     35753     35754     35755     35754     35756
     35757     35758     35757     35759     35760     35761     35760     35762
     35763     35764     35763     35765     35766     35767     35766     35768
     35769     35770     35769     35771     35772     35773     35772     35774
     35775     35776     35775     35777     35778     35779     35778     35780
     35781     35782     35781     35783     35784     35785     35784     35786
     35787     35788     35787     35789     35790     35791     35790     35792
     35793     35794     35793     35795     35796     35797     35796     35798
     35799     35800     35799     35801     35802     35803     35802     35804
     35805     35806     35805     35807     35808     35809     35808     35810
     35811     35812     35811     35813     35814     35815     35814     35816
     35817     35818     35817     35819     35820     35821     35820     35822
     35823     35824     35823     35825     35826     35827     35826     35828
     35829     35830     35829     35831     35832     35833     35832     35834
     35835     35836     35835     35837     35838     35839     35838     35840
     35841     35842     35841     35843     35844     35845     35844     35846
     35847     35848     35847     35849     35850     35851     35850     35852
     35853     35854     35853     35855     35856     35857     35856     35858
     35859     35860     35859     35861     35862     35863     35862     35864
     35865     35866     35865     35867     35868     35869     35868     35870
     35871     35872     35871     35873     35874     35875     35874     35876
     35877     35878     35877     35879     35880     35881     35880     35882
     35883     35884     35883     35885     35886     35887     35886     35888
     35889     35890     35889     35891     35892     35893     35892     35894
     35895     35896     35895     35897     35898     35899     35898     35900
     35901     35902     35901     35903     35904     35905     35904     35906
     35907     35908     35907     35909     35910     35911     35910     35912
     35913     35914     35913     35915     35916     35917     35916     35918
     35919     35920     35919     35921     35922     35923     35922     35924
     35925     35926     35925     35927     35928     35929     35928     35930
     35931     35932     35931     35933     35934     35935     35934     35936
     35937     35938     35937     35939     35940     35941     35940     35942
     35943     35944     35943     35945     35946     35947     35946     35948
     35949     35950     35949     35951     35952     35953     35952     35954
     35955     35956     35955     35957     35958     35959     35958     35960
     35961     35962     35961     35963     35964     35965     35964     35966
     35967     35968     35967     35969     35970     35971     35970     35972
     35973     35974     35973     35975     35976     35977     35976     35978
     35979     35980     35979     35981     35982     35983     35982     35984
     35985     35986     35985     35987     35988     35989     35988     35990
     35991     35992     35991     35993     35994     35995     35994     35996
     35997     35998     35997     35999     36000     36001     36000     36002
     36003     36004     36003     36005     36006     36007     36006     36008
     36009     36010     36009     36011     36012     36013     36012     36014
     36015     36016     36015     36017     36018     36019     36018     36020
     36021     36022     36021     36023     36024     36025     36024     36026
     36027     36028     36027     36029     36030     36031     36030     36032
     36033     36034     36033     36035     36036     36037     36036     36038
     36039     36040     36039     36041     36042     36043     36042     36044
     36045     36046     36045     36047     36048     36049     36048     36050
     36051     36052     36051     36053     36054     36055     36054     36056
     36057     36058     36057     36059     36060     36061     36060     36062
     36063     36064     36063     36065     36066     36067     36066     36068
     36069     36070     36069     36071     36072     36073     36072     36074
     36075     36076     36075     36077     36078     36079     36078     36080
     36081     36082     36081     36083     36084     36085     36084     36086
     36087     36088     36087     36089     36090     36091     36090     36092
     36093     36094     36093     36095     36096     36097     36096     36098
     36099     36100     36099     36101     36102     36103     36102     36104
     36105     36106     36105     36107     36108     36109     36108     36110
     36111     36112     36111     36113     36114     36115     36114     36116
     36117     36118     36117     36119     36120     36121     36120     36122
     36123     36124     36123     36125     36126     36127     36126     36128
     36129     36130     36129     36131     36132     36133     36132     36134
     36135     36136     36135     36137     36138     36139     36138     36140
     36141     36142     36141     36143     36144     36145     36144     36146
     36147     36148     36147     36149     36150     36151     36150     36152
     36153     36154     36153     36155     36156     36157     36156     36158
     36159     36160     36159     36161     36162     36163     36162     36164
     36165     36166     36165     36167     36168     36169     36168     36170
     36171     36172     36171     36173     36174     36175     36174     36176
     36177     36178     36177     36179     36180     36181     36180     36182
     36183     36184     36183     36185     36186     36187     36186     36188
     36189     36190     36189     36191     36192     36193     36192     36194
     36195     36196     36195     36197     36198     36199     36198     36200
     36201     36202     36201     36203     36204     36205     36204     36206
     36207     36208     36207     36209     36210     36211     36210     36212
     36213     36214     36213     36215     36216     36217     36216     36218
     36219     36220     36219     36221     36222     36223     36222     36224
     36225     36226     36225     36227     36228     36229     36228     36230
     36231     36232     36231     36233     36234     36235     36234     36236
     36237     36238     36237     36239     36240     36241     36240     36242
     36243     36244     36243     36245     36246     36247     36246     36248
     36249     36250     36249     36251     36252     36253     36252     36254
     36255     36256     36255     36257     36258     36259     36258     36260
     36261     36262     36261     36263     36264     36265     36264     36266
     36267     36268     36267     36269     36270     36271     36270     36272
     36273     36274     36273     36275     36276     36277     36276     36278
     36279     36280     36279     36281     36282     36283     36282     36284
     36285     36286     36285     36287     36288     36289     36288     36290
     36291     36292     36291     36293     36294     36295     36294     36296
     36297     36298     36297     36299     36300     36301     36300     36302
     36303     36304     36303     36305     36306     36307     36306     36308
     36309     36310     36309     36311     36312     36313     36312     36314
     36315     36316     36315     36317     36318     36319     36318     36320
     36321     36322     36321     36323     36324     36325     36324     36326
     36327     36328     36327     36329     36330     36331     36330     36332
     36333     36334     36333     36335     36336     36337     36336     36338
     36339     36340     36339     36341     36342     36343     36342     36344
     36345     36346     36345     36347     36348     36349     36348     36350
     36351     36352     36351     36353     36354     36355     36354     36356
     36357     36358     36357     36359     36360     36361     36360     36362
     36363     36364     36363     36365     36366     36367     36366     36368
     36369     36370     36369     36371     36372     36373     36372     36374
     36375     36376     36375     36377     36378     36379     36378     36380
     36381     36382     36381     36383     36384     36385     36384     36386
     36387     36388     36387     36389     36390     36391     36390     36392
     36393     36394     36393     36395     36396     36397     36396     36398
     36399     36400     36399     36401     36402     36403     36402     36404
     36405     36406     36405     36407     36408     36409     36408     36410
     36411     36412     36411     36413     36414     36415     36414     36416
     36417     36418     36417     36419     36420     36421     36420     36422
     36423     36424     36423     36425     36426     36427     36426     36428
     36429     36430     36429     36431     36432     36433     36432     36434
     36435     36436     36435     36437     36438     36439     36438     36440
     36441     36442     36441     36443     36444     36445     36444     36446
     36447     36448     36447     36449     36450     36451     36450     36452
     36453     36454     36453     36455     36456     36457     36456     36458
     36459     36460     36459     36461     36462     36463     36462     36464
     36465     36466     36465     36467     36468     36469     36468     36470
     36471     36472     36471     36473     36474     36475     36474     36476
     36477     36478     36477     36479     36480     36481     36480     36482
     36483     36484     36483     36485     36486     36487     36486     36488
     36489     36490     36489     36491     36492     36493     36492     36494
     36495     36496     36495     36497     36498     36499     36498     36500
     36501     36502     36501     36503     36504     36505     36504     36506
     36507     36508     36507     36509     36510     36511     36510     36512
     36513     36514     36513     36515     36516     36517     36516     36518
     36519     36520     36519     36521     36522     36523     36522     36524
     36525     36526     36525     36527     36528     36529     36528     36530
     36531     36532     36531     36533     36534     36535     36534     36536
     36537     36538     36537     36539     36540     36541     36540     36542
     36543     36544     36543     36545     36546     36547     36546     36548
     36549     36550     36549     36551     36552     36553     36552     36554
     36555     36556     36555     36557     36558     36559     36558     36560
     36561     36562     36561     36563     36564     36565     36564     36566
     36567     36568     36567     36569     36570     36571     36570     36572
     36573     36574     36573     36575     36576     36577     36576     36578
     36579     36580     36579     36581     36582     36583     36582     36584
     36585     36586     36585     36587     36588     36589     36588     36590
     36591     36592     36591     36593     36594     36595     36594     36596
     36597     36598     36597     36599     36600     36601     36600     36602
     36603     36604     36603     36605     36606     36607     36606     36608
     36609     36610     36609     36611     36612     36613     36612     36614
     36615     36616     36615     36617     36618     36619     36618     36620
     36621     36622     36621     36623     36624     36625     36624     36626
     36627     36628     36627     36629     36630     36631     36630     36632
     36633     36634     36633     36635     36636     36637     36636     36638
     36639     36640     36639     36641     36642     36643     36642     36644
     36645     36646     36645     36647     36648     36649     36648     36650
     36651     36652     36651     36653     36654     36655     36654     36656
     36657     36658     36657     36659     36660     36661     36660     36662
     36663     36664     36663     36665     36666     36667     36666     36668
     36669     36670     36669     36671     36672     36673     36672     36674
     36675     36676     36675     36677     36678     36679     36678     36680
     36681     36682     36681     36683     36684     36685     36684     36686
     36687     36688     36687     36689     36690     36691     36690     36692
     36693     36694     36693     36695     36696     36697     36696     36698
     36699     36700     36699     36701     36702     36703     36702     36704
     36705     36706     36705     36707     36708     36709     36708     36710
     36711     36712     36711     36713     36714     36715     36714     36716
     36717     36718     36717     36719     36720     36721     36720     36722
     36723     36724     36723     36725     36726     36727     36726     36728
     36729     36730     36729     36731     36732     36733     36732     36734
     36735     36736     36735     36737     36738     36739     36738     36740
     36741     36742     36741     36743     36744     36745     36744     36746
     36747     36748     36747     36749     36750     36751     36750     36752
     36753     36754     36753     36755     36756     36757     36756     36758
     36759     36760     36759     36761     36762     36763     36762     36764
     36765     36766     36765     36767     36768     36769     36768     36770
     36771     36772     36771     36773     36774     36775     36774     36776
     36777     36778     36777     36779     36780     36781     36780     36782
     36783     36784     36783     36785     36786     36787     36786     36788
     36789     36790     36789     36791     36792     36793     36792     36794
     36795     36796     36795     36797     36798     36799     36798     36800
     36801     36802     36801     36803     36804     36805     36804     36806
     36807     36808     36807     36809     36810     36811     36810     36812
     36813     36814     36813     36815     36816     36817     36816     36818
     36819     36820     36819     36821     36822     36823     36822     36824
     36825     36826     36825     36827     36828     36829     36828     36830
     36831     36832     36831     36833     36834     36835     36834     36836
     36837     36838     36837     36839     36840     36841     36840     36842
     36843     36844     36843     36845     36846     36847     36846     36848
     36849     36850     36849     36851     36852     36853     36852     36854
     36855     36856     36855     36857     36858     36859     36858     36860
     36861     36862     36861     36863     36864     36865     36864     36866
     36867     36868     36867     36869     36870     36871     36870     36872
     36873     36874     36873     36875     36876     36877     36876     36878
     36879     36880     36879     36881     36882     36883     36882     36884
     36885     36886     36885     36887     36888     36889     36888     36890
     36891     36892     36891     36893     36894     36895     36894     36896
     36897     36898     36897     36899     36900     36901     36900     36902
     36903     36904     36903     36905     36906     36907     36906     36908
     36909     36910     36909     36911     36912     36913     36912     36914
     36915     36916     36915     36917     36918     36919     36918     36920
     36921     36922     36921     36923     36924     36925     36924     36926
     36927     36928     36927     36929     36930     36931     36930     36932
     36933     36934     36933     36935     36936     36937     36936     36938
     36939     36940     36939     36941     36942     36943     36942     36944
     36945     36946     36945     36947     36948     36949     36948     36950
     36951     36952     36951     36953     36954     36955     36954     36956
     36957     36958     36957     36959     36960     36961     36960     36962
     36963     36964     36963     36965     36966     36967     36966     36968
     36969     36970     36969     36971     36972     36973     36972     36974
     36975     36976     36975     36977     36978     36979     36978     36980
     36981     36982     36981     36983     36984     36985     36984     36986
     36987     36988     36987     36989     36990     36991     36990     36992
     36993     36994     36993     36995     36996     36997     36996     36998
     36999     37000     36999     37001     37002     37003     37002     37004
     37005     37006     37005     37007     37008     37009     37008     37010
     37011     37012     37011     37013     37014     37015     37014     37016
     37017     37018     37017     37019     37020     37021     37020     37022
     37023     37024     37023     37025     37026     37027     37026     37028
     37029     37030     37029     37031     37032     37033     37032     37034
     37035     37036     37035     37037     37038     37039     37038     37040
     37041     37042     37041     37043     37044     37045     37044     37046
     37047     37048     37047     37049     37050     37051     37050     37052
     37053     37054     37053     37055     37056     37057     37056     37058
     37059     37060     37059     37061     37062     37063     37062     37064
     37065     37066     37065     37067     37068     37069     37068     37070
     37071     37072     37071     37073     37074     37075     37074     37076
     37077     37078     37077     37079     37080     37081     37080     37082
     37083     37084     37083     37085     37086     37087     37086     37088
     37089     37090     37089     37091     37092     37093     37092     37094
     37095     37096     37095     37097     37098     37099     37098     37100
     37101     37102     37101     37103     37104     37105     37104     37106
     37107     37108     37107     37109     37110     37111     37110     37112
     37113     37114     37113     37115     37116     37117     37116     37118
     37119     37120     37119     37121     37122     37123     37122     37124
     37125     37126     37125     37127     37128     37129     37128     37130
     37131     37132     37131     37133     37134     37135     37134     37136
     37137     37138     37137     37139     37140     37141     37140     37142
     37143     37144     37143     37145     37146     37147     37146     37148
     37149     37150     37149     37151     37152     37153     37152     37154
     37155     37156     37155     37157     37158     37159     37158     37160
     37161     37162     37161     37163     37164     37165     37164     37166
     37167     37168     37167     37169     37170     37171     37170     37172
     37173     37174     37173     37175     37176     37177     37176     37178
     37179     37180     37179     37181     37182     37183     37182     37184
     37185     37186     37185     37187     37188     37189     37188     37190
     37191     37192     37191     37193     37194     37195     37194     37196
     37197     37198     37197     37199     37200     37201     37200     37202
     37203     37204     37203     37205     37206     37207     37206     37208
     37209     37210     37209     37211     37212     37213     37212     37214
     37215     37216     37215     37217     37218     37219     37218     37220
     37221     37222     37221     37223     37224     37225     37224     37226
     37227     37228     37227     37229     37230     37231     37230     37232
     37233     37234     37233     37235     37236     37237     37236     37238
     37239     37240     37239     37241     37242     37243     37242     37244
     37245     37246     37245     37247     37248     37249     37248     37250
     37251     37252     37251     37253     37254     37255     37254     37256
     37257     37258     37257     37259     37260     37261     37260     37262
     37263     37264     37263     37265     37266     37267     37266     37268
     37269     37270     37269     37271     37272     37273     37272     37274
     37275     37276     37275     37277     37278     37279     37278     37280
     37281     37282     37281     37283     37284     37285     37284     37286
     37287     37288     37287     37289     37290     37291     37290     37292
     37293     37294     37293     37295     37296     37297     37296     37298
     37299     37300     37299     37301     37302     37303     37302     37304
     37305     37306     37305     37307     37308     37309     37308     37310
     37311     37312     37311     37313     37314     37315     37314     37316
     37317     37318     37317     37319     37320     37321     37320     37322
     37323     37324     37323     37325     37326     37327     37326     37328
     37329     37330     37329     37331     37332     37333     37332     37334
     37335     37336     37335     37337     37338     37339     37338     37340
     37341     37342     37341     37343     37344     37345     37344     37346
     37347     37348     37347     37349     37350     37351     37350     37352
     37353     37354     37353     37355     37356     37357     37356     37358
     37359     37360     37359     37361     37362     37363     37362     37364
     37365     37366     37365     37367     37368     37369     37368     37370
     37371     37372     37371     37373     37374     37375     37374     37376
     37377     37378     37377     37379     37380     37381     37380     37382
     37383     37384     37383     37385     37386     37387     37386     37388
     37389     37390     37389     37391     37392     37393     37392     37394
     37395     37396     37395     37397     37398     37399     37398     37400
     37401     37402     37401     37403     37404     37405     37404     37406
     37407     37408     37407     37409     37410     37411     37410     37412
     37413     37414     37413     37415     37416     37417     37416     37418
     37419     37420     37419     37421     37422     37423     37422     37424
     37425     37426     37425     37427     37428     37429     37428     37430
     37431     37432     37431     37433     37434     37435     37434     37436
     37437     37438     37437     37439     37440     37441     37440     37442
     37443     37444     37443     37445     37446     37447     37446     37448
     37449     37450     37449     37451     37452     37453     37452     37454
     37455     37456     37455     37457     37458     37459     37458     37460
     37461     37462     37461     37463     37464     37465     37464     37466
     37467     37468     37467     37469     37470     37471     37470     37472
     37473     37474     37473     37475     37476     37477     37476     37478
     37479     37480     37479     37481     37482     37483     37482     37484
     37485     37486     37485     37487     37488     37489     37488     37490
     37491     37492     37491     37493     37494     37495     37494     37496
     37497     37498     37497     37499     37500     37501     37500     37502
     37503     37504     37503     37505     37506     37507     37506     37508
     37509     37510     37509     37511     37512     37513     37512     37514
     37515     37516     37515     37517     37518     37519     37518     37520
     37521     37522     37521     37523     37524     37525     37524     37526
     37527     37528     37527     37529     37530     37531     37530     37532
     37533     37534     37533     37535     37536     37537     37536     37538
     37539     37540     37539     37541     37542     37543     37542     37544
     37545     37546     37545     37547     37548     37549     37548     37550
     37551     37552     37551     37553     37554     37555     37554     37556
     37557     37558     37557     37559     37560     37561     37560     37562
     37563     37564     37563     37565     37566     37567     37566     37568
     37569     37570     37569     37571     37572     37573     37572     37574
     37575     37576     37575     37577     37578     37579     37578     37580
     37581     37582     37581     37583     37584     37585     37584     37586
     37587     37588     37587     37589     37590     37591     37590     37592
     37593     37594     37593     37595     37596     37597     37596     37598
     37599     37600     37599     37601     37602     37603     37602     37604
     37605     37606     37605     37607     37608     37609     37608     37610
     37611     37612     37611     37613     37614     37615     37614     37616
     37617     37618     37617     37619     37620     37621     37620     37622
     37623     37624     37623     37625     37626     37627     37626     37628
     37629     37630     37629     37631     37632     37633     37632     37634
     37635     37636     37635     37637     37638     37639     37638     37640
     37641     37642     37641     37643     37644     37645     37644     37646
     37647     37648     37647     37649     37650     37651     37650     37652
     37653     37654     37653     37655     37656     37657     37656     37658
     37659     37660     37659     37661     37662     37663     37662     37664
     37665     37666     37665     37667     37668     37669     37668     37670
     37671     37672     37671     37673     37674     37675     37674     37676
     37677     37678     37677     37679     37680     37681     37680     37682
     37683     37684     37683     37685     37686     37687     37686     37688
     37689     37690     37689     37691     37692     37693     37692     37694
     37695     37696     37695     37697     37698     37699     37698     37700
     37701     37702     37701     37703     37704     37705     37704     37706
     37707     37708     37707     37709     37710     37711     37710     37712
     37713     37714     37713     37715     37716     37717     37716     37718
     37719     37720     37719     37721     37722     37723     37722     37724
     37725     37726     37725     37727     37728     37729     37728     37730
     37731     37732     37731     37733     37734     37735     37734     37736
     37737     37738     37737     37739     37740     37741     37740     37742
     37743     37744     37743     37745     37746     37747     37746     37748
     37749     37750     37749     37751     37752     37753     37752     37754
     37755     37756     37755     37757     37758     37759     37758     37760
     37761     37762     37761     37763     37764     37765     37764     37766
     37767     37768     37767     37769     37770     37771     37770     37772
     37773     37774     37773     37775     37776     37777     37776     37778
     37779     37780     37779     37781     37782     37783     37782     37784
     37785     37786     37785     37787     37788     37789     37788     37790
     37791     37792     37791     37793     37794     37795     37794     37796
     37797     37798     37797     37799     37800     37801     37800     37802
     37803     37804     37803     37805     37806     37807     37806     37808
     37809     37810     37809     37811     37812     37813     37812     37814
     37815     37816     37815     37817     37818     37819     37818     37820
     37821     37822     37821     37823     37824     37825     37824     37826
     37827     37828     37827     37829     37830     37831     37830     37832
     37833     37834     37833     37835     37836     37837     37836     37838
     37839     37840     37839     37841     37842     37843     37842     37844
     37845     37846     37845     37847     37848     37849     37848     37850
     37851     37852     37851     37853     37854     37855     37854     37856
     37857     37858     37857     37859     37860     37861     37860     37862
     37863     37864     37863     37865     37866     37867     37866     37868
     37869     37870     37869     37871     37872     37873     37872     37874
     37875     37876     37875     37877     37878     37879     37878     37880
     37881     37882     37881     37883     37884     37885     37884     37886
     37887     37888     37887     37889     37890     37891     37890     37892
     37893     37894     37893     37895     37896     37897     37896     37898
     37899     37900     37899     37901     37902     37903     37902     37904
     37905     37906     37905     37907     37908     37909     37908     37910
     37911     37912     37911     37913     37914     37915     37914     37916
     37917     37918     37917     37919     37920     37921     37920     37922
     37923     37924     37923     37925     37926     37927     37926     37928
     37929     37930     37929     37931     37932     37933     37932     37934
     37935     37936     37935     37937     37938     37939     37938     37940
     37941     37942     37941     37943     37944     37945     37944     37946
     37947     37948     37947     37949     37950     37951     37950     37952
     37953     37954     37953     37955     37956     37957     37956     37958
     37959     37960     37959     37961     37962     37963     37962     37964
     37965     37966     37965     37967     37968     37969     37968     37970
     37971     37972     37971     37973     37974     37975     37974     37976
     37977     37978     37977     37979     37980     37981     37980     37982
     37983     37984     37983     37985     37986     37987     37986     37988
     37989     37990     37989     37991     37992     37993     37992     37994
     37995     37996     37995     37997     37998     37999     37998     38000
     38001     38002     38001     38003     38004     38005     38004     38006
     38007     38008     38007     38009     38010     38011     38010     38012
     38013     38014     38013     38015     38016     38017     38016     38018
     38019     38020     38019     38021     38022     38023     38022     38024
     38025     38026     38025     38027     38028     38029     38028     38030
     38031     38032     38031     38033     38034     38035     38034     38036
     38037     38038     38037     38039     38040     38041     38040     38042
     38043     38044     38043     38045     38046     38047     38046     38048
     38049     38050     38049     38051     38052     38053     38052     38054
     38055     38056     38055     38057     38058     38059     38058     38060
     38061     38062     38061     38063     38064     38065     38064     38066
     38067     38068     38067     38069     38070     38071     38070     38072
     38073     38074     38073     38075     38076     38077     38076     38078
     38079     38080     38079     38081     38082     38083     38082     38084
     38085     38086     38085     38087     38088     38089     38088     38090
     38091     38092     38091     38093     38094     38095     38094     38096
     38097     38098     38097     38099     38100     38101     38100     38102
     38103     38104     38103     38105     38106     38107     38106     38108
     38109     38110     38109     38111     38112     38113     38112     38114
     38115     38116     38115     38117     38118     38119     38118     38120
     38121     38122     38121     38123     38124     38125     38124     38126
     38127     38128     38127     38129     38130     38131     38130     38132
     38133     38134     38133     38135     38136     38137     38136     38138
     38139     38140     38139     38141     38142     38143     38142     38144
     38145     38146     38145     38147     38148     38149     38148     38150
     38151     38152     38151     38153     38154     38155     38154     38156
     38157     38158     38157     38159     38160     38161     38160     38162
     38163     38164     38163     38165     38166     38167     38166     38168
     38169     38170     38169     38171     38172     38173     38172     38174
     38175     38176     38175     38177     38178     38179     38178     38180
     38181     38182     38181     38183     38184     38185     38184     38186
     38187     38188     38187     38189     38190     38191     38190     38192
     38193     38194     38193     38195     38196     38197     38196     38198
     38199     38200     38199     38201     38202     38203     38202     38204
     38205     38206     38205     38207     38208     38209     38208     38210
     38211     38212     38211     38213     38214     38215     38214     38216
     38217     38218     38217     38219     38220     38221     38220     38222
     38223     38224     38223     38225     38226     38227     38226     38228
     38229     38230     38229     38231     38232     38233     38232     38234
     38235     38236     38235     38237     38238     38239     38238     38240
     38241     38242     38241     38243     38244     38245     38244     38246
     38247     38248     38247     38249     38250     38251     38250     38252
     38253     38254     38253     38255     38256     38257     38256     38258
     38259     38260     38259     38261     38262     38263     38262     38264
     38265     38266     38265     38267     38268     38269     38268     38270
     38271     38272     38271     38273     38274     38275     38274     38276
     38277     38278     38277     38279     38280     38281     38280     38282
     38283     38284     38283     38285     38286     38287     38286     38288
     38289     38290     38289     38291     38292     38293     38292     38294
     38295     38296     38295     38297     38298     38299     38298     38300
     38301     38302     38301     38303     38304     38305     38304     38306
     38307     38308     38307     38309     38310     38311     38310     38312
     38313     38314     38313     38315     38316     38317     38316     38318
     38319     38320     38319     38321     38322     38323     38322     38324
     38325     38326     38325     38327     38328     38329     38328     38330

      6568 !NACC: acceptors
         9         8        19        18        38        37        48        47
        64        63        80        79        96        95       120       119
       139       138       163       162       182       181       206       205
       225       224       249       248       250       248       259       258
       269       268       288       287       298       297       314       313
       330       329       346       345       370       369       389       388
       413       412       432       431       456       455       475       474
       499       498       500       498     18717     18716     18720     18716
     18723     18716     18726     18716     18729     18716     18732     18716
     18735     18716     18738     18716     18741     18716     18744     18716
     18747     18716     18750     18716     18753     18716     18756     18716
     18759     18716     18762     18716     18765     18716     18768     18716
     18771     18716     18774     18716     18777     18716     18780     18716
     18783     18716     18786     18716     18789     18716     18792     18716
     18795     18716     18798     18716     18801     18716     18804     18716
     18807     18716     18810     18716     18813     18716     18816     18716
     18819     18716     18822     18716     18825     18716     18828     18716
     18831     18716     18834     18716     18837     18716     18840     18716
     18843     18716     18846     18716     18849     18716     18852     18716
     18855     18716     18858     18716     18861     18716     18864     18716
     18867     18716     18870     18716     18873     18716     18876     18716
     18879     18716     18882     18716     18885     18716     18888     18716
     18891     18716     18894     18716     18897     18716     18900     18716
     18903     18716     18906     18716     18909     18716     18912     18716
     18915     18716     18918     18716     18921     18716     18924     18716
     18927     18716     18930     18716     18933     18716     18936     18716
     18939     18716     18942     18716     18945     18716     18948     18716
     18951     18716     18954     18716     18957     18716     18960     18716
     18963     18716     18966     18716     18969     18716     18972     18716
     18975     18716     18978     18716     18981     18716     18984     18716
     18987     18716     18990     18716     18993     18716     18996     18716
     18999     18716     19002     18716     19005     18716     19008     18716
     19011     18716     19014     18716     19017     18716     19020     18716
     19023     18716     19026     18716     19029     18716     19032     18716
     19035     18716     19038     18716     19041     18716     19044     18716
     19047     18716     19050     18716     19053     18716     19056     18716
     19059     18716     19062     18716     19065     18716     19068     18716
     19071     18716     19074     18716     19077     18716     19080     18716
     19083     18716     19086     18716     19089     18716     19092     18716
     19095     18716     19098     18716     19101     18716     19104     18716
     19107     18716     19110     18716     19113     18716     19116     18716
     19119     18716     19122     18716     19125     18716     19128     18716
     19131     18716     19134     18716     19137     18716     19140     18716
     19143     18716     19146     18716     19149     18716     19152     18716
     19155     18716     19158     18716     19161     18716     19164     18716
     19167     18716     19170     18716     19173     18716     19176     18716
     19179     18716     19182     18716     19185     18716     19188     18716
     19191     18716     19194     18716     19197     18716     19200     18716
     19203     18716     19206     18716     19209     18716     19212     18716
     19215     18716     19218     18716     19221     18716     19224     18716
     19227     18716     19230     18716     19233     18716     19236     18716
     19239     18716     19242     18716     19245     18716     19248     18716
     19251     18716     19254     18716     19257     18716     19260     18716
     19263     18716     19266     18716     19269     18716     19272     18716
     19275     18716     19278     18716     19281     18716     19284     18716
     19287     18716     19290     18716     19293     18716     19296     18716
     19299     18716     19302     18716     19305     18716     19308     18716
     19311     18716     19314     18716     19317     18716     19320     18716
     19323     18716     19326     18716     19329     18716     19332     18716
     19335     18716     19338     18716     19341     18716     19344     18716
     19347     18716     19350     18716     19353     18716     19356     18716
     19359     18716     19362     18716     19365     18716     19368     18716
     19371     18716     19374     18716     19377     18716     19380     18716
     19383     18716     19386     18716     19389     18716     19392     18716
     19395     18716     19398     18716     19401     18716     19404     18716
     19407     18716     19410     18716     19413     18716     19416     18716
     19419     18716     19422     18716     19425     18716     19428     18716
     19431     18716     19434     18716     19437     18716     19440     18716
     19443     18716     19446     18716     19449     18716     19452     18716
     19455     18716     19458     18716     19461     18716     19464     18716
     19467     18716     19470     18716     19473     18716     19476     18716
     19479     18716     19482     18716     19485     18716     19488     18716
     19491     18716     19494     18716     19497     18716     19500     18716
     19503     18716     19506     18716     19509     18716     19512     18716
     19515     18716     19518     18716     19521     18716     19524     18716
     19527     18716     19530     18716     19533     18716     19536     18716
     19539     18716     19542     18716     19545     18716     19548     18716
     19551     18716     19554     18716     19557     18716     19560     18716
     19563     18716     19566     18716     19569     18716     19572     18716
     19575     18716     19578     18716     19581     18716     19584     18716
     19587     18716     19590     18716     19593     18716     19596     18716
     19599     18716     19602     18716     19605     18716     19608     18716
     19611     18716     19614     18716     19617     18716     19620     18716
     19623     18716     19626     18716     19629     18716     19632     18716
     19635     18716     19638     18716     19641     18716     19644     18716
     19647     18716     19650     18716     19653     18716     19656     18716
     19659     18716     19662     18716     19665     18716     19668     18716
     19671     18716     19674     18716     19677     18716     19680     18716
     19683     18716     19686     18716     19689     18716     19692     18716
     19695     18716     19698     18716     19701     18716     19704     18716
     19707     18716     19710     18716     19713     18716     19716     18716
     19719     18716     19722     18716     19725     18716     19728     18716
     19731     18716     19734     18716     19737     18716     19740     18716
     19743     18716     19746     18716     19749     18716     19752     18716
     19755     18716     19758     18716     19761     18716     19764     18716
     19767     18716     19770     18716     19773     18716     19776     18716
     19779     18716     19782     18716     19785     18716     19788     18716
     19791     18716     19794     18716     19797     18716     19800     18716
     19803     18716     19806     18716     19809     18716     19812     18716
     19815     18716     19818     18716     19821     18716     19824     18716
     19827     18716     19830     18716     19833     18716     19836     18716
     19839     18716     19842     18716     19845     18716     19848     18716
     19851     18716     19854     18716     19857     18716     19860     18716
     19863     18716     19866     18716     19869     18716     19872     18716
     19875     18716     19878     18716     19881     18716     19884     18716
     19887     18716     19890     18716     19893     18716     19896     18716
     19899     18716     19902     18716     19905     18716     19908     18716
     19911     18716     19914     18716     19917     18716     19920     18716
     19923     18716     19926     18716     19929     18716     19932     18716
     19935     18716     19938     18716     19941     18716     19944     18716
     19947     18716     19950     18716     19953     18716     19956     18716
     19959     18716     19962     18716     19965     18716     19968     18716
     19971     18716     19974     18716     19977     18716     19980     18716
     19983     18716     19986     18716     19989     18716     19992     18716
     19995     18716     19998     18716     20001     18716     20004     18716
     20007     18716     20010     18716     20013     18716     20016     18716
     20019     18716     20022     18716     20025     18716     20028     18716
     20031     18716     20034     18716     20037     18716     20040     18716
     20043     18716     20046     18716     20049     18716     20052     18716
     20055     18716     20058     18716     20061     18716     20064     18716
     20067     18716     20070     18716     20073     18716     20076     18716
     20079     18716     20082     18716     20085     18716     20088     18716
     20091     18716     20094     18716     20097     18716     20100     18716
     20103     18716     20106     18716     20109     18716     20112     18716
     20115     18716     20118     18716     20121     18716     20124     18716
     20127     18716     20130     18716     20133     18716     20136     18716
     20139     18716     20142     18716     20145     18716     20148     18716
     20151     18716     20154     18716     20157     18716     20160     18716
     20163     18716     20166     18716     20169     18716     20172     18716
     20175     18716     20178     18716     20181     18716     20184     18716
     20187     18716     20190     18716     20193     18716     20196     18716
     20199     18716     20202     18716     20205     18716     20208     18716
     20211     18716     20214     18716     20217     18716     20220     18716
     20223     18716     20226     18716     20229     18716     20232     18716
     20235     18716     20238     18716     20241     18716     20244     18716
     20247     18716     20250     18716     20253     18716     20256     18716
     20259     18716     20262     18716     20265     18716     20268     18716
     20271     18716     20274     18716     20277     18716     20280     18716
     20283     18716     20286     18716     20289     18716     20292     18716
     20295     18716     20298     18716     20301     18716     20304     18716
     20307     18716     20310     18716     20313     18716     20316     18716
     20319     18716     20322     18716     20325     18716     20328     18716
     20331     18716     20334     18716     20337     18716     20340     18716
     20343     18716     20346     18716     20349     18716     20352     18716
     20355     18716     20358     18716     20361     18716     20364     18716
     20367     18716     20370     18716     20373     18716     20376     18716
     20379     18716     20382     18716     20385     18716     20388     18716
     20391     18716     20394     18716     20397     18716     20400     18716
     20403     18716     20406     18716     20409     18716     20412     18716
     20415     18716     20418     18716     20421     18716     20424     18716
     20427     18716     20430     18716     20433     18716     20436     18716
     20439     18716     20442     18716     20445     18716     20448     18716
     20451     18716     20454     18716     20457     18716     20460     18716
     20463     18716     20466     18716     20469     18716     20472     18716
     20475     18716     20478     18716     20481     18716     20484     18716
     20487     18716     20490     18716     20493     18716     20496     18716
     20499     18716     20502     18716     20505     18716     20508     18716
     20511     18716     20514     18716     20517     18716     20520     18716
     20523     18716     20526     18716     20529     18716     20532     18716
     20535     18716     20538     18716     20541     18716     20544     18716
     20547     18716     20550     18716     20553     18716     20556     18716
     20559     18716     20562     18716     20565     18716     20568     18716
     20571     18716     20574     18716     20577     18716     20580     18716
     20583     18716     20586     18716     20589     18716     20592     18716
     20595     18716     20598     18716     20601     18716     20604     18716
     20607     18716     20610     18716     20613     18716     20616     18716
     20619     18716     20622     18716     20625     18716     20628     18716
     20631     18716     20634     18716     20637     18716     20640     18716
     20643     18716     20646     18716     20649     18716     20652     18716
     20655     18716     20658     18716     20661     18716     20664     18716
     20667     18716     20670     18716     20673     18716     20676     18716
     20679     18716     20682     18716     20685     18716     20688     18716
     20691     18716     20694     18716     20697     18716     20700     18716
     20703     18716     20706     18716     20709     18716     20712     18716
     20715     18716     20718     18716     20721     18716     20724     18716
     20727     18716     20730     18716     20733     18716     20736     18716
     20739     18716     20742     18716     20745     18716     20748     18716
     20751     18716     20754     18716     20757     18716     20760     18716
     20763     18716     20766     18716     20769     18716     20772     18716
     20775     18716     20778     18716     20781     18716     20784     18716
     20787     18716     20790     18716     20793     18716     20796     18716
     20799     18716     20802     18716     20805     18716     20808     18716
     20811     18716     20814     18716     20817     18716     20820     18716
     20823     18716     20826     18716     20829     18716     20832     18716
     20835     18716     20838     18716     20841     18716     20844     18716
     20847     18716     20850     18716     20853     18716     20856     18716
     20859     18716     20862     18716     20865     18716     20868     18716
     20871     18716     20874     18716     20877     18716     20880     18716
     20883     18716     20886     18716     20889     18716     20892     18716
     20895     18716     20898     18716     20901     18716     20904     18716
     20907     18716     20910     18716     20913     18716     20916     18716
     20919     18716     20922     18716     20925     18716     20928     18716
     20931     18716     20934     18716     20937     18716     20940     18716
     20943     18716     20946     18716     20949     18716     20952     18716
     20955     18716     20958     18716     20961     18716     20964     18716
     20967     18716     20970     18716     20973     18716     20976     18716
     20979     18716     20982     18716     20985     18716     20988     18716
     20991     18716     20994     18716     20997     18716     21000     18716
     21003     18716     21006     18716     21009     18716     21012     18716
     21015     18716     21018     18716     21021     18716     21024     18716
     21027     18716     21030     18716     21033     18716     21036     18716
     21039     18716     21042     18716     21045     18716     21048     18716
     21051     18716     21054     18716     21057     18716     21060     18716
     21063     18716     21066     18716     21069     18716     21072     18716
     21075     18716     21078     18716     21081     18716     21084     18716
     21087     18716     21090     18716     21093     18716     21096     18716
     21099     18716     21102     18716     21105     18716     21108     18716
     21111     18716     21114     18716     21117     18716     21120     18716
     21123     18716     21126     18716     21129     18716     21132     18716
     21135     18716     21138     18716     21141     18716     21144     18716
     21147     18716     21150     18716     21153     18716     21156     18716
     21159     18716     21162     18716     21165     18716     21168     18716
     21171     18716     21174     18716     21177     18716     21180     18716
     21183     18716     21186     18716     21189     18716     21192     18716
     21195     18716     21198     18716     21201     18716     21204     18716
     21207     18716     21210     18716     21213     18716     21216     18716
     21219     18716     21222     18716     21225     18716     21228     18716
     21231     18716     21234     18716     21237     18716     21240     18716
     21243     18716     21246     18716     21249     18716     21252     18716
     21255     18716     21258     18716     21261     18716     21264     18716
     21267     18716     21270     18716     21273     18716     21276     18716
     21279     18716     21282     18716     21285     18716     21288     18716
     21291     18716     21294     18716     21297     18716     21300     18716
     21303     18716     21306     18716     21309     18716     21312     18716
     21315     18716     21318     18716     21321     18716     21324     18716
     21327     18716     21330     18716     21333     18716     21336     18716
     21339     18716     21342     18716     21345     18716     21348     18716
     21351     18716     21354     18716     21357     18716     21360     18716
     21363     18716     21366     18716     21369     18716     21372     18716
     21375     18716     21378     18716     21381     18716     21384     18716
     21387     18716     21390     18716     21393     18716     21396     18716
     21399     18716     21402     18716     21405     18716     21408     18716
     21411     18716     21414     18716     21417     18716     21420     18716
     21423     18716     21426     18716     21429     18716     21432     18716
     21435     18716     21438     18716     21441     18716     21444     18716
     21447     18716     21450     18716     21453     18716     21456     18716
     21459     18716     21462     18716     21465     18716     21468     18716
     21471     18716     21474     18716     21477     18716     21480     18716
     21483     18716     21486     18716     21489     18716     21492     18716
     21495     18716     21498     18716     21501     18716     21504     18716
     21507     18716     21510     18716     21513     18716     21516     18716
     21519     18716     21522     18716     21525     18716     21528     18716
     21531     18716     21534     18716     21537     18716     21540     18716
     21543     18716     21546     18716     21549     18716     21552     18716
     21555     18716     21558     18716     21561     18716     21564     18716
     21567     18716     21570     18716     21573     18716     21576     18716
     21579     18716     21582     18716     21585     18716     21588     18716
     21591     18716     21594     18716     21597     18716     21600     18716
     21603     18716     21606     18716     21609     18716     21612     18716
     21615     18716     21618     18716     21621     18716     21624     18716
     21627     18716     21630     18716     21633     18716     21636     18716
     21639     18716     21642     18716     21645     18716     21648     18716
     21651     18716     21654     18716     21657     18716     21660     18716
     21663     18716     21666     18716     21669     18716     21672     18716
     21675     18716     21678     18716     21681     18716     21684     18716
     21687     18716     21690     18716     21693     18716     21696     18716
     21699     18716     21702     18716     21705     18716     21708     18716
     21711     18716     21714     18716     21717     18716     21720     18716
     21723     18716     21726     18716     21729     18716     21732     18716
     21735     18716     21738     18716     21741     18716     21744     18716
     21747     18716     21750     18716     21753     18716     21756     18716
     21759     18716     21762     18716     21765     18716     21768     18716
     21771     18716     21774     18716     21777     18716     21780     18716
     21783     18716     21786     18716     21789     18716     21792     18716
     21795     18716     21798     18716     21801     18716     21804     18716
     21807     18716     21810     18716     21813     18716     21816     18716
     21819     18716     21822     18716     21825     18716     21828     18716
     21831     18716     21834     18716     21837     18716     21840     18716
     21843     18716     21846     18716     21849     18716     21852     18716
     21855     18716     21858     18716     21861     18716     21864     18716
     21867     18716     21870     18716     21873     18716     21876     18716
     21879     18716     21882     18716     21885     18716     21888     18716
     21891     18716     21894     18716     21897     18716     21900     18716
     21903     18716     21906     18716     21909     18716     21912     18716
     21915     18716     21918     18716     21921     18716     21924     18716
     21927     18716     21930     18716     21933     18716     21936     18716
     21939     18716     21942     18716     21945     18716     21948     18716
     21951     18716     21954     18716     21957     18716     21960     18716
     21963     18716     21966     18716     21969     18716     21972     18716
     21975     18716     21978     18716     21981     18716     21984     18716
     21987     18716     21990     18716     21993     18716     21996     18716
     21999     18716     22002     18716     22005     18716     22008     18716
     22011     18716     22014     18716     22017     18716     22020     18716
     22023     18716     22026     18716     22029     18716     22032     18716
     22035     18716     22038     18716     22041     18716     22044     18716
     22047     18716     22050     18716     22053     18716     22056     18716
     22059     18716     22062     18716     22065     18716     22068     18716
     22071     18716     22074     18716     22077     18716     22080     18716
     22083     18716     22086     18716     22089     18716     22092     18716
     22095     18716     22098     18716     22101     18716     22104     18716
     22107     18716     22110     18716     22113     18716     22116     18716
     22119     18716     22122     18716     22125     18716     22128     18716
     22131     18716     22134     18716     22137     18716     22140     18716
     22143     18716     22146     18716     22149     18716     22152     18716
     22155     18716     22158     18716     22161     18716     22164     18716
     22167     18716     22170     18716     22173     18716     22176     18716
     22179     18716     22182     18716     22185     18716     22188     18716
     22191     18716     22194     18716     22197     18716     22200     18716
     22203     18716     22206     18716     22209     18716     22212     18716
     22215     18716     22218     18716     22221     18716     22224     18716
     22227     18716     22230     18716     22233     18716     22236     18716
     22239     18716     22242     18716     22245     18716     22248     18716
     22251     18716     22254     18716     22257     18716     22260     18716
     22263     18716     22266     18716     22269     18716     22272     18716
     22275     18716     22278     18716     22281     18716     22284     18716
     22287     18716     22290     18716     22293     18716     22296     18716
     22299     18716     22302     18716     22305     18716     22308     18716
     22311     18716     22314     18716     22317     18716     22320     18716
     22323     18716     22326     18716     22329     18716     22332     18716
     22335     18716     22338     18716     22341     18716     22344     18716
     22347     18716     22350     18716     22353     18716     22356     18716
     22359     18716     22362     18716     22365     18716     22368     18716
     22371     18716     22374     18716     22377     18716     22380     18716
     22383     18716     22386     18716     22389     18716     22392     18716
     22395     18716     22398     18716     22401     18716     22404     18716
     22407     18716     22410     18716     22413     18716     22416     18716
     22419     18716     22422     18716     22425     18716     22428     18716
     22431     18716     22434     18716     22437     18716     22440     18716
     22443     18716     22446     18716     22449     18716     22452     18716
     22455     18716     22458     18716     22461     18716     22464     18716
     22467     18716     22470     18716     22473     18716     22476     18716
     22479     18716     22482     18716     22485     18716     22488     18716
     22491     18716     22494     18716     22497     18716     22500     18716
     22503     18716     22506     18716     22509     18716     22512     18716
     22515     18716     22518     18716     22521     18716     22524     18716
     22527     18716     22530     18716     22533     18716     22536     18716
     22539     18716     22542     18716     22545     18716     22548     18716
     22551     18716     22554     18716     22557     18716     22560     18716
     22563     18716     22566     18716     22569     18716     22572     18716
     22575     18716     22578     18716     22581     18716     22584     18716
     22587     18716     22590     18716     22593     18716     22596     18716
     22599     18716     22602     18716     22605     18716     22608     18716
     22611     18716     22614     18716     22617     18716     22620     18716
     22623     18716     22626     18716     22629     18716     22632     18716
     22635     18716     22638     18716     22641     18716     22644     18716
     22647     18716     22650     18716     22653     18716     22656     18716
     22659     18716     22662     18716     22665     18716     22668     18716
     22671     18716     22674     18716     22677     18716     22680     18716
     22683     18716     22686     18716     22689     18716     22692     18716
     22695     18716     22698     18716     22701     18716     22704     18716
     22707     18716     22710     18716     22713     18716     22716     18716
     22719     18716     22722     18716     22725     18716     22728     18716
     22731     18716     22734     18716     22737     18716     22740     18716
     22743     18716     22746     18716     22749     18716     22752     18716
     22755     18716     22758     18716     22761     18716     22764     18716
     22767     18716     22770     18716     22773     18716     22776     18716
     22779     18716     22782     18716     22785     18716     22788     18716
     22791     18716     22794     18716     22797     18716     22800     18716
     22803     18716     22806     18716     22809     18716     22812     18716
     22815     18716     22818     18716     22821     18716     22824     18716
     22827     18716     22830     18716     22833     18716     22836     18716
     22839     18716     22842     18716     22845     18716     22848     18716
     22851     18716     22854     18716     22857     18716     22860     18716
     22863     18716     22866     18716     22869     18716     22872     18716
     22875     18716     22878     18716     22881     18716     22884     18716
     22887     18716     22890     18716     22893     18716     22896     18716
     22899     18716     22902     18716     22905     18716     22908     18716
     22911     18716     22914     18716     22917     18716     22920     18716
     22923     18716     22926     18716     22929     18716     22932     18716
     22935     18716     22938     18716     22941     18716     22944     18716
     22947     18716     22950     18716     22953     18716     22956     18716
     22959     18716     22962     18716     22965     18716     22968     18716
     22971     18716     22974     18716     22977     18716     22980     18716
     22983     18716     22986     18716     22989     18716     22992     18716
     22995     18716     22998     18716     23001     18716     23004     18716
     23007     18716     23010     18716     23013     18716     23016     18716
     23019     18716     23022     18716     23025     18716     23028     18716
     23031     18716     23034     18716     23037     18716     23040     18716
     23043     18716     23046     18716     23049     18716     23052     18716
     23055     18716     23058     18716     23061     18716     23064     18716
     23067     18716     23070     18716     23073     18716     23076     18716
     23079     18716     23082     18716     23085     18716     23088     18716
     23091     18716     23094     18716     23097     18716     23100     18716
     23103     18716     23106     18716     23109     18716     23112     18716
     23115     18716     23118     18716     23121     18716     23124     18716
     23127     18716     23130     18716     23133     18716     23136     18716
     23139     18716     23142     18716     23145     18716     23148     18716
     23151     18716     23154     18716     23157     18716     23160     18716
     23163     18716     23166     18716     23169     18716     23172     18716
     23175     18716     23178     18716     23181     18716     23184     18716
     23187     18716     23190     18716     23193     18716     23196     18716
     23199     18716     23202     18716     23205     18716     23208     18716
     23211     18716     23214     18716     23217     18716     23220     18716
     23223     18716     23226     18716     23229     18716     23232     18716
     23235     18716     23238     18716     23241     18716     23244     18716
     23247     18716     23250     18716     23253     18716     23256     18716
     23259     18716     23262     18716     23265     18716     23268     18716
     23271     18716     23274     18716     23277     18716     23280     18716
     23283     18716     23286     18716     23289     18716     23292     18716
     23295     18716     23298     18716     23301     18716     23304     18716
     23307     18716     23310     18716     23313     18716     23316     18716
     23319     18716     23322     18716     23325     18716     23328     18716
     23331     18716     23334     18716     23337     18716     23340     18716
     23343     18716     23346     18716     23349     18716     23352     18716
     23355     18716     23358     18716     23361     18716     23364     18716
     23367     18716     23370     18716     23373     18716     23376     18716
     23379     18716     23382     18716     23385     18716     23388     18716
     23391     18716     23394     18716     23397     18716     23400     18716
     23403     18716     23406     18716     23409     18716     23412     18716
     23415     18716     23418     18716     23421     18716     23424     18716
     23427     18716     23430     18716     23433     18716     23436     18716
     23439     18716     23442     18716     23445     18716     23448     18716
     23451     18716     23454     18716     23457     18716     23460     18716
     23463     18716     23466     18716     23469     18716     23472     18716
     23475     18716     23478     18716     23481     18716     23484     18716
     23487     18716     23490     18716     23493     18716     23496     18716
     23499     18716     23502     18716     23505     18716     23508     18716
     23511     18716     23514     18716     23517     18716     23520     18716
     23523     18716     23526     18716     23529     18716     23532     18716
     23535     18716     23538     18716     23541     18716     23544     18716
     23547     18716     23550     18716     23553     18716     23556     18716
     23559     18716     23562     18716     23565     18716     23568     18716
     23571     18716     23574     18716     23577     18716     23580     18716
     23583     18716     23586     18716     23589     18716     23592     18716
     23595     18716     23598     18716     23601     18716     23604     18716
     23607     18716     23610     18716     23613     18716     23616     18716
     23619     18716     23622     18716     23625     18716     23628     18716
     23631     18716     23634     18716     23637     18716     23640     18716
     23643     18716     23646     18716     23649     18716     23652     18716
     23655     18716     23658     18716     23661     18716     23664     18716
     23667     18716     23670     18716     23673     18716     23676     18716
     23679     18716     23682     18716     23685     18716     23688     18716
     23691     18716     23694     18716     23697     18716     23700     18716
     23703     18716     23706     18716     23709     18716     23712     18716
     23715     18716     23718     18716     23721     18716     23724     18716
     23727     18716     23730     18716     23733     18716     23736     18716
     23739     18716     23742     18716     23745     18716     23748     18716
     23751     18716     23754     18716     23757     18716     23760     18716
     23763     18716     23766     18716     23769     18716     23772     18716
     23775     18716     23778     18716     23781     18716     23784     18716
     23787     18716     23790     18716     23793     18716     23796     18716
     23799     18716     23802     18716     23805     18716     23808     18716
     23811     18716     23814     18716     23817     18716     23820     18716
     23823     18716     23826     18716     23829     18716     23832     18716
     23835     18716     23838     18716     23841     18716     23844     18716
     23847     18716     23850     18716     23853     18716     23856     18716
     23859     18716     23862     18716     23865     18716     23868     18716
     23871     18716     23874     18716     23877     18716     23880     18716
     23883     18716     23886     18716     23889     18716     23892     18716
     23895     18716     23898     18716     23901     18716     23904     18716
     23907     18716     23910     18716     23913     18716     23916     18716
     23919     18716     23922     18716     23925     18716     23928     18716
     23931     18716     23934     18716     23937     18716     23940     18716
     23943     18716     23946     18716     23949     18716     23952     18716
     23955     18716     23958     18716     23961     18716     23964     18716
     23967     18716     23970     18716     23973     18716     23976     18716
     23979     18716     23982     18716     23985     18716     23988     18716
     23991     18716     23994     18716     23997     18716     24000     18716
     24003     18716     24006     18716     24009     18716     24012     18716
     24015     18716     24018     18716     24021     18716     24024     18716
     24027     18716     24030     18716     24033     18716     24036     18716
     24039     18716     24042     18716     24045     18716     24048     18716
     24051     18716     24054     18716     24057     18716     24060     18716
     24063     18716     24066     18716     24069     18716     24072     18716
     24075     18716     24078     18716     24081     18716     24084     18716
     24087     18716     24090     18716     24093     18716     24096     18716
     24099     18716     24102     18716     24105     18716     24108     18716
     24111     18716     24114     18716     24117     18716     24120     18716
     24123     18716     24126     18716     24129     18716     24132     18716
     24135     18716     24138     18716     24141     18716     24144     18716
     24147     18716     24150     18716     24153     18716     24156     18716
     24159     18716     24162     18716     24165     18716     24168     18716
     24171     18716     24174     18716     24177     18716     24180     18716
     24183     18716     24186     18716     24189     18716     24192     18716
     24195     18716     24198     18716     24201     18716     24204     18716
     24207     18716     24210     18716     24213     18716     24216     18716
     24219     18716     24222     18716     24225     18716     24228     18716
     24231     18716     24234     18716     24237     18716     24240     18716
     24243     18716     24246     18716     24249     18716     24252     18716
     24255     18716     24258     18716     24261     18716     24264     18716
     24267     18716     24270     18716     24273     18716     24276     18716
     24279     18716     24282     18716     24285     18716     24288     18716
     24291     18716     24294     18716     24297     18716     24300     18716
     24303     18716     24306     18716     24309     18716     24312     18716
     24315     18716     24318     18716     24321     18716     24324     18716
     24327     18716     24330     18716     24333     18716     24336     18716
     24339     18716     24342     18716     24345     18716     24348     18716
     24351     18716     24354     18716     24357     18716     24360     18716
     24363     18716     24366     18716     24369     18716     24372     18716
     24375     18716     24378     18716     24381     18716     24384     18716
     24387     18716     24390     18716     24393     18716     24396     18716
     24399     18716     24402     18716     24405     18716     24408     18716
     24411     18716     24414     18716     24417     18716     24420     18716
     24423     18716     24426     18716     24429     18716     24432     18716
     24435     18716     24438     18716     24441     18716     24444     18716
     24447     18716     24450     18716     24453     18716     24456     18716
     24459     18716     24462     18716     24465     18716     24468     18716
     24471     18716     24474     18716     24477     18716     24480     18716
     24483     18716     24486     18716     24489     18716     24492     18716
     24495     18716     24498     18716     24501     18716     24504     18716
     24507     18716     24510     18716     24513     18716     24516     18716
     24519     18716     24522     18716     24525     18716     24528     18716
     24531     18716     24534     18716     24537     18716     24540     18716
     24543     18716     24546     18716     24549     18716     24552     18716
     24555     18716     24558     18716     24561     18716     24564     18716
     24567     18716     24570     18716     24573     18716     24576     18716
     24579     18716     24582     18716     24585     18716     24588     18716
     24591     18716     24594     18716     24597     18716     24600     18716
     24603     18716     24606     18716     24609     18716     24612     18716
     24615     18716     24618     18716     24621     18716     24624     18716
     24627     18716     24630     18716     24633     18716     24636     18716
     24639     18716     24642     18716     24645     18716     24648     18716
     24651     18716     24654     18716     24657     18716     24660     18716
     24663     18716     24666     18716     24669     18716     24672     18716
     24675     18716     24678     18716     24681     18716     24684     18716
     24687     18716     24690     18716     24693     18716     24696     18716
     24699     18716     24702     18716     24705     18716     24708     18716
     24711     18716     24714     18716     24717     18716     24720     18716
     24723     18716     24726     18716     24729     18716     24732     18716
     24735     18716     24738     18716     24741     18716     24744     18716
     24747     18716     24750     18716     24753     18716     24756     18716
     24759     18716     24762     18716     24765     18716     24768     18716
     24771     18716     24774     18716     24777     18716     24780     18716
     24783     18716     24786     18716     24789     18716     24792     18716
     24795     18716     24798     18716     24801     18716     24804     18716
     24807     18716     24810     18716     24813     18716     24816     18716
     24819     18716     24822     18716     24825     18716     24828     18716
     24831     18716     24834     18716     24837     18716     24840     18716
     24843     18716     24846     18716     24849     18716     24852     18716
     24855     18716     24858     18716     24861     18716     24864     18716
     24867     18716     24870     18716     24873     18716     24876     18716
     24879     18716     24882     18716     24885     18716     24888     18716
     24891     18716     24894     18716     24897     18716     24900     18716
     24903     18716     24906     18716     24909     18716     24912     18716
     24915     18716     24918     18716     24921     18716     24924     18716
     24927     18716     24930     18716     24933     18716     24936     18716
     24939     18716     24942     18716     24945     18716     24948     18716
     24951     18716     24954     18716     24957     18716     24960     18716
     24963     18716     24966     18716     24969     18716     24972     18716
     24975     18716     24978     18716     24981     18716     24984     18716
     24987     18716     24990     18716     24993     18716     24996     18716
     24999     18716     25002     18716     25005     18716     25008     18716
     25011     18716     25014     18716     25017     18716     25020     18716
     25023     18716     25026     18716     25029     18716     25032     18716
     25035     18716     25038     18716     25041     18716     25044     18716
     25047     18716     25050     18716     25053     18716     25056     18716
     25059     18716     25062     18716     25065     18716     25068     18716
     25071     18716     25074     18716     25077     18716     25080     18716
     25083     18716     25086     18716     25089     18716     25092     18716
     25095     18716     25098     18716     25101     18716     25104     18716
     25107     18716     25110     18716     25113     18716     25116     18716
     25119     18716     25122     18716     25125     18716     25128     18716
     25131     18716     25134     18716     25137     18716     25140     18716
     25143     18716     25146     18716     25149     18716     25152     18716
     25155     18716     25158     18716     25161     18716     25164     18716
     25167     18716     25170     18716     25173     18716     25176     18716
     25179     18716     25182     18716     25185     18716     25188     18716
     25191     18716     25194     18716     25197     18716     25200     18716
     25203     18716     25206     18716     25209     18716     25212     18716
     25215     18716     25218     18716     25221     18716     25224     18716
     25227     18716     25230     18716     25233     18716     25236     18716
     25239     18716     25242     18716     25245     18716     25248     18716
     25251     18716     25254     18716     25257     18716     25260     18716
     25263     18716     25266     18716     25269     18716     25272     18716
     25275     18716     25278     18716     25281     18716     25284     18716
     25287     18716     25290     18716     25293     18716     25296     18716
     25299     18716     25302     18716     25305     18716     25308     18716
     25311     18716     25314     18716     25317     18716     25320     18716
     25323     18716     25326     18716     25329     18716     25332     18716
     25335     18716     25338     18716     25341     18716     25344     18716
     25347     18716     25350     18716     25353     18716     25356     18716
     25359     18716     25362     18716     25365     18716     25368     18716
     25371     18716     25374     18716     25377     18716     25380     18716
     25383     18716     25386     18716     25389     18716     25392     18716
     25395     18716     25398     18716     25401     18716     25404     18716
     25407     18716     25410     18716     25413     18716     25416     18716
     25419     18716     25422     18716     25425     18716     25428     18716
     25431     18716     25434     18716     25437     18716     25440     18716
     25443     18716     25446     18716     25449     18716     25452     18716
     25455     18716     25458     18716     25461     18716     25464     18716
     25467     18716     25470     18716     25473     18716     25476     18716
     25479     18716     25482     18716     25485     18716     25488     18716
     25491     18716     25494     18716     25497     18716     25500     18716
     25503     18716     25506     18716     25509     18716     25512     18716
     25515     18716     25518     18716     25521     18716     25524     18716
     25527     18716     25530     18716     25533     18716     25536     18716
     25539     18716     25542     18716     25545     18716     25548     18716
     25551     18716     25554     18716     25557     18716     25560     18716
     25563     18716     25566     18716     25569     18716     25572     18716
     25575     18716     25578     18716     25581     18716     25584     18716
     25587     18716     25590     18716     25593     18716     25596     18716
     25599     18716     25602     18716     25605     18716     25608     18716
     25611     18716     25614     18716     25617     18716     25620     18716
     25623     18716     25626     18716     25629     18716     25632     18716
     25635     18716     25638     18716     25641     18716     25644     18716
     25647     18716     25650     18716     25653     18716     25656     18716
     25659     18716     25662     18716     25665     18716     25668     18716
     25671     18716     25674     18716     25677     18716     25680     18716
     25683     18716     25686     18716     25689     18716     25692     18716
     25695     18716     25698     18716     25701     18716     25704     18716
     25707     18716     25710     18716     25713     18716     25716     18716
     25719     18716     25722     18716     25725     18716     25728     18716
     25731     18716     25734     18716     25737     18716     25740     18716
     25743     18716     25746     18716     25749     18716     25752     18716
     25755     18716     25758     18716     25761     18716     25764     18716
     25767     18716     25770     18716     25773     18716     25776     18716
     25779     18716     25782     18716     25785     18716     25788     18716
     25791     18716     25794     18716     25797     18716     25800     18716
     25803     18716     25806     18716     25809     18716     25812     18716
     25815     18716     25818     18716     25821     18716     25824     18716
     25827     18716     25830     18716     25833     18716     25836     18716
     25839     18716     25842     18716     25845     18716     25848     18716
     25851     18716     25854     18716     25857     18716     25860     18716
     25863     18716     25866     18716     25869     18716     25872     18716
     25875     18716     25878     18716     25881     18716     25884     18716
     25887     18716     25890     18716     25893     18716     25896     18716
     25899     18716     25902     18716     25905     18716     25908     18716
     25911     18716     25914     18716     25917     18716     25920     18716
     25923     18716     25926     18716     25929     18716     25932     18716
     25935     18716     25938     18716     25941     18716     25944     18716
     25947     18716     25950     18716     25953     18716     25956     18716
     25959     18716     25962     18716     25965     18716     25968     18716
     25971     18716     25974     18716     25977     18716     25980     18716
     25983     18716     25986     18716     25989     18716     25992     18716
     25995     18716     25998     18716     26001     18716     26004     18716
     26007     18716     26010     18716     26013     18716     26016     18716
     26019     18716     26022     18716     26025     18716     26028     18716
     26031     18716     26034     18716     26037     18716     26040     18716
     26043     18716     26046     18716     26049     18716     26052     18716
     26055     18716     26058     18716     26061     18716     26064     18716
     26067     18716     26070     18716     26073     18716     26076     18716
     26079     18716     26082     18716     26085     18716     26088     18716
     26091     18716     26094     18716     26097     18716     26100     18716
     26103     18716     26106     18716     26109     18716     26112     18716
     26115     18716     26118     18716     26121     18716     26124     18716
     26127     18716     26130     18716     26133     18716     26136     18716
     26139     18716     26142     18716     26145     18716     26148     18716
     26151     18716     26154     18716     26157     18716     26160     18716
     26163     18716     26166     18716     26169     18716     26172     18716
     26175     18716     26178     18716     26181     18716     26184     18716
     26187     18716     26190     18716     26193     18716     26196     18716
     26199     18716     26202     18716     26205     18716     26208     18716
     26211     18716     26214     18716     26217     18716     26220     18716
     26223     18716     26226     18716     26229     18716     26232     18716
     26235     18716     26238     18716     26241     18716     26244     18716
     26247     18716     26250     18716     26253     18716     26256     18716
     26259     18716     26262     18716     26265     18716     26268     18716
     26271     18716     26274     18716     26277     18716     26280     18716
     26283     18716     26286     18716     26289     18716     26292     18716
     26295     18716     26298     18716     26301     18716     26304     18716
     26307     18716     26310     18716     26313     18716     26316     18716
     26319     18716     26322     18716     26325     18716     26328     18716
     26331     18716     26334     18716     26337     18716     26340     18716
     26343     18716     26346     18716     26349     18716     26352     18716
     26355     18716     26358     18716     26361     18716     26364     18716
     26367     18716     26370     18716     26373     18716     26376     18716
     26379     18716     26382     18716     26385     18716     26388     18716
     26391     18716     26394     18716     26397     18716     26400     18716
     26403     18716     26406     18716     26409     18716     26412     18716
     26415     18716     26418     18716     26421     18716     26424     18716
     26427     18716     26430     18716     26433     18716     26436     18716
     26439     18716     26442     18716     26445     18716     26448     18716
     26451     18716     26454     18716     26457     18716     26460     18716
     26463     18716     26466     18716     26469     18716     26472     18716
     26475     18716     26478     18716     26481     18716     26484     18716
     26487     18716     26490     18716     26493     18716     26496     18716
     26499     18716     26502     18716     26505     18716     26508     18716
     26511     18716     26514     18716     26517     18716     26520     18716
     26523     18716     26526     18716     26529     18716     26532     18716
     26535     18716     26538     18716     26541     18716     26544     18716
     26547     18716     26550     18716     26553     18716     26556     18716
     26559     18716     26562     18716     26565     18716     26568     18716
     26571     18716     26574     18716     26577     18716     26580     18716
     26583     18716     26586     18716     26589     18716     26592     18716
     26595     18716     26598     18716     26601     18716     26604     18716
     26607     18716     26610     18716     26613     18716     26616     18716
     26619     18716     26622     18716     26625     18716     26628     18716
     26631     18716     26634     18716     26637     18716     26640     18716
     26643     18716     26646     18716     26649     18716     26652     18716
     26655     18716     26658     18716     26661     18716     26664     18716
     26667     18716     26670     18716     26673     18716     26676     18716
     26679     18716     26682     18716     26685     18716     26688     18716
     26691     18716     26694     18716     26697     18716     26700     18716
     26703     18716     26706     18716     26709     18716     26712     18716
     26715     18716     26718     18716     26721     18716     26724     18716
     26727     18716     26730     18716     26733     18716     26736     18716
     26739     18716     26742     18716     26745     18716     26748     18716
     26751     18716     26754     18716     26757     18716     26760     18716
     26763     18716     26766     18716     26769     18716     26772     18716
     26775     18716     26778     18716     26781     18716     26784     18716
     26787     18716     26790     18716     26793     18716     26796     18716
     26799     18716     26802     18716     26805     18716     26808     18716
     26811     18716     26814     18716     26817     18716     26820     18716
     26823     18716     26826     18716     26829     18716     26832     18716
     26835     18716     26838     18716     26841     18716     26844     18716
     26847     18716     26850     18716     26853     18716     26856     18716
     26859     18716     26862     18716     26865     18716     26868     18716
     26871     18716     26874     18716     26877     18716     26880     18716
     26883     18716     26886     18716     26889     18716     26892     18716
     26895     18716     26898     18716     26901     18716     26904     18716
     26907     18716     26910     18716     26913     18716     26916     18716
     26919     18716     26922     18716     26925     18716     26928     18716
     26931     18716     26934     18716     26937     18716     26940     18716
     26943     18716     26946     18716     26949     18716     26952     18716
     26955     18716     26958     18716     26961     18716     26964     18716
     26967     18716     26970     18716     26973     18716     26976     18716
     26979     18716     26982     18716     26985     18716     26988     18716
     26991     18716     26994     18716     26997     18716     27000     18716
     27003     18716     27006     18716     27009     18716     27012     18716
     27015     18716     27018     18716     27021     18716     27024     18716
     27027     18716     27030     18716     27033     18716     27036     18716
     27039     18716     27042     18716     27045     18716     27048     18716
     27051     18716     27054     18716     27057     18716     27060     18716
     27063     18716     27066     18716     27069     18716     27072     18716
     27075     18716     27078     18716     27081     18716     27084     18716
     27087     18716     27090     18716     27093     18716     27096     18716
     27099     18716     27102     18716     27105     18716     27108     18716
     27111     18716     27114     18716     27117     18716     27120     18716
     27123     18716     27126     18716     27129     18716     27132     18716
     27135     18716     27138     18716     27141     18716     27144     18716
     27147     18716     27150     18716     27153     18716     27156     18716
     27159     18716     27162     18716     27165     18716     27168     18716
     27171     18716     27174     18716     27177     18716     27180     18716
     27183     18716     27186     18716     27189     18716     27192     18716
     27195     18716     27198     18716     27201     18716     27204     18716
     27207     18716     27210     18716     27213     18716     27216     18716
     27219     18716     27222     18716     27225     18716     27228     18716
     27231     18716     27234     18716     27237     18716     27240     18716
     27243     18716     27246     18716     27249     18716     27252     18716
     27255     18716     27258     18716     27261     18716     27264     18716
     27267     18716     27270     18716     27273     18716     27276     18716
     27279     18716     27282     18716     27285     18716     27288     18716
     27291     18716     27294     18716     27297     18716     27300     18716
     27303     18716     27306     18716     27309     18716     27312     18716
     27315     18716     27318     18716     27321     18716     27324     18716
     27327     18716     27330     18716     27333     18716     27336     18716
     27339     18716     27342     18716     27345     18716     27348     18716
     27351     18716     27354     18716     27357     18716     27360     18716
     27363     18716     27366     18716     27369     18716     27372     18716
     27375     18716     27378     18716     27381     18716     27384     18716
     27387     18716     27390     18716     27393     18716     27396     18716
     27399     18716     27402     18716     27405     18716     27408     18716
     27411     18716     27414     18716     27417     18716     27420     18716
     27423     18716     27426     18716     27429     18716     27432     18716
     27435     18716     27438     18716     27441     18716     27444     18716
     27447     18716     27450     18716     27453     18716     27456     18716
     27459     18716     27462     18716     27465     18716     27468     18716
     27471     18716     27474     18716     27477     18716     27480     18716
     27483     18716     27486     18716     27489     18716     27492     18716
     27495     18716     27498     18716     27501     18716     27504     18716
     27507     18716     27510     18716     27513     18716     27516     18716
     27519     18716     27522     18716     27525     18716     27528     18716
     27531     18716     27534     18716     27537     18716     27540     18716
     27543     18716     27546     18716     27549     18716     27552     18716
     27555     18716     27558     18716     27561     18716     27564     18716
     27567     18716     27570     18716     27573     18716     27576     18716
     27579     18716     27582     18716     27585     18716     27588     18716
     27591     18716     27594     18716     27597     18716     27600     18716
     27603     18716     27606     18716     27609     18716     27612     18716
     27615     18716     27618     18716     27621     18716     27624     18716
     27627     18716     27630     18716     27633     18716     27636     18716
     27639     18716     27642     18716     27645     18716     27648     18716
     27651     18716     27654     18716     27657     18716     27660     18716
     27663     18716     27666     18716     27669     18716     27672     18716
     27675     18716     27678     18716     27681     18716     27684     18716
     27687     18716     27690     18716     27693     18716     27696     18716
     27699     18716     27702     18716     27705     18716     27708     18716
     27711     18716     27714     18716     27717     18716     27720     18716
     27723     18716     27726     18716     27729     18716     27732     18716
     27735     18716     27738     18716     27741     18716     27744     18716
     27747     18716     27750     18716     27753     18716     27756     18716
     27759     18716     27762     18716     27765     18716     27768     18716
     27771     18716     27774     18716     27777     18716     27780     18716
     27783     18716     27786     18716     27789     18716     27792     18716
     27795     18716     27798     18716     27801     18716     27804     18716
     27807     18716     27810     18716     27813     18716     27816     18716
     27819     18716     27822     18716     27825     18716     27828     18716
     27831     18716     27834     18716     27837     18716     27840     18716
     27843     18716     27846     18716     27849     18716     27852     18716
     27855     18716     27858     18716     27861     18716     27864     18716
     27867     18716     27870     18716     27873     18716     27876     18716
     27879     18716     27882     18716     27885     18716     27888     18716
     27891     18716     27894     18716     27897     18716     27900     18716
     27903     18716     27906     18716     27909     18716     27912     18716
     27915     18716     27918     18716     27921     18716     27924     18716
     27927     18716     27930     18716     27933     18716     27936     18716
     27939     18716     27942     18716     27945     18716     27948     18716
     27951     18716     27954     18716     27957     18716     27960     18716
     27963     18716     27966     18716     27969     18716     27972     18716
     27975     18716     27978     18716     27981     18716     27984     18716
     27987     18716     27990     18716     27993     18716     27996     18716
     27999     18716     28002     18716     28005     18716     28008     18716
     28011     18716     28014     18716     28017     18716     28020     18716
     28023     18716     28026     18716     28029     18716     28032     18716
     28035     18716     28038     18716     28041     18716     28044     18716
     28047     18716     28050     18716     28053     18716     28056     18716
     28059     18716     28062     18716     28065     18716     28068     18716
     28071     18716     28074     18716     28077     18716     28080     18716
     28083     18716     28086     18716     28089     18716     28092     18716
     28095     18716     28098     18716     28101     18716     28104     18716
     28107     18716     28110     18716     28113     18716     28116     18716
     28119     18716     28122     18716     28125     18716     28128     18716
     28131     18716     28134     18716     28137     18716     28140     18716
     28143     18716     28146     18716     28149     18716     28152     18716
     28155     18716     28158     18716     28161     18716     28164     18716
     28167     18716     28170     18716     28173     18716     28176     18716
     28179     18716     28182     18716     28185     18716     28188     18716
     28191     18716     28194     18716     28197     18716     28200     18716
     28203     18716     28206     18716     28209     18716     28212     18716
     28215     18716     28218     18716     28221     18716     28224     18716
     28227     18716     28230     18716     28233     18716     28236     18716
     28239     18716     28242     18716     28245     18716     28248     18716
     28251     18716     28254     18716     28257     18716     28260     18716
     28263     18716     28266     18716     28269     18716     28272     18716
     28275     18716     28278     18716     28281     18716     28284     18716
     28287     18716     28290     18716     28293     18716     28296     18716
     28299     18716     28302     18716     28305     18716     28308     18716
     28311     18716     28314     18716     28317     18716     28320     18716
     28323     18716     28326     18716     28329     18716     28332     18716
     28335     18716     28338     18716     28341     18716     28344     18716
     28347     18716     28350     18716     28353     18716     28356     18716
     28359     18716     28362     18716     28365     18716     28368     18716
     28371     18716     28374     18716     28377     18716     28380     18716
     28383     18716     28386     18716     28389     18716     28392     18716
     28395     18716     28398     18716     28401     18716     28404     18716
     28407     18716     28410     18716     28413     18716     28416     18716
     28419     18716     28422     18716     28425     18716     28428     18716
     28431     18716     28434     18716     28437     18716     28440     18716
     28443     18716     28446     18716     28449     18716     28452     18716
     28455     18716     28458     18716     28461     18716     28464     18716
     28467     18716     28470     18716     28473     18716     28476     18716
     28479     18716     28482     18716     28485     18716     28488     18716
     28491     18716     28494     18716     28497     18716     28500     18716
     28503     18716     28506     18716     28509     18716     28512     18716
     28515     18716     28518     28517     28521     28517     28524     28517
     28527     28517     28530     28517     28533     28517     28536     28517
     28539     28517     28542     28517     28545     28517     28548     28517
     28551     28517     28554     28517     28557     28517     28560     28517
     28563     28517     28566     28517     28569     28517     28572     28517
     28575     28517     28578     28517     28581     28517     28584     28517
     28587     28517     28590     28517     28593     28517     28596     28517
     28599     28517     28602     28517     28605     28517     28608     28517
     28611     28517     28614     28517     28617     28517     28620     28517
     28623     28517     28626     28517     28629     28517     28632     28517
     28635     28517     28638     28517     28641     28517     28644     28517
     28647     28517     28650     28517     28653     28517     28656     28517
     28659     28517     28662     28517     28665     28517     28668     28517
     28671     28517     28674     28517     28677     28517     28680     28517
     28683     28517     28686     28517     28689     28517     28692     28517
     28695     28517     28698     28517     28701     28517     28704     28517
     28707     28517     28710     28517     28713     28517     28716     28517
     28719     28517     28722     28517     28725     28517     28728     28517
     28731     28517     28734     28517     28737     28517     28740     28517
     28743     28517     28746     28517     28749     28517     28752     28517
     28755     28517     28758     28517     28761     28517     28764     28517
     28767     28517     28770     28517     28773     28517     28776     28517
     28779     28517     28782     28517     28785     28517     28788     28517
     28791     28517     28794     28517     28797     28517     28800     28517
     28803     28517     28806     28517     28809     28517     28812     28517
     28815     28517     28818     28517     28821     28517     28824     28517
     28827     28517     28830     28517     28833     28517     28836     28517
     28839     28517     28842     28517     28845     28517     28848     28517
     28851     28517     28854     28517     28857     28517     28860     28517
     28863     28517     28866     28517     28869     28517     28872     28517
     28875     28517     28878     28517     28881     28517     28884     28517
     28887     28517     28890     28517     28893     28517     28896     28517
     28899     28517     28902     28517     28905     28517     28908     28517
     28911     28517     28914     28517     28917     28517     28920     28517
     28923     28517     28926     28517     28929     28517     28932     28517
     28935     28517     28938     28517     28941     28517     28944     28517
     28947     28517     28950     28517     28953     28517     28956     28517
     28959     28517     28962     28517     28965     28517     28968     28517
     28971     28517     28974     28517     28977     28517     28980     28517
     28983     28517     28986     28517     28989     28517     28992     28517
     28995     28517     28998     28517     29001     28517     29004     28517
     29007     28517     29010     28517     29013     28517     29016     28517
     29019     28517     29022     28517     29025     28517     29028     28517
     29031     28517     29034     28517     29037     28517     29040     28517
     29043     28517     29046     28517     29049     28517     29052     28517
     29055     28517     29058     28517     29061     28517     29064     28517
     29067     28517     29070     28517     29073     28517     29076     28517
     29079     28517     29082     28517     29085     28517     29088     28517
     29091     28517     29094     28517     29097     28517     29100     28517
     29103     28517     29106     28517     29109     28517     29112     28517
     29115     28517     29118     28517     29121     28517     29124     28517
     29127     28517     29130     28517     29133     28517     29136     28517
     29139     28517     29142     28517     29145     28517     29148     28517
     29151     28517     29154     28517     29157     28517     29160     28517
     29163     28517     29166     28517     29169     28517     29172     28517
     29175     28517     29178     28517     29181     28517     29184     28517
     29187     28517     29190     28517     29193     28517     29196     28517
     29199     28517     29202     28517     29205     28517     29208     28517
     29211     28517     29214     28517     29217     28517     29220     28517
     29223     28517     29226     28517     29229     28517     29232     28517
     29235     28517     29238     28517     29241     28517     29244     28517
     29247     28517     29250     28517     29253     28517     29256     28517
     29259     28517     29262     28517     29265     28517     29268     28517
     29271     28517     29274     28517     29277     28517     29280     28517
     29283     28517     29286     28517     29289     28517     29292     28517
     29295     28517     29298     28517     29301     28517     29304     28517
     29307     28517     29310     28517     29313     28517     29316     28517
     29319     28517     29322     28517     29325     28517     29328     28517
     29331     28517     29334     28517     29337     28517     29340     28517
     29343     28517     29346     28517     29349     28517     29352     28517
     29355     28517     29358     28517     29361     28517     29364     28517
     29367     28517     29370     28517     29373     28517     29376     28517
     29379     28517     29382     28517     29385     28517     29388     28517
     29391     28517     29394     28517     29397     28517     29400     28517
     29403     28517     29406     28517     29409     28517     29412     28517
     29415     28517     29418     28517     29421     28517     29424     28517
     29427     28517     29430     28517     29433     28517     29436     28517
     29439     28517     29442     28517     29445     28517     29448     28517
     29451     28517     29454     28517     29457     28517     29460     28517
     29463     28517     29466     28517     29469     28517     29472     28517
     29475     28517     29478     28517     29481     28517     29484     28517
     29487     28517     29490     28517     29493     28517     29496     28517
     29499     28517     29502     28517     29505     28517     29508     28517
     29511     28517     29514     28517     29517     28517     29520     28517
     29523     28517     29526     28517     29529     28517     29532     28517
     29535     28517     29538     28517     29541     28517     29544     28517
     29547     28517     29550     28517     29553     28517     29556     28517
     29559     28517     29562     28517     29565     28517     29568     28517
     29571     28517     29574     28517     29577     28517     29580     28517
     29583     28517     29586     28517     29589     28517     29592     28517
     29595     28517     29598     28517     29601     28517     29604     28517
     29607     28517     29610     28517     29613     28517     29616     28517
     29619     28517     29622     28517     29625     28517     29628     28517
     29631     28517     29634     28517     29637     28517     29640     28517
     29643     28517     29646     28517     29649     28517     29652     28517
     29655     28517     29658     28517     29661     28517     29664     28517
     29667     28517     29670     28517     29673     28517     29676     28517
     29679     28517     29682     28517     29685     28517     29688     28517
     29691     28517     29694     28517     29697     28517     29700     28517
     29703     28517     29706     28517     29709     28517     29712     28517
     29715     28517     29718     28517     29721     28517     29724     28517
     29727     28517     29730     28517     29733     28517     29736     28517
     29739     28517     29742     28517     29745     28517     29748     28517
     29751     28517     29754     28517     29757     28517     29760     28517
     29763     28517     29766     28517     29769     28517     29772     28517
     29775     28517     29778     28517     29781     28517     29784     28517
     29787     28517     29790     28517     29793     28517     29796     28517
     29799     28517     29802     28517     29805     28517     29808     28517
     29811     28517     29814     28517     29817     28517     29820     28517
     29823     28517     29826     28517     29829     28517     29832     28517
     29835     28517     29838     28517     29841     28517     29844     28517
     29847     28517     29850     28517     29853     28517     29856     28517
     29859     28517     29862     28517     29865     28517     29868     28517
     29871     28517     29874     28517     29877     28517     29880     28517
     29883     28517     29886     28517     29889     28517     29892     28517
     29895     28517     29898     28517     29901     28517     29904     28517
     29907     28517     29910     28517     29913     28517     29916     28517
     29919     28517     29922     28517     29925     28517     29928     28517
     29931     28517     29934     28517     29937     28517     29940     28517
     29943     28517     29946     28517     29949     28517     29952     28517
     29955     28517     29958     28517     29961     28517     29964     28517
     29967     28517     29970     28517     29973     28517     29976     28517
     29979     28517     29982     28517     29985     28517     29988     28517
     29991     28517     29994     28517     29997     28517     30000     28517
     30003     28517     30006     28517     30009     28517     30012     28517
     30015     28517     30018     28517     30021     28517     30024     28517
     30027     28517     30030     28517     30033     28517     30036     28517
     30039     28517     30042     28517     30045     28517     30048     28517
     30051     28517     30054     28517     30057     28517     30060     28517
     30063     28517     30066     28517     30069     28517     30072     28517
     30075     28517     30078     28517     30081     28517     30084     28517
     30087     28517     30090     28517     30093     28517     30096     28517
     30099     28517     30102     28517     30105     28517     30108     28517
     30111     28517     30114     28517     30117     28517     30120     28517
     30123     28517     30126     28517     30129     28517     30132     28517
     30135     28517     30138     28517     30141     28517     30144     28517
     30147     28517     30150     28517     30153     28517     30156     28517
     30159     28517     30162     28517     30165     28517     30168     28517
     30171     28517     30174     28517     30177     28517     30180     28517
     30183     28517     30186     28517     30189     28517     30192     28517
     30195     28517     30198     28517     30201     28517     30204     28517
     30207     28517     30210     28517     30213     28517     30216     28517
     30219     28517     30222     28517     30225     28517     30228     28517
     30231     28517     30234     28517     30237     28517     30240     28517
     30243     28517     30246     28517     30249     28517     30252     28517
     30255     28517     30258     28517     30261     28517     30264     28517
     30267     28517     30270     28517     30273     28517     30276     28517
     30279     28517     30282     28517     30285     28517     30288     28517
     30291     28517     30294     28517     30297     28517     30300     28517
     30303     28517     30306     28517     30309     28517     30312     28517
     30315     28517     30318     28517     30321     28517     30324     28517
     30327     28517     30330     28517     30333     28517     30336     28517
     30339     28517     30342     28517     30345     28517     30348     28517
     30351     28517     30354     28517     30357     28517     30360     28517
     30363     28517     30366     28517     30369     28517     30372     28517
     30375     28517     30378     28517     30381     28517     30384     28517
     30387     28517     30390     28517     30393     28517     30396     28517
     30399     28517     30402     28517     30405     28517     30408     28517
     30411     28517     30414     28517     30417     28517     30420     28517
     30423     28517     30426     28517     30429     28517     30432     28517
     30435     28517     30438     28517     30441     28517     30444     28517
     30447     28517     30450     28517     30453     28517     30456     28517
     30459     28517     30462     28517     30465     28517     30468     28517
     30471     28517     30474     28517     30477     28517     30480     28517
     30483     28517     30486     28517     30489     28517     30492     28517
     30495     28517     30498     28517     30501     28517     30504     28517
     30507     28517     30510     28517     30513     28517     30516     28517
     30519     28517     30522     28517     30525     28517     30528     28517
     30531     28517     30534     28517     30537     28517     30540     28517
     30543     28517     30546     28517     30549     28517     30552     28517
     30555     28517     30558     28517     30561     28517     30564     28517
     30567     28517     30570     28517     30573     28517     30576     28517
     30579     28517     30582     28517     30585     28517     30588     28517
     30591     28517     30594     28517     30597     28517     30600     28517
     30603     28517     30606     28517     30609     28517     30612     28517
     30615     28517     30618     28517     30621     28517     30624     28517
     30627     28517     30630     28517     30633     28517     30636     28517
     30639     28517     30642     28517     30645     28517     30648     28517
     30651     28517     30654     28517     30657     28517     30660     28517
     30663     28517     30666     28517     30669     28517     30672     28517
     30675     28517     30678     28517     30681     28517     30684     28517
     30687     28517     30690     28517     30693     28517     30696     28517
     30699     28517     30702     28517     30705     28517     30708     28517
     30711     28517     30714     28517     30717     28517     30720     28517
     30723     28517     30726     28517     30729     28517     30732     28517
     30735     28517     30738     28517     30741     28517     30744     28517
     30747     28517     30750     28517     30753     28517     30756     28517
     30759     28517     30762     28517     30765     28517     30768     28517
     30771     28517     30774     28517     30777     28517     30780     28517
     30783     28517     30786     28517     30789     28517     30792     28517
     30795     28517     30798     28517     30801     28517     30804     28517
     30807     28517     30810     28517     30813     28517     30816     28517
     30819     28517     30822     28517     30825     28517     30828     28517
     30831     28517     30834     28517     30837     28517     30840     28517
     30843     28517     30846     28517     30849     28517     30852     28517
     30855     28517     30858     28517     30861     28517     30864     28517
     30867     28517     30870     28517     30873     28517     30876     28517
     30879     28517     30882     28517     30885     28517     30888     28517
     30891     28517     30894     28517     30897     28517     30900     28517
     30903     28517     30906     28517     30909     28517     30912     28517
     30915     28517     30918     28517     30921     28517     30924     28517
     30927     28517     30930     28517     30933     28517     30936     28517
     30939     28517     30942     28517     30945     28517     30948     28517
     30951     28517     30954     28517     30957     28517     30960     28517
     30963     28517     30966     28517     30969     28517     30972     28517
     30975     28517     30978     28517     30981     28517     30984     28517
     30987     28517     30990     28517     30993     28517     30996     28517
     30999     28517     31002     28517     31005     28517     31008     28517
     31011     28517     31014     28517     31017     28517     31020     28517
     31023     28517     31026     28517     31029     28517     31032     28517
     31035     28517     31038     28517     31041     28517     31044     28517
     31047     28517     31050     28517     31053     28517     31056     28517
     31059     28517     31062     28517     31065     28517     31068     28517
     31071     28517     31074     28517     31077     28517     31080     28517
     31083     28517     31086     28517     31089     28517     31092     28517
     31095     28517     31098     28517     31101     28517     31104     28517
     31107     28517     31110     28517     31113     28517     31116     28517
     31119     28517     31122     28517     31125     28517     31128     28517
     31131     28517     31134     28517     31137     28517     31140     28517
     31143     28517     31146     28517     31149     28517     31152     28517
     31155     28517     31158     28517     31161     28517     31164     28517
     31167     28517     31170     28517     31173     28517     31176     28517
     31179     28517     31182     28517     31185     28517     31188     28517
     31191     28517     31194     28517     31197     28517     31200     28517
     31203     28517     31206     28517     31209     28517     31212     28517
     31215     28517     31218     28517     31221     28517     31224     28517
     31227     28517     31230     28517     31233     28517     31236     28517
     31239     28517     31242     28517     31245     28517     31248     28517
     31251     28517     31254     28517     31257     28517     31260     28517
     31263     28517     31266     28517     31269     28517     31272     28517
     31275     28517     31278     28517     31281     28517     31284     28517
     31287     28517     31290     28517     31293     28517     31296     28517
     31299     28517     31302     28517     31305     28517     31308     28517
     31311     28517     31314     28517     31317     28517     31320     28517
     31323     28517     31326     28517     31329     28517     31332     28517
     31335     28517     31338     28517     31341     28517     31344     28517
     31347     28517     31350     28517     31353     28517     31356     28517
     31359     28517     31362     28517     31365     28517     31368     28517
     31371     28517     31374     28517     31377     28517     31380     28517
     31383     28517     31386     28517     31389     28517     31392     28517
     31395     28517     31398     28517     31401     28517     31404     28517
     31407     28517     31410     28517     31413     28517     31416     28517
     31419     28517     31422     28517     31425     28517     31428     28517
     31431     28517     31434     28517     31437     28517     31440     28517
     31443     28517     31446     28517     31449     28517     31452     28517
     31455     28517     31458     28517     31461     28517     31464     28517
     31467     28517     31470     28517     31473     28517     31476     28517
     31479     28517     31482     28517     31485     28517     31488     28517
     31491     28517     31494     28517     31497     28517     31500     28517
     31503     28517     31506     28517     31509     28517     31512     28517
     31515     28517     31518     28517     31521     28517     31524     28517
     31527     28517     31530     28517     31533     28517     31536     28517
     31539     28517     31542     28517     31545     28517     31548     28517
     31551     28517     31554     28517     31557     28517     31560     28517
     31563     28517     31566     28517     31569     28517     31572     28517
     31575     28517     31578     28517     31581     28517     31584     28517
     31587     28517     31590     28517     31593     28517     31596     28517
     31599     28517     31602     28517     31605     28517     31608     28517
     31611     28517     31614     28517     31617     28517     31620     28517
     31623     28517     31626     28517     31629     28517     31632     28517
     31635     28517     31638     28517     31641     28517     31644     28517
     31647     28517     31650     28517     31653     28517     31656     28517
     31659     28517     31662     28517     31665     28517     31668     28517
     31671     28517     31674     28517     31677     28517     31680     28517
     31683     28517     31686     28517     31689     28517     31692     28517
     31695     28517     31698     28517     31701     28517     31704     28517
     31707     28517     31710     28517     31713     28517     31716     28517
     31719     28517     31722     28517     31725     28517     31728     28517
     31731     28517     31734     28517     31737     28517     31740     28517
     31743     28517     31746     28517     31749     28517     31752     28517
     31755     28517     31758     28517     31761     28517     31764     28517
     31767     28517     31770     28517     31773     28517     31776     28517
     31779     28517     31782     28517     31785     28517     31788     28517
     31791     28517     31794     28517     31797     28517     31800     28517
     31803     28517     31806     28517     31809     28517     31812     28517
     31815     28517     31818     28517     31821     28517     31824     28517
     31827     28517     31830     28517     31833     28517     31836     28517
     31839     28517     31842     28517     31845     28517     31848     28517
     31851     28517     31854     28517     31857     28517     31860     28517
     31863     28517     31866     28517     31869     28517     31872     28517
     31875     28517     31878     28517     31881     28517     31884     28517
     31887     28517     31890     28517     31893     28517     31896     28517
     31899     28517     31902     28517     31905     28517     31908     28517
     31911     28517     31914     28517     31917     28517     31920     28517
     31923     28517     31926     28517     31929     28517     31932     28517
     31935     28517     31938     28517     31941     28517     31944     28517
     31947     28517     31950     28517     31953     28517     31956     28517
     31959     28517     31962     28517     31965     28517     31968     28517
     31971     28517     31974     28517     31977     28517     31980     28517
     31983     28517     31986     28517     31989     28517     31992     28517
     31995     28517     31998     28517     32001     28517     32004     28517
     32007     28517     32010     28517     32013     28517     32016     28517
     32019     28517     32022     28517     32025     28517     32028     28517
     32031     28517     32034     28517     32037     28517     32040     28517
     32043     28517     32046     28517     32049     28517     32052     28517
     32055     28517     32058     28517     32061     28517     32064     28517
     32067     28517     32070     28517     32073     28517     32076     28517
     32079     28517     32082     28517     32085     28517     32088     28517
     32091     28517     32094     28517     32097     28517     32100     28517
     32103     28517     32106     28517     32109     28517     32112     28517
     32115     28517     32118     28517     32121     28517     32124     28517
     32127     28517     32130     28517     32133     28517     32136     28517
     32139     28517     32142     28517     32145     28517     32148     28517
     32151     28517     32154     28517     32157     28517     32160     28517
     32163     28517     32166     28517     32169     28517     32172     28517
     32175     28517     32178     28517     32181     28517     32184     28517
     32187     28517     32190     28517     32193     28517     32196     28517
     32199     28517     32202     28517     32205     28517     32208     28517
     32211     28517     32214     28517     32217     28517     32220     28517
     32223     28517     32226     28517     32229     28517     32232     28517
     32235     28517     32238     28517     32241     28517     32244     28517
     32247     28517     32250     28517     32253     28517     32256     28517
     32259     28517     32262     28517     32265     28517     32268     28517
     32271     28517     32274     28517     32277     28517     32280     28517
     32283     28517     32286     28517     32289     28517     32292     28517
     32295     28517     32298     28517     32301     28517     32304     28517
     32307     28517     32310     28517     32313     28517     32316     28517
     32319     28517     32322     28517     32325     28517     32328     28517
     32331     28517     32334     28517     32337     28517     32340     28517
     32343     28517     32346     28517     32349     28517     32352     28517
     32355     28517     32358     28517     32361     28517     32364     28517
     32367     28517     32370     28517     32373     28517     32376     28517
     32379     28517     32382     28517     32385     28517     32388     28517
     32391     28517     32394     28517     32397     28517     32400     28517
     32403     28517     32406     28517     32409     28517     32412     28517
     32415     28517     32418     28517     32421     28517     32424     28517
     32427     28517     32430     28517     32433     28517     32436     28517
     32439     28517     32442     28517     32445     28517     32448     28517
     32451     28517     32454     28517     32457     28517     32460     28517
     32463     28517     32466     28517     32469     28517     32472     28517
     32475     28517     32478     28517     32481     28517     32484     28517
     32487     28517     32490     28517     32493     28517     32496     28517
     32499     28517     32502     28517     32505     28517     32508     28517
     32511     28517     32514     28517     32517     28517     32520     28517
     32523     28517     32526     28517     32529     28517     32532     28517
     32535     28517     32538     28517     32541     28517     32544     28517
     32547     28517     32550     28517     32553     28517     32556     28517
     32559     28517     32562     28517     32565     28517     32568     28517
     32571     28517     32574     28517     32577     28517     32580     28517
     32583     28517     32586     28517     32589     28517     32592     28517
     32595     28517     32598     28517     32601     28517     32604     28517
     32607     28517     32610     28517     32613     28517     32616     28517
     32619     28517     32622     28517     32625     28517     32628     28517
     32631     28517     32634     28517     32637     28517     32640     28517
     32643     28517     32646     28517     32649     28517     32652     28517
     32655     28517     32658     28517     32661     28517     32664     28517
     32667     28517     32670     28517     32673     28517     32676     28517
     32679     28517     32682     28517     32685     28517     32688     28517
     32691     28517     32694     28517     32697     28517     32700     28517
     32703     28517     32706     28517     32709     28517     32712     28517
     32715     28517     32718     28517     32721     28517     32724     28517
     32727     28517     32730     28517     32733     28517     32736     28517
     32739     28517     32742     28517     32745     28517     32748     28517
     32751     28517     32754     28517     32757     28517     32760     28517
     32763     28517     32766     28517     32769     28517     32772     28517
     32775     28517     32778     28517     32781     28517     32784     28517
     32787     28517     32790     28517     32793     28517     32796     28517
     32799     28517     32802     28517     32805     28517     32808     28517
     32811     28517     32814     28517     32817     28517     32820     28517
     32823     28517     32826     28517     32829     28517     32832     28517
     32835     28517     32838     28517     32841     28517     32844     28517
     32847     28517     32850     28517     32853     28517     32856     28517
     32859     28517     32862     28517     32865     28517     32868     28517
     32871     28517     32874     28517     32877     28517     32880     28517
     32883     28517     32886     28517     32889     28517     32892     28517
     32895     28517     32898     28517     32901     28517     32904     28517
     32907     28517     32910     28517     32913     28517     32916     28517
     32919     28517     32922     28517     32925     28517     32928     28517
     32931     28517     32934     28517     32937     28517     32940     28517
     32943     28517     32946     28517     32949     28517     32952     28517
     32955     28517     32958     28517     32961     28517     32964     28517
     32967     28517     32970     28517     32973     28517     32976     28517
     32979     28517     32982     28517     32985     28517     32988     28517
     32991     28517     32994     28517     32997     28517     33000     28517
     33003     28517     33006     28517     33009     28517     33012     28517
     33015     28517     33018     28517     33021     28517     33024     28517
     33027     28517     33030     28517     33033     28517     33036     28517
     33039     28517     33042     28517     33045     28517     33048     28517
     33051     28517     33054     28517     33057     28517     33060     28517
     33063     28517     33066     28517     33069     28517     33072     28517
     33075     28517     33078     28517     33081     28517     33084     28517
     33087     28517     33090     28517     33093     28517     33096     28517
     33099     28517     33102     28517     33105     28517     33108     28517
     33111     28517     33114     28517     33117     28517     33120     28517
     33123     28517     33126     28517     33129     28517     33132     28517
     33135     28517     33138     28517     33141     28517     33144     28517
     33147     28517     33150     28517     33153     28517     33156     28517
     33159     28517     33162     28517     33165     28517     33168     28517
     33171     28517     33174     28517     33177     28517     33180     28517
     33183     28517     33186     28517     33189     28517     33192     28517
     33195     28517     33198     28517     33201     28517     33204     28517
     33207     28517     33210     28517     33213     28517     33216     28517
     33219     28517     33222     28517     33225     28517     33228     28517
     33231     28517     33234     28517     33237     28517     33240     28517
     33243     28517     33246     28517     33249     28517     33252     28517
     33255     28517     33258     28517     33261     28517     33264     28517
     33267     28517     33270     28517     33273     28517     33276     28517
     33279     28517     33282     28517     33285     28517     33288     28517
     33291     28517     33294     28517     33297     28517     33300     28517
     33303     28517     33306     28517     33309     28517     33312     28517
     33315     28517     33318     28517     33321     28517     33324     28517
     33327     28517     33330     28517     33333     28517     33336     28517
     33339     28517     33342     28517     33345     28517     33348     28517
     33351     28517     33354     28517     33357     28517     33360     28517
     33363     28517     33366     28517     33369     28517     33372     28517
     33375     28517     33378     28517     33381     28517     33384     28517
     33387     28517     33390     28517     33393     28517     33396     28517
     33399     28517     33402     28517     33405     28517     33408     28517
     33411     28517     33414     28517     33417     28517     33420     28517
     33423     28517     33426     28517     33429     28517     33432     28517
     33435     28517     33438     28517     33441     28517     33444     28517
     33447     28517     33450     28517     33453     28517     33456     28517
     33459     28517     33462     28517     33465     28517     33468     28517
     33471     28517     33474     28517     33477     28517     33480     28517
     33483     28517     33486     28517     33489     28517     33492     28517
     33495     28517     33498     28517     33501     28517     33504     28517
     33507     28517     33510     28517     33513     28517     33516     28517
     33519     28517     33522     28517     33525     28517     33528     28517
     33531     28517     33534     28517     33537     28517     33540     28517
     33543     28517     33546     28517     33549     28517     33552     28517
     33555     28517     33558     28517     33561     28517     33564     28517
     33567     28517     33570     28517     33573     28517     33576     28517
     33579     28517     33582     28517     33585     28517     33588     28517
     33591     28517     33594     28517     33597     28517     33600     28517
     33603     28517     33606     28517     33609     28517     33612     28517
     33615     28517     33618     28517     33621     28517     33624     28517
     33627     28517     33630     28517     33633     28517     33636     28517
     33639     28517     33642     28517     33645     28517     33648     28517
     33651     28517     33654     28517     33657     28517     33660     28517
     33663     28517     33666     28517     33669     28517     33672     28517
     33675     28517     33678     28517     33681     28517     33684     28517
     33687     28517     33690     28517     33693     28517     33696     28517
     33699     28517     33702     28517     33705     28517     33708     28517
     33711     28517     33714     28517     33717     28517     33720     28517
     33723     28517     33726     28517     33729     28517     33732     28517
     33735     28517     33738     28517     33741     28517     33744     28517
     33747     28517     33750     28517     33753     28517     33756     28517
     33759     28517     33762     28517     33765     28517     33768     28517
     33771     28517     33774     28517     33777     28517     33780     28517
     33783     28517     33786     28517     33789     28517     33792     28517
     33795     28517     33798     28517     33801     28517     33804     28517
     33807     28517     33810     28517     33813     28517     33816     28517
     33819     28517     33822     28517     33825     28517     33828     28517
     33831     28517     33834     28517     33837     28517     33840     28517
     33843     28517     33846     28517     33849     28517     33852     28517
     33855     28517     33858     28517     33861     28517     33864     28517
     33867     28517     33870     28517     33873     28517     33876     28517
     33879     28517     33882     28517     33885     28517     33888     28517
     33891     28517     33894     28517     33897     28517     33900     28517
     33903     28517     33906     28517     33909     28517     33912     28517
     33915     28517     33918     28517     33921     28517     33924     28517
     33927     28517     33930     28517     33933     28517     33936     28517
     33939     28517     33942     28517     33945     28517     33948     28517
     33951     28517     33954     28517     33957     28517     33960     28517
     33963     28517     33966     28517     33969     28517     33972     28517
     33975     28517     33978     28517     33981     28517     33984     28517
     33987     28517     33990     28517     33993     28517     33996     28517
     33999     28517     34002     28517     34005     28517     34008     28517
     34011     28517     34014     28517     34017     28517     34020     28517
     34023     28517     34026     28517     34029     28517     34032     28517
     34035     28517     34038     28517     34041     28517     34044     28517
     34047     28517     34050     28517     34053     28517     34056     28517
     34059     28517     34062     28517     34065     28517     34068     28517
     34071     28517     34074     28517     34077     28517     34080     28517
     34083     28517     34086     28517     34089     28517     34092     28517
     34095     28517     34098     28517     34101     28517     34104     28517
     34107     28517     34110     28517     34113     28517     34116     28517
     34119     28517     34122     28517     34125     28517     34128     28517
     34131     28517     34134     28517     34137     28517     34140     28517
     34143     28517     34146     28517     34149     28517     34152     28517
     34155     28517     34158     28517     34161     28517     34164     28517
     34167     28517     34170     28517     34173     28517     34176     28517
     34179     28517     34182     28517     34185     28517     34188     28517
     34191     28517     34194     28517     34197     28517     34200     28517
     34203     28517     34206     28517     34209     28517     34212     28517
     34215     28517     34218     28517     34221     28517     34224     28517
     34227     28517     34230     28517     34233     28517     34236     28517
     34239     28517     34242     28517     34245     28517     34248     28517
     34251     28517     34254     28517     34257     28517     34260     28517
     34263     28517     34266     28517     34269     28517     34272     28517
     34275     28517     34278     28517     34281     28517     34284     28517
     34287     28517     34290     28517     34293     28517     34296     28517
     34299     28517     34302     28517     34305     28517     34308     28517
     34311     28517     34314     28517     34317     28517     34320     28517
     34323     28517     34326     28517     34329     28517     34332     28517
     34335     28517     34338     28517     34341     28517     34344     28517
     34347     28517     34350     28517     34353     28517     34356     28517
     34359     28517     34362     28517     34365     28517     34368     28517
     34371     28517     34374     28517     34377     28517     34380     28517
     34383     28517     34386     28517     34389     28517     34392     28517
     34395     28517     34398     28517     34401     28517     34404     28517
     34407     28517     34410     28517     34413     28517     34416     28517
     34419     28517     34422     28517     34425     28517     34428     28517
     34431     28517     34434     28517     34437     28517     34440     28517
     34443     28517     34446     28517     34449     28517     34452     28517
     34455     28517     34458     28517     34461     28517     34464     28517
     34467     28517     34470     28517     34473     28517     34476     28517
     34479     28517     34482     28517     34485     28517     34488     28517
     34491     28517     34494     28517     34497     28517     34500     28517
     34503     28517     34506     28517     34509     28517     34512     28517
     34515     28517     34518     28517     34521     28517     34524     28517
     34527     28517     34530     28517     34533     28517     34536     28517
     34539     28517     34542     28517     34545     28517     34548     28517
     34551     28517     34554     28517     34557     28517     34560     28517
     34563     28517     34566     28517     34569     28517     34572     28517
     34575     28517     34578     28517     34581     28517     34584     28517
     34587     28517     34590     28517     34593     28517     34596     28517
     34599     28517     34602     28517     34605     28517     34608     28517
     34611     28517     34614     28517     34617     28517     34620     28517
     34623     28517     34626     28517     34629     28517     34632     28517
     34635     28517     34638     28517     34641     28517     34644     28517
     34647     28517     34650     28517     34653     28517     34656     28517
     34659     28517     34662     28517     34665     28517     34668     28517
     34671     28517     34674     28517     34677     28517     34680     28517
     34683     28517     34686     28517     34689     28517     34692     28517
     34695     28517     34698     28517     34701     28517     34704     28517
     34707     28517     34710     28517     34713     28517     34716     28517
     34719     28517     34722     28517     34725     28517     34728     28517
     34731     28517     34734     28517     34737     28517     34740     28517
     34743     28517     34746     28517     34749     28517     34752     28517
     34755     28517     34758     28517     34761     28517     34764     28517
     34767     28517     34770     28517     34773     28517     34776     28517
     34779     28517     34782     28517     34785     28517     34788     28517
     34791     28517     34794     28517     34797     28517     34800     28517
     34803     28517     34806     28517     34809     28517     34812     28517
     34815     28517     34818     28517     34821     28517     34824     28517
     34827     28517     34830     28517     34833     28517     34836     28517
     34839     28517     34842     28517     34845     28517     34848     28517
     34851     28517     34854     28517     34857     28517     34860     28517
     34863     28517     34866     28517     34869     28517     34872     28517
     34875     28517     34878     28517     34881     28517     34884     28517
     34887     28517     34890     28517     34893     28517     34896     28517
     34899     28517     34902     28517     34905     28517     34908     28517
     34911     28517     34914     28517     34917     28517     34920     28517
     34923     28517     34926     28517     34929     28517     34932     28517
     34935     28517     34938     28517     34941     28517     34944     28517
     34947     28517     34950     28517     34953     28517     34956     28517
     34959     28517     34962     28517     34965     28517     34968     28517
     34971     28517     34974     28517     34977     28517     34980     28517
     34983     28517     34986     28517     34989     28517     34992     28517
     34995     28517     34998     28517     35001     28517     35004     28517
     35007     28517     35010     28517     35013     28517     35016     28517
     35019     28517     35022     28517     35025     28517     35028     28517
     35031     28517     35034     28517     35037     28517     35040     28517
     35043     28517     35046     28517     35049     28517     35052     28517
     35055     28517     35058     28517     35061     28517     35064     28517
     35067     28517     35070     28517     35073     28517     35076     28517
     35079     28517     35082     28517     35085     28517     35088     28517
     35091     28517     35094     28517     35097     28517     35100     28517
     35103     28517     35106     28517     35109     28517     35112     28517
     35115     28517     35118     28517     35121     28517     35124     28517
     35127     28517     35130     28517     35133     28517     35136     28517
     35139     28517     35142     28517     35145     28517     35148     28517
     35151     28517     35154     28517     35157     28517     35160     28517
     35163     28517     35166     28517     35169     28517     35172     28517
     35175     28517     35178     28517     35181     28517     35184     28517
     35187     28517     35190     28517     35193     28517     35196     28517
     35199     28517     35202     28517     35205     28517     35208     28517
     35211     28517     35214     28517     35217     28517     35220     28517
     35223     28517     35226     28517     35229     28517     35232     28517
     35235     28517     35238     28517     35241     28517     35244     28517
     35247     28517     35250     28517     35253     28517     35256     28517
     35259     28517     35262     28517     35265     28517     35268     28517
     35271     28517     35274     28517     35277     28517     35280     28517
     35283     28517     35286     28517     35289     28517     35292     28517
     35295     28517     35298     28517     35301     28517     35304     28517
     35307     28517     35310     28517     35313     28517     35316     28517
     35319     28517     35322     28517     35325     28517     35328     28517
     35331     28517     35334     28517     35337     28517     35340     28517
     35343     28517     35346     28517     35349     28517     35352     28517
     35355     28517     35358     28517     35361     28517     35364     28517
     35367     28517     35370     28517     35373     28517     35376     28517
     35379     28517     35382     28517     35385     28517     35388     28517
     35391     28517     35394     28517     35397     28517     35400     28517
     35403     28517     35406     28517     35409     28517     35412     28517
     35415     28517     35418     28517     35421     28517     35424     28517
     35427     28517     35430     28517     35433     28517     35436     28517
     35439     28517     35442     28517     35445     28517     35448     28517
     35451     28517     35454     28517     35457     28517     35460     28517
     35463     28517     35466     28517     35469     28517     35472     28517
     35475     28517     35478     28517     35481     28517     35484     28517
     35487     28517     35490     28517     35493     28517     35496     28517
     35499     28517     35502     28517     35505     28517     35508     28517
     35511     28517     35514     28517     35517     28517     35520     28517
     35523     28517     35526     28517     35529     28517     35532     28517
     35535     28517     35538     28517     35541     28517     35544     28517
     35547     28517     35550     28517     35553     28517     35556     28517
     35559     28517     35562     28517     35565     28517     35568     28517
     35571     28517     35574     28517     35577     28517     35580     28517
     35583     28517     35586     28517     35589     28517     35592     28517
     35595     28517     35598     28517     35601     28517     35604     28517
     35607     28517     35610     28517     35613     28517     35616     28517
     35619     28517     35622     28517     35625     28517     35628     28517
     35631     28517     35634     28517     35637     28517     35640     28517
     35643     28517     35646     28517     35649     28517     35652     28517
     35655     28517     35658     28517     35661     28517     35664     28517
     35667     28517     35670     28517     35673     28517     35676     28517
     35679     28517     35682     28517     35685     28517     35688     28517
     35691     28517     35694     28517     35697     28517     35700     28517
     35703     28517     35706     28517     35709     28517     35712     28517
     35715     28517     35718     28517     35721     28517     35724     28517
     35727     28517     35730     28517     35733     28517     35736     28517
     35739     28517     35742     28517     35745     28517     35748     28517
     35751     28517     35754     28517     35757     28517     35760     28517
     35763     28517     35766     28517     35769     28517     35772     28517
     35775     28517     35778     28517     35781     28517     35784     28517
     35787     28517     35790     28517     35793     28517     35796     28517
     35799     28517     35802     28517     35805     28517     35808     28517
     35811     28517     35814     28517     35817     28517     35820     28517
     35823     28517     35826     28517     35829     28517     35832     28517
     35835     28517     35838     28517     35841     28517     35844     28517
     35847     28517     35850     28517     35853     28517     35856     28517
     35859     28517     35862     28517     35865     28517     35868     28517
     35871     28517     35874     28517     35877     28517     35880     28517
     35883     28517     35886     28517     35889     28517     35892     28517
     35895     28517     35898     28517     35901     28517     35904     28517
     35907     28517     35910     28517     35913     28517     35916     28517
     35919     28517     35922     28517     35925     28517     35928     28517
     35931     28517     35934     28517     35937     28517     35940     28517
     35943     28517     35946     28517     35949     28517     35952     28517
     35955     28517     35958     28517     35961     28517     35964     28517
     35967     28517     35970     28517     35973     28517     35976     28517
     35979     28517     35982     28517     35985     28517     35988     28517
     35991     28517     35994     28517     35997     28517     36000     28517
     36003     28517     36006     28517     36009     28517     36012     28517
     36015     28517     36018     28517     36021     28517     36024     28517
     36027     28517     36030     28517     36033     28517     36036     28517
     36039     28517     36042     28517     36045     28517     36048     28517
     36051     28517     36054     28517     36057     28517     36060     28517
     36063     28517     36066     28517     36069     28517     36072     28517
     36075     28517     36078     28517     36081     28517     36084     28517
     36087     28517     36090     28517     36093     28517     36096     28517
     36099     28517     36102     28517     36105     28517     36108     28517
     36111     28517     36114     28517     36117     28517     36120     28517
     36123     28517     36126     28517     36129     28517     36132     28517
     36135     28517     36138     28517     36141     28517     36144     28517
     36147     28517     36150     28517     36153     28517     36156     28517
     36159     28517     36162     28517     36165     28517     36168     28517
     36171     28517     36174     28517     36177     28517     36180     28517
     36183     28517     36186     28517     36189     28517     36192     28517
     36195     28517     36198     28517     36201     28517     36204     28517
     36207     28517     36210     28517     36213     28517     36216     28517
     36219     28517     36222     28517     36225     28517     36228     28517
     36231     28517     36234     28517     36237     28517     36240     28517
     36243     28517     36246     28517     36249     28517     36252     28517
     36255     28517     36258     28517     36261     28517     36264     28517
     36267     28517     36270     28517     36273     28517     36276     28517
     36279     28517     36282     28517     36285     28517     36288     28517
     36291     28517     36294     28517     36297     28517     36300     28517
     36303     28517     36306     28517     36309     28517     36312     28517
     36315     28517     36318     28517     36321     28517     36324     28517
     36327     28517     36330     28517     36333     28517     36336     28517
     36339     28517     36342     28517     36345     28517     36348     28517
     36351     28517     36354     28517     36357     28517     36360     28517
     36363     28517     36366     28517     36369     28517     36372     28517
     36375     28517     36378     28517     36381     28517     36384     28517
     36387     28517     36390     28517     36393     28517     36396     28517
     36399     28517     36402     28517     36405     28517     36408     28517
     36411     28517     36414     28517     36417     28517     36420     28517
     36423     28517     36426     28517     36429     28517     36432     28517
     36435     28517     36438     28517     36441     28517     36444     28517
     36447     28517     36450     28517     36453     28517     36456     28517
     36459     28517     36462     28517     36465     28517     36468     28517
     36471     28517     36474     28517     36477     28517     36480     28517
     36483     28517     36486     28517     36489     28517     36492     28517
     36495     28517     36498     28517     36501     28517     36504     28517
     36507     28517     36510     28517     36513     28517     36516     28517
     36519     28517     36522     28517     36525     28517     36528     28517
     36531     28517     36534     28517     36537     28517     36540     28517
     36543     28517     36546     28517     36549     28517     36552     28517
     36555     28517     36558     28517     36561     28517     36564     28517
     36567     28517     36570     28517     36573     28517     36576     28517
     36579     28517     36582     28517     36585     28517     36588     28517
     36591     28517     36594     28517     36597     28517     36600     28517
     36603     28517     36606     28517     36609     28517     36612     28517
     36615     28517     36618     28517     36621     28517     36624     28517
     36627     28517     36630     28517     36633     28517     36636     28517
     36639     28517     36642     28517     36645     28517     36648     28517
     36651     28517     36654     28517     36657     28517     36660     28517
     36663     28517     36666     28517     36669     28517     36672     28517
     36675     28517     36678     28517     36681     28517     36684     28517
     36687     28517     36690     28517     36693     28517     36696     28517
     36699     28517     36702     28517     36705     28517     36708     28517
     36711     28517     36714     28517     36717     28517     36720     28517
     36723     28517     36726     28517     36729     28517     36732     28517
     36735     28517     36738     28517     36741     28517     36744     28517
     36747     28517     36750     28517     36753     28517     36756     28517
     36759     28517     36762     28517     36765     28517     36768     28517
     36771     28517     36774     28517     36777     28517     36780     28517
     36783     28517     36786     28517     36789     28517     36792     28517
     36795     28517     36798     28517     36801     28517     36804     28517
     36807     28517     36810     28517     36813     28517     36816     28517
     36819     28517     36822     28517     36825     28517     36828     28517
     36831     28517     36834     28517     36837     28517     36840     28517
     36843     28517     36846     28517     36849     28517     36852     28517
     36855     28517     36858     28517     36861     28517     36864     28517
     36867     28517     36870     28517     36873     28517     36876     28517
     36879     28517     36882     28517     36885     28517     36888     28517
     36891     28517     36894     28517     36897     28517     36900     28517
     36903     28517     36906     28517     36909     28517     36912     28517
     36915     28517     36918     28517     36921     28517     36924     28517
     36927     28517     36930     28517     36933     28517     36936     28517
     36939     28517     36942     28517     36945     28517     36948     28517
     36951     28517     36954     28517     36957     28517     36960     28517
     36963     28517     36966     28517     36969     28517     36972     28517
     36975     28517     36978     28517     36981     28517     36984     28517
     36987     28517     36990     28517     36993     28517     36996     28517
     36999     28517     37002     28517     37005     28517     37008     28517
     37011     28517     37014     28517     37017     28517     37020     28517
     37023     28517     37026     28517     37029     28517     37032     28517
     37035     28517     37038     28517     37041     28517     37044     28517
     37047     28517     37050     28517     37053     28517     37056     28517
     37059     28517     37062     28517     37065     28517     37068     28517
     37071     28517     37074     28517     37077     28517     37080     28517
     37083     28517     37086     28517     37089     28517     37092     28517
     37095     28517     37098     28517     37101     28517     37104     28517
     37107     28517     37110     28517     37113     28517     37116     28517
     37119     28517     37122     28517     37125     28517     37128     28517
     37131     28517     37134     28517     37137     28517     37140     28517
     37143     28517     37146     28517     37149     28517     37152     28517
     37155     28517     37158     28517     37161     28517     37164     28517
     37167     28517     37170     28517     37173     28517     37176     28517
     37179     28517     37182     28517     37185     28517     37188     28517
     37191     28517     37194     28517     37197     28517     37200     28517
     37203     28517     37206     28517     37209     28517     37212     28517
     37215     28517     37218     28517     37221     28517     37224     28517
     37227     28517     37230     28517     37233     28517     37236     28517
     37239     28517     37242     28517     37245     28517     37248     28517
     37251     28517     37254     28517     37257     28517     37260     28517
     37263     28517     37266     28517     37269     28517     37272     28517
     37275     28517     37278     28517     37281     28517     37284     28517
     37287     28517     37290     28517     37293     28517     37296     28517
     37299     28517     37302     28517     37305     28517     37308     28517
     37311     28517     37314     28517     37317     28517     37320     28517
     37323     28517     37326     28517     37329     28517     37332     28517
     37335     28517     37338     28517     37341     28517     37344     28517
     37347     28517     37350     28517     37353     28517     37356     28517
     37359     28517     37362     28517     37365     28517     37368     28517
     37371     28517     37374     28517     37377     28517     37380     28517
     37383     28517     37386     28517     37389     28517     37392     28517
     37395     28517     37398     28517     37401     28517     37404     28517
     37407     28517     37410     28517     37413     28517     37416     28517
     37419     28517     37422     28517     37425     28517     37428     28517
     37431     28517     37434     28517     37437     28517     37440     28517
     37443     28517     37446     28517     37449     28517     37452     28517
     37455     28517     37458     28517     37461     28517     37464     28517
     37467     28517     37470     28517     37473     28517     37476     28517
     37479     28517     37482     28517     37485     28517     37488     28517
     37491     28517     37494     28517     37497     28517     37500     28517
     37503     28517     37506     28517     37509     28517     37512     28517
     37515     28517     37518     28517     37521     28517     37524     28517
     37527     28517     37530     28517     37533     28517     37536     28517
     37539     28517     37542     28517     37545     28517     37548     28517
     37551     28517     37554     28517     37557     28517     37560     28517
     37563     28517     37566     28517     37569     28517     37572     28517
     37575     28517     37578     28517     37581     28517     37584     28517
     37587     28517     37590     28517     37593     28517     37596     28517
     37599     28517     37602     28517     37605     28517     37608     28517
     37611     28517     37614     28517     37617     28517     37620     28517
     37623     28517     37626     28517     37629     28517     37632     28517
     37635     28517     37638     28517     37641     28517     37644     28517
     37647     28517     37650     28517     37653     28517     37656     28517
     37659     28517     37662     28517     37665     28517     37668     28517
     37671     28517     37674     28517     37677     28517     37680     28517
     37683     28517     37686     28517     37689     28517     37692     28517
     37695     28517     37698     28517     37701     28517     37704     28517
     37707     28517     37710     28517     37713     28517     37716     28517
     37719     28517     37722     28517     37725     28517     37728     28517
     37731     28517     37734     28517     37737     28517     37740     28517
     37743     28517     37746     28517     37749     28517     37752     28517
     37755     28517     37758     28517     37761     28517     37764     28517
     37767     28517     37770     28517     37773     28517     37776     28517
     37779     28517     37782     28517     37785     28517     37788     28517
     37791     28517     37794     28517     37797     28517     37800     28517
     37803     28517     37806     28517     37809     28517     37812     28517
     37815     28517     37818     28517     37821     28517     37824     28517
     37827     28517     37830     28517     37833     28517     37836     28517
     37839     28517     37842     28517     37845     28517     37848     28517
     37851     28517     37854     28517     37857     28517     37860     28517
     37863     28517     37866     28517     37869     28517     37872     28517
     37875     28517     37878     28517     37881     28517     37884     28517
     37887     28517     37890     28517     37893     28517     37896     28517
     37899     28517     37902     28517     37905     28517     37908     28517
     37911     28517     37914     28517     37917     28517     37920     28517
     37923     28517     37926     28517     37929     28517     37932     28517
     37935     28517     37938     28517     37941     28517     37944     28517
     37947     28517     37950     28517     37953     28517     37956     28517
     37959     28517     37962     28517     37965     28517     37968     28517
     37971     28517     37974     28517     37977     28517     37980     28517
     37983     28517     37986     28517     37989     28517     37992     28517
     37995     28517     37998     28517     38001     28517     38004     28517
     38007     28517     38010     28517     38013     28517     38016     28517
     38019     28517     38022     28517     38025     28517     38028     28517
     38031     28517     38034     28517     38037     28517     38040     28517
     38043     28517     38046     28517     38049     28517     38052     28517
     38055     28517     38058     28517     38061     28517     38064     28517
     38067     28517     38070     28517     38073     28517     38076     28517
     38079     28517     38082     28517     38085     28517     38088     28517
     38091     28517     38094     28517     38097     28517     38100     28517
     38103     28517     38106     28517     38109     28517     38112     28517
     38115     28517     38118     28517     38121     28517     38124     28517
     38127     28517     38130     28517     38133     28517     38136     28517
     38139     28517     38142     28517     38145     28517     38148     28517
     38151     28517     38154     28517     38157     28517     38160     28517
     38163     28517     38166     28517     38169     28517     38172     28517
     38175     28517     38178     28517     38181     28517     38184     28517
     38187     28517     38190     28517     38193     28517     38196     28517
     38199     28517     38202     28517     38205     28517     38208     28517
     38211     28517     38214     28517     38217     28517     38220     28517
     38223     28517     38226     28517     38229     28517     38232     28517
     38235     28517     38238     28517     38241     28517     38244     28517
     38247     28517     38250     28517     38253     28517     38256     28517
     38259     28517     38262     28517     38265     28517     38268     28517
     38271     28517     38274     28517     38277     28517     38280     28517
     38283     28517     38286     28517     38289     28517     38292     28517
     38295     28517     38298     28517     38301     28517     38304     28517
     38307     28517     38310     28517     38313     28517     38316     28517
     38319     28517     38322     28517     38325     28517     38328     28517

         0 !NNB

         0         0         0         0         0         0         0         0
         0         0         0         0         0         0         0         0
         0         0         0         0         0         0         0         0
         0         0         0         0         0         0         0         0
         0         0         0         0         0         0         0         0
         0         0         0         0         0         0         0         0
         0         0         0         0         0         0         0         0
         0         0         0         0         0         0         0         0
         0         0         0         0         0         0         0         0
         0         0         0         0         0         0         0         0
         0         0         0         0         0         0         0         0
         0         0         0         0         0         0         0         0
         0         0         0         0         0         0         0         0
         0         0         0         0         0         0         0         0
         0         0         0         0         0         0         0         0
         0         0         0         0         0         0         0         0
         0         0         0         0         0         0         0         0
         0         0         0         0         0         0         0         0
         0         0         0         0         0         0         0         0
         0         0         0         0         0         0         0         0
         0         0         0         0         0         0         0         0
         0         0         0         0         0         0         0         0
         0         0         0         0         0         0         0         0
         0         0         0         0         0         0         0         0
         0         0         0         0         0         0         0         0
         0         0         0         0         0         0         0         0
         0         0         0         0         0         0         0         0
         0         0         0         0         0         0         0         0
         0         0         0         0         0         0         0         0
         0         0         0         0         0         0         0         0
         0         0         0         0         0         0         0         0
         0         0         0         0         0         0         0         0
         0         0         0         0         0         0         0         0
         0         0         0         0         0         0         0         0
         0         0         0         0         0         0         0         0
         0         0         0         0         0         0         0         0
         0         0         0         0         0         0         0         0
         0         0         0         0         0         0         0         0
         0         0         0         0         0         0         0         0
         0         0         0         0         0         0         0         0
         0         0         0         0         0         0         0         0
         0         0         0         0         0         0         0         0
         0         0         0         0         0         0         0         0
         0         0         0         0         0         0         0         0
         0         0         0         0         0         0         0         0
         0         0         0         0         0         0         0         0
         0         0         0         0         0         0         0         0
         0         0         0         0         0         0         0         0
         0         0         0         0         0         0         0         0
         0         0         0         0         0         0         0         0
         0         0         0         0         0         0         0         0
         0         0         0         0         0         0         0         0
         0         0         0         0         0         0         0         0
         0         0         0         0         0         0         0         0
         0         0         0         0         0         0         0         0
         0         0         0         0         0         0         0         0
         0         0         0         0         0         0         0         0
         0         0         0         0         0         0         0         0
         0         0         0         0         0         0         0         0
         0         0         0         0         0         0         0         0
         0         0         0         0         0         0         0         0
         0         0         0         0         0         0         0         0
         0         0         0         0         0         0         0         0
         0         0         0         0         0         0         0         0
         0         0         0         0         0         0         0         0
         0         0         0         0         0         0         0         0
         0         0         0         0         0         0         0         0
         0         0         0         0         0         0         0         0
         0         0         0         0         0         0         0         0
         0         0         0         0         0         0         0         0
         0         0         0         0         0         0         0         0
         0         0         0         0         0         0         0         0
         0         0         0         0         0         0         0         0
         0         0         0         0         0         0         0         0
         0         0         0         0         0         0         0         0
         0         0         0         0         0         0         0         0
         0         0         0         0         0         0         0         0
         0         0         0         0         0         0         0         0
         0         0         0         0         0         0         0         0
         0         0         0         0         0         0         0         0
         0         0         0         0         0         0         0         0
         0         0         0         0         0         0         0         0
         0         0         0         0         0         0         0         0
         0         0         0         0         0         0         0         0
         0         0         0         0         0         0         0         0
         0         0         0         0         0         0         0         0
         0         0         0         0         0         0         0         0
         0         0         0         0         0         0         0         0
         0         0         0         0         0         0         0         0
         0         0         0         0         0         0         0         0
         0         0         0         0         0         0         0         0
         0         0         0         0         0         0         0         0
         0         0         0         0         0         0         0         0
         0         0         0         0         0         0         0         0
         0         0         0         0         0         0         0         0
         0         0         0         0         0         0         0         0
         0         0         0         0         0         0         0         0
         0         0         0         0         0         0         0         0
         0         0         0         0         0         0         0         0
         0         0         0         0         0         0         0         0
         0         0         0         0         0         0         0         0
         0         0         0         0         0         0         0         0
         0         0         0         0         0         0         0         0
         0         0         0         0         0         0         0         0
         0         0         0         0         0         0         0         0
         0         0         0         0         0         0         0         0
         0         0         0         0         0         0         0         0
         0         0         0         0         0         0         0         0
         0         0         0         0         0         0         0         0
         0         0         0         0         0         0         0         0
         0         0         0         0         0         0         0         0
         0         0         0         0         0         0         0         0
         0         0         0         0         0         0         0         0
         0         0         0         0         0         0         0         0
         0         0         0         0         0         0         0         0
         0         0         0         0         0         0         0         0
         0         0         0         0         0         0         0         0
         0         0         0         0         0         0         0         0
         0         0         0         0         0         0         0         0
         0         0         0         0         0         0         0         0
         0         0         0         0         0         0         0         0
         0         0         0         0         0         0         0         0
         0         0         0         0         0         0         0         0
         0         0         0         0         0         0         0         0
         0         0         0         0         0         0         0         0
         0         0         0         0         0         0         0         0
         0         0         0         0         0         0         0         0
         0         0         0         0         0         0         0         0
         0         0         0         0         0         0         0         0
         0         0         0         0         0         0         0         0
         0         0         0         0         0         0         0         0
         0         0         0         0         0         0         0         0
         0         0         0         0         0         0         0         0
         0         0         0         0         0         0         0         0
         0         0         0         0         0         0         0         0
         0         0         0         0         0         0         0         0
         0         0         0         0         0         0         0         0
         0         0         0         0         0         0         0         0
         0         0         0         0         0         0         0         0
         0         0         0         0         0         0         0         0
         0         0         0         0         0         0         0         0
         0         0         0         0         0         0         0         0
         0         0         0         0         0         0         0         0
         0         0         0         0         0         0         0         0
         0         0         0         0         0         0         0         0
         0         0         0         0         0         0         0         0
         0         0         0         0         0         0         0         0
         0         0         0         0         0         0         0         0
         0         0         0         0         0         0         0         0
         0         0         0         0         0         0         0         0
         0         0         0         0         0         0         0         0
         0         0         0         0         0         0         0         0
         0         0         0         0         0         0         0         0
         0         0         0         0         0         0         0         0
         0         0         0         0         0         0         0         0
         0         0         0         0         0         0         0         0
         0         0         0         0         0         0         0         0
         0         0         0         0         0         0         0         0
         0         0         0         0         0         0         0         0
         0         0         0         0         0         0         0         0
         0         0         0         0         0         0         0         0
         0         0         0         0         0         0         0         0
         0         0         0         0         0         0         0         0
         0         0         0         0         0         0         0         0
         0         0         0         0         0         0         0         0
         0         0         0         0         0         0         0         0
         0         0         0         0         0         0         0         0
         0         0         0         0         0         0         0         0
         0         0         0         0         0         0         0         0
         0         0         0         0         0         0         0         0
         0         0         0         0         0         0         0         0
         0         0         0         0         0         0         0         0
         0         0         0         0         0         0         0         0
         0         0         0         0         0         0         0         0
         0         0         0         0         0         0         0         0
         0         0         0         0         0         0         0         0
         0         0         0         0         0         0         0         0
         0         0         0         0         0         0         0         0
         0         0         0         0         0         0         0         0
         0         0         0         0         0         0         0         0
         0         0         0         0         0         0         0         0
         0         0         0         0         0         0         0         0
         0         0         0         0         0         0         0         0
         0         0         0         0         0         0         0         0
         0         0         0         0         0         0         0         0
         0         0         0         0         0         0         0         0
         0         0         0         0         0         0         0         0
         0         0         0         0         0         0         0         0
         0         0         0         0         0         0         0         0
         0         0         0         0         0         0         0         0
         0         0         0         0         0         0         0         0
         0         0         0         0         0         0         0         0
         0         0         0         0         0         0         0         0
         0         0         0         0         0         0         0         0
         0         0         0         0         0         0         0         0
         0         0         0         0         0         0         0         0
         0         0         0         0         0         0         0         0
         0         0         0         0         0         0         0         0
         0         0         0         0         0         0         0         0
         0         0         0         0         0         0         0         0
         0         0         0         0         0         0         0         0
         0         0         0         0         0         0         0         0
         0         0         0         0         0         0         0         0
         0         0         0         0         0         0         0         0
         0         0         0         0         0         0         0         0
         0         0         0         0         0         0         0         0
         0         0         0         0         0         0         0         0
         0         0         0         0         0         0         0         0
         0         0         0         0         0         0         0         0
         0         0         0         0         0         0         0         0
         0         0         0         0         0         0         0         0
         0         0         0         0         0         0         0         0
         0         0         0         0         0         0         0         0
         0         0         0         0         0         0         0         0
         0         0         0         0         0         0         0         0
         0         0         0         0         0         0         0         0
         0         0         0         0         0         0         0         0
         0         0         0         0         0         0         0         0
         0         0         0         0         0         0         0         0
         0         0         0         0         0         0         0         0
         0         0         0         0         0         0         0         0
         0         0         0         0         0         0         0         0
         0         0         0         0         0         0         0         0
         0         0         0         0         0         0         0         0
         0         0         0         0         0         0         0         0
         0         0         0         0         0         0         0         0
         0         0         0         0         0         0         0         0
         0         0         0         0         0         0         0         0
         0         0         0         0         0         0         0         0
         0         0         0         0         0         0         0         0
         0         0         0         0         0         0         0         0
         0         0         0         0         0         0         0         0
         0         0         0         0         0         0         0         0
         0         0         0         0         0         0         0         0
         0         0         0         0         0         0         0         0
         0         0         0         0         0         0         0         0
         0         0         0         0         0         0         0         0
         0         0         0         0         0         0         0         0
         0         0         0         0         0         0         0         0
         0         0         0         0         0         0         0         0
         0         0         0         0         0         0         0         0
         0         0         0         0         0         0         0         0
         0         0         0         0         0         0         0         0
         0         0         0         0         0         0         0         0
         0         0         0         0         0         0         0         0
         0         0         0         0         0         0         0         0
         0         0         0         0         0         0         0         0
         0         0         0         0         0         0         0         0
         0         0         0         0         0         0         0         0
         0         0         0         0         0         0         0         0
         0         0         0         0         0         0         0         0
         0         0         0         0         0         0         0         0
         0         0         0         0         0         0         0         0
         0         0         0         0         0         0         0         0
         0         0         0         0         0         0         0         0
         0         0         0         0         0         0         0         0
         0         0         0         0         0         0         0         0
         0         0         0         0         0         0         0         0
         0         0         0         0         0         0         0         0
         0         0         0         0         0         0         0         0
         0         0         0         0         0         0         0         0
         0         0         0         0         0         0         0         0
         0         0         0         0         0         0         0         0
         0         0         0         0         0         0         0         0
         0         0         0         0         0         0         0         0
         0         0         0         0         0         0         0         0
         0         0         0         0         0         0         0         0
         0         0         0         0         0         0         0         0
         0         0         0         0         0         0         0         0
         0         0         0         0         0         0         0         0
         0         0         0         0         0         0         0         0
         0         0         0         0         0         0         0         0
         0         0         0         0         0         0         0         0
         0         0         0         0         0         0         0         0
         0         0         0         0         0         0         0         0
         0         0         0         0         0         0         0         0
         0         0         0         0         0         0         0         0
         0         0         0         0         0         0         0         0
         0         0         0         0         0         0         0         0
         0         0         0         0         0         0         0         0
         0         0         0         0         0         0         0         0
         0         0         0         0         0         0         0         0
         0         0         0         0         0         0         0         0
         0         0         0         0         0         0         0         0
         0         0         0         0         0         0         0         0
         0         0         0         0         0         0         0         0
         0         0         0         0         0         0         0         0
         0         0         0         0         0         0         0         0
         0         0         0         0         0         0         0         0
         0         0         0         0         0         0         0         0
         0         0         0         0         0         0         0         0
         0         0         0         0         0         0         0         0
         0         0         0         0         0         0         0         0
         0         0         0         0         0         0         0         0
         0         0         0         0         0         0         0         0
         0         0         0         0         0         0         0         0
         0         0         0         0         0         0         0         0
         0         0         0         0         0         0         0         0
         0         0         0         0         0         0         0         0
         0         0         0         0         0         0         0         0
         0         0         0         0         0         0         0         0
         0         0         0         0         0         0         0         0
         0         0         0         0         0         0         0         0
         0         0         0         0         0         0         0         0
         0         0         0         0         0         0         0         0
         0         0         0         0         0         0         0         0
         0         0         0         0         0         0         0         0
         0         0         0         0         0         0         0         0
         0         0         0         0         0         0         0         0
         0         0         0         0         0         0         0         0
         0         0         0         0         0         0         0         0
         0         0         0         0         0         0         0         0
         0         0         0         0         0         0         0         0
         0         0         0         0         0         0         0         0
         0         0         0         0         0         0         0         0
         0         0         0         0         0         0         0         0
         0         0         0         0         0         0         0         0
         0         0         0         0         0         0         0         0
         0         0         0         0         0         0         0         0
         0         0         0         0         0         0         0         0
         0         0         0         0         0         0         0         0
         0         0         0         0         0         0         0         0
         0         0         0         0         0         0         0         0
         0         0         0         0         0         0         0         0
         0         0         0         0         0         0         0         0
         0         0         0         0         0         0         0         0
         0         0         0         0         0         0         0         0
         0         0         0         0         0         0         0         0
         0         0         0         0         0         0         0         0
         0         0         0         0         0         0         0         0
         0         0         0         0         0         0         0         0
         0         0         0         0         0         0         0         0
         0         0         0         0         0         0         0         0
         0         0         0         0         0         0         0         0
         0         0         0         0         0         0         0         0
         0         0         0         0         0         0         0         0
         0         0         0         0         0         0         0         0
         0         0         0         0         0         0         0         0
         0         0         0         0         0         0         0         0
         0         0         0         0         0         0         0         0
         0         0         0         0         0         0         0         0
         0         0         0         0         0         0         0         0
         0         0         0         0         0         0         0         0
         0         0         0         0         0         0         0         0
         0         0         0         0         0         0         0         0
         0         0         0         0         0         0         0         0
         0         0         0         0         0         0         0         0
         0         0         0         0         0         0         0         0
         0         0         0         0         0         0         0         0
         0         0         0         0         0         0         0         0
         0         0         0         0         0         0         0         0
         0         0         0         0         0         0         0         0
         0         0         0         0         0         0         0         0
         0         0         0         0         0         0         0         0
         0         0         0         0         0         0         0         0
         0         0         0         0         0         0         0         0
         0         0         0         0         0         0         0         0
         0         0         0         0         0         0         0         0
         0         0         0         0         0         0         0         0
         0         0         0         0         0         0         0         0
         0         0         0         0         0         0         0         0
         0         0         0         0         0         0         0         0
         0         0         0         0         0         0         0         0
         0         0         0         0         0         0         0         0
         0         0         0         0         0         0         0         0
         0         0         0         0         0         0         0         0
         0         0         0         0         0         0         0         0
         0         0         0         0         0         0         0         0
         0         0         0         0         0         0         0         0
         0         0         0         0         0         0         0         0
         0         0         0         0         0         0         0         0
         0         0         0         0         0         0         0         0
         0         0         0         0         0         0         0         0
         0         0         0         0         0         0         0         0
         0         0         0         0         0         0         0         0
         0         0         0         0         0         0         0         0
         0         0         0         0         0         0         0         0
         0         0         0         0         0         0         0         0
         0         0         0         0         0         0         0         0
         0         0         0         0         0         0         0         0
         0         0         0         0         0         0         0         0
         0         0         0         0         0         0         0         0
         0         0         0         0         0         0         0         0
         0         0         0         0         0         0         0         0
         0         0         0         0         0         0         0         0
         0         0         0         0         0         0         0         0
         0         0         0         0         0         0         0         0
         0         0         0         0         0         0         0         0
         0         0         0         0         0         0         0         0
         0         0         0         0         0         0         0         0
         0         0         0         0         0         0         0         0
         0         0         0         0         0         0         0         0
         0         0         0         0         0         0         0         0
         0         0         0         0         0         0         0         0
         0         0         0         0         0         0         0         0
         0         0         0         0         0         0         0         0
         0         0         0         0         0         0         0         0
         0         0         0         0         0         0         0         0
         0         0         0         0         0         0         0         0
         0         0         0         0         0         0         0         0
         0         0         0         0         0         0         0         0
         0         0         0         0         0         0         0         0
         0         0         0         0         0         0         0         0
         0         0         0         0         0         0         0         0
         0         0         0         0         0         0         0         0
         0         0         0         0         0         0         0         0
         0         0         0         0         0         0         0         0
         0         0         0         0         0         0         0         0
         0         0         0         0         0         0         0         0
         0         0         0         0         0         0         0         0
         0         0         0         0         0         0         0         0
         0         0         0         0         0         0         0         0
         0         0         0         0         0         0         0         0
         0         0         0         0         0         0         0         0
         0         0         0         0         0         0         0         0
         0         0         0         0         0         0         0         0
         0         0         0         0         0         0         0         0
         0         0         0         0         0         0         0         0
         0         0         0         0         0         0         0         0
         0         0         0         0         0         0         0         0
         0         0         0         0         0         0         0         0
         0         0         0         0         0         0         0         0
         0         0         0         0         0         0         0         0
         0         0         0         0         0         0         0         0
         0         0         0         0         0         0         0         0
         0         0         0         0         0         0         0         0
         0         0         0         0         0         0         0         0
         0         0         0         0         0         0         0         0
         0         0         0         0         0         0         0         0
         0         0         0         0         0         0         0         0
         0         0         0         0         0         0         0         0
         0         0         0         0         0         0         0         0
         0         0         0         0         0         0         0         0
         0         0         0         0         0         0         0         0
         0         0         0         0         0         0         0         0
         0         0         0         0         0         0         0         0
         0         0         0         0         0         0         0         0
         0         0         0         0         0         0         0         0
         0         0         0         0         0         0         0         0
         0         0         0         0         0         0         0         0
         0         0         0         0         0         0         0         0
         0         0         0         0         0         0         0         0
         0         0         0         0         0         0         0         0
         0         0         0         0         0         0         0         0
         0         0         0         0         0         0         0         0
         0         0         0         0         0         0         0         0
         0         0         0         0         0         0         0         0
         0         0         0         0         0         0         0         0
         0         0         0         0         0         0         0         0
         0         0         0         0         0         0         0         0
         0         0         0         0         0         0         0         0
         0         0         0         0         0         0         0         0
         0         0         0         0         0         0         0         0
         0         0         0         0         0         0         0         0
         0         0         0         0         0         0         0         0
         0         0         0         0         0         0         0         0
         0         0         0         0         0         0         0         0
         0         0         0         0         0         0         0         0
         0         0         0         0         0         0         0         0
         0         0         0         0         0         0         0         0
         0         0         0         0         0         0         0         0
         0         0         0         0         0         0         0         0
         0         0         0         0         0         0         0         0
         0         0         0         0         0         0         0         0
         0         0         0         0         0         0         0         0
         0         0         0         0         0         0         0         0
         0         0         0         0         0         0         0         0
         0         0         0         0         0         0         0         0
         0         0         0         0         0         0         0         0
         0         0         0         0         0         0         0         0
         0         0         0         0         0         0         0         0
         0         0         0         0         0         0         0         0
         0         0         0         0         0         0         0         0
         0         0         0         0         0         0         0         0
         0         0         0         0         0         0         0         0
         0         0         0         0         0         0         0         0
         0         0         0         0         0         0         0         0
         0         0         0         0         0         0         0         0
         0         0         0         0         0         0         0         0
         0         0         0         0         0         0         0         0
         0         0         0         0         0         0         0         0
         0         0         0         0         0         0         0         0
         0         0         0         0         0         0         0         0
         0         0         0         0         0         0         0         0
         0         0         0         0         0         0         0         0
         0         0         0         0         0         0         0         0
         0         0         0         0         0         0         0         0
         0         0         0         0         0         0         0         0
         0         0         0         0         0         0         0         0
         0         0         0         0         0         0         0         0
         0         0         0         0         0         0         0         0
         0         0         0         0         0         0         0         0
         0         0         0         0         0         0         0         0
         0         0         0         0         0         0         0         0
         0         0         0         0         0         0         0         0
         0         0         0         0         0         0         0         0
         0         0         0         0         0         0         0         0
         0         0         0         0         0         0         0         0
         0         0         0         0         0         0         0         0
         0         0         0         0         0         0         0         0
         0         0         0         0         0         0         0         0
         0         0         0         0         0         0         0         0
         0         0         0         0         0         0         0         0
         0         0         0         0         0         0         0         0
         0         0         0         0         0         0         0         0
         0         0         0         0         0         0         0         0
         0         0         0         0         0         0         0         0
         0         0         0         0         0         0         0         0
         0         0         0         0         0         0         0         0
         0         0         0         0         0         0         0         0
         0         0         0         0         0         0         0         0
         0         0         0         0         0         0         0         0
         0         0         0         0         0         0         0         0
         0         0         0         0         0         0         0         0
         0         0         0         0         0         0         0         0
         0         0         0         0         0         0         0         0
         0         0         0         0         0         0         0         0
         0         0         0         0         0         0         0         0
         0         0         0         0         0         0         0         0
         0         0         0         0         0         0         0         0
         0         0         0         0         0         0         0         0
         0         0         0         0         0         0         0         0
         0         0         0         0         0         0         0         0
         0         0         0         0         0         0         0         0
         0         0         0         0         0         0         0         0
         0         0         0         0         0         0         0         0
         0         0         0         0         0         0         0         0
         0         0         0         0         0         0         0         0
         0         0         0         0         0         0         0         0
         0         0         0         0         0         0         0         0
         0         0         0         0         0         0         0         0
         0         0         0         0         0         0         0         0
         0         0         0         0         0         0         0         0
         0         0         0         0         0         0         0         0
         0         0         0         0         0         0         0         0
         0         0         0         0         0         0         0         0
         0         0         0         0         0         0         0         0
         0         0         0         0         0         0         0         0
         0         0         0         0         0         0         0         0
         0         0         0         0         0         0         0         0
         0         0         0         0         0         0         0         0
         0         0         0         0         0         0         0         0
         0         0         0         0         0         0         0         0
         0         0         0         0         0         0         0         0
         0         0         0         0         0         0         0         0
         0         0         0         0         0         0         0         0
         0         0         0         0         0         0         0         0
         0         0         0         0         0         0         0         0
         0         0         0         0         0         0         0         0
         0         0         0         0         0         0         0         0
         0         0         0         0         0         0         0         0
         0         0         0         0         0         0         0         0
         0         0         0         0         0         0         0         0
         0         0         0         0         0         0         0         0
         0         0         0         0         0         0         0         0
         0         0         0         0         0         0         0         0
         0         0         0         0         0         0         0         0
         0         0         0         0         0         0         0         0
         0         0         0         0         0         0         0         0
         0         0         0         0         0         0         0         0
         0         0         0         0         0         0         0         0
         0         0         0         0         0         0         0         0
         0         0         0         0         0         0         0         0
         0         0         0         0         0         0         0         0
         0         0         0         0         0         0         0         0
         0         0         0         0         0         0         0         0
         0         0         0         0         0         0         0         0
         0         0         0         0         0         0         0         0
         0         0         0         0         0         0         0         0
         0         0         0         0         0         0         0         0
         0         0         0         0         0         0         0         0
         0         0         0         0         0         0         0         0
         0         0         0         0         0         0         0         0
         0         0         0         0         0         0         0         0
         0         0         0         0         0         0         0         0
         0         0         0         0         0         0         0         0
         0         0         0         0         0         0         0         0
         0         0         0         0         0         0         0         0
         0         0         0         0         0         0         0         0
         0         0         0         0         0         0         0         0
         0         0         0         0         0         0         0         0
         0         0         0         0         0         0         0         0
         0         0         0         0         0         0         0         0
         0         0         0         0         0         0         0         0
         0         0         0         0         0         0         0         0
         0         0         0         0         0         0         0         0
         0         0         0         0         0         0         0         0
         0         0         0         0         0         0         0         0
         0         0         0         0         0         0         0         0
         0         0         0         0         0         0         0         0
         0         0         0         0         0         0         0         0
         0         0         0         0         0         0         0         0
         0         0         0         0         0         0         0         0
         0         0         0         0         0         0         0         0
         0         0         0         0         0         0         0         0
         0         0         0         0         0         0         0         0
         0         0         0         0         0         0         0         0
         0         0         0         0         0         0         0         0
         0         0         0         0         0         0         0         0
         0         0         0         0         0         0         0         0
         0         0         0         0         0         0         0         0
         0         0         0         0         0         0         0         0
         0         0         0         0         0         0         0         0
         0         0         0         0         0         0         0         0
         0         0         0         0         0         0         0         0
         0         0         0         0         0         0         0         0
         0         0         0         0         0         0         0         0
         0         0         0         0         0         0         0         0
         0         0         0         0         0         0         0         0
         0         0         0         0         0         0         0         0
         0         0         0         0         0         0         0         0
         0         0         0         0         0         0         0         0
         0         0         0         0         0         0         0         0
         0         0         0         0         0         0         0         0
         0         0         0         0         0         0         0         0
         0         0         0         0         0         0         0         0
         0         0         0         0         0         0         0         0
         0         0         0         0         0         0         0         0
         0         0         0         0         0         0         0         0
         0         0         0         0         0         0         0         0
         0         0         0         0         0         0         0         0
         0         0         0         0         0         0         0         0
         0         0         0         0         0         0         0         0
         0         0         0         0         0         0         0         0
         0         0         0         0         0         0         0         0
         0         0         0         0         0         0         0         0
         0         0         0         0         0         0         0         0
         0         0         0         0         0         0         0         0
         0         0         0         0         0         0         0         0
         0         0         0         0         0         0         0         0
         0         0         0         0         0         0         0         0
         0         0         0         0         0         0         0         0
         0         0         0         0         0         0         0         0
         0         0         0         0         0         0         0         0
         0         0         0         0         0         0         0         0
         0         0         0         0         0         0         0         0
         0         0         0         0         0         0         0         0
         0         0         0         0         0         0         0         0
         0         0         0         0         0         0         0         0
         0         0         0         0         0         0         0         0
         0         0         0         0         0         0         0         0
         0         0         0         0         0         0         0         0
         0         0         0         0         0         0         0         0
         0         0         0         0         0         0         0         0
         0         0         0         0         0         0         0         0
         0         0         0         0         0         0         0         0
         0         0         0         0         0         0         0         0
         0         0         0         0         0         0         0         0
         0         0         0         0         0         0         0         0
         0         0         0         0         0         0         0         0
         0         0         0         0         0         0         0         0
         0         0         0         0         0         0         0         0
         0         0         0         0         0         0         0         0
         0         0         0         0         0         0         0         0
         0         0         0         0         0         0         0         0
         0         0         0         0         0         0         0         0
         0         0         0         0         0         0         0         0
         0         0         0         0         0         0         0         0
         0         0         0         0         0         0         0         0
         0         0         0         0         0         0         0         0
         0         0         0         0         0         0         0         0
         0         0         0         0         0         0         0         0
         0         0         0         0         0         0         0         0
         0         0         0         0         0         0         0         0
         0         0         0         0         0         0         0         0
         0         0         0         0         0         0         0         0
         0         0         0         0         0         0         0         0
         0         0         0         0         0         0         0         0
         0         0         0         0         0         0         0         0
         0         0         0         0         0         0         0         0
         0         0         0         0         0         0         0         0
         0         0         0         0         0         0         0         0
         0         0         0         0         0         0         0         0
         0         0         0         0         0         0         0         0
         0         0         0         0         0         0         0         0
         0         0         0         0         0         0         0         0
         0         0         0         0         0         0         0         0
         0         0         0         0         0         0         0         0
         0         0         0         0         0         0         0         0
         0         0         0         0         0         0         0         0
         0         0         0         0         0         0         0         0
         0         0         0         0         0         0         0         0
         0         0         0         0         0         0         0         0
         0         0         0         0         0         0         0         0
         0         0         0         0         0         0         0         0
         0         0         0         0         0         0         0         0
         0         0         0         0         0         0         0         0
         0         0         0         0         0         0         0         0
         0         0         0         0         0         0         0         0
         0         0         0         0         0         0         0         0
         0         0         0         0         0         0         0         0
         0         0         0         0         0         0         0         0
         0         0         0         0         0         0         0         0
         0         0         0         0         0         0         0         0
         0         0         0         0         0         0         0         0
         0         0         0         0         0         0         0         0
         0         0         0         0         0         0         0         0
         0         0         0         0         0         0         0         0
         0         0         0         0         0         0         0         0
         0         0         0         0         0         0         0         0
         0         0         0         0         0         0         0         0
         0         0         0         0         0         0         0         0
         0         0         0         0         0         0         0         0
         0         0         0         0         0         0         0         0
         0         0         0         0         0         0         0         0
         0         0         0         0         0         0         0         0
         0         0         0         0         0         0         0         0
         0         0         0         0         0         0         0         0
         0         0         0         0         0         0         0         0
         0         0         0         0         0         0         0         0
         0         0         0         0         0         0         0         0
         0         0         0         0         0         0         0         0
         0         0         0         0         0         0         0         0
         0         0         0         0         0         0         0         0
         0         0         0         0         0         0         0         0
         0         0         0         0         0         0         0         0
         0         0         0         0         0         0         0         0
         0         0         0         0         0         0         0         0
         0         0         0         0         0         0         0         0
         0         0         0         0         0         0         0         0
         0         0         0         0         0         0         0         0
         0         0         0         0         0         0         0         0
         0         0         0         0         0         0         0         0
         0         0         0         0         0         0         0         0
         0         0         0         0         0         0         0         0
         0         0         0         0         0         0         0         0
         0         0         0         0         0         0         0         0
         0         0         0         0         0         0         0         0
         0         0         0         0         0         0         0         0
         0         0         0         0         0         0         0         0
         0         0         0         0         0         0         0         0
         0         0         0         0         0         0         0         0
         0         0         0         0         0         0         0         0
         0         0         0         0         0         0         0         0
         0         0         0         0         0         0         0         0
         0         0         0         0         0         0         0         0
         0         0         0         0         0         0         0         0
         0         0         0         0         0         0         0         0
         0         0         0         0         0         0         0         0
         0         0         0         0         0         0         0         0
         0         0         0         0         0         0         0         0
         0         0         0         0         0         0         0         0
         0         0         0         0         0         0         0         0
         0         0         0         0         0         0         0         0
         0         0         0         0         0         0         0         0
         0         0         0         0         0         0         0         0
         0         0         0         0         0         0         0         0
         0         0         0         0         0         0         0         0
         0         0         0         0         0         0         0         0
         0         0         0         0         0         0         0         0
         0         0         0         0         0         0         0         0
         0         0         0         0         0         0         0         0
         0         0         0         0         0         0         0         0
         0         0         0         0         0         0         0         0
         0         0         0         0         0         0         0         0
         0         0         0         0         0         0         0         0
         0         0         0         0         0         0         0         0
         0         0         0         0         0         0         0         0
         0         0         0         0         0         0         0         0
         0         0         0         0         0         0         0         0
         0         0         0         0         0         0         0         0
         0         0         0         0         0         0         0         0
         0         0         0         0         0         0         0         0
         0         0         0         0         0         0         0         0
         0         0         0         0         0         0         0         0
         0         0         0         0         0         0         0         0
         0         0         0         0         0         0         0         0
         0         0         0         0         0         0         0         0
         0         0         0         0         0         0         0         0
         0         0         0         0         0         0         0         0
         0         0         0         0         0         0         0         0
         0         0         0         0         0         0         0         0
         0         0         0         0         0         0         0         0
         0         0         0         0         0         0         0         0
         0         0         0         0         0         0         0         0
         0         0         0         0         0         0         0         0
         0         0         0         0         0         0         0         0
         0         0         0         0         0         0         0         0
         0         0         0         0         0         0         0         0
         0         0         0         0         0         0         0         0
         0         0         0         0         0         0         0         0
         0         0         0         0         0         0         0         0
         0         0         0         0         0         0         0         0
         0         0         0         0         0         0         0         0
         0         0         0         0         0         0         0         0
         0         0         0         0         0         0         0         0
         0         0         0         0         0         0         0         0
         0         0         0         0         0         0         0         0
         0         0         0         0         0         0         0         0
         0         0         0         0         0         0         0         0
         0         0         0         0         0         0         0         0
         0         0         0         0         0         0         0         0
         0         0         0         0         0         0         0         0
         0         0         0         0         0         0         0         0
         0         0         0         0         0         0         0         0
         0         0         0         0         0         0         0         0
         0         0         0         0         0         0         0         0
         0         0         0         0         0         0         0         0
         0         0         0         0         0         0         0         0
         0         0         0         0         0         0         0         0
         0         0         0         0         0         0         0         0
         0         0         0         0         0         0         0         0
         0         0         0         0         0         0         0         0
         0         0         0         0         0         0         0         0
         0         0         0         0         0         0         0         0
         0         0         0         0         0         0         0         0
         0         0         0         0         0         0         0         0
         0         0         0         0         0         0         0         0
         0         0         0         0         0         0         0         0
         0         0         0         0         0         0         0         0
         0         0         0         0         0         0         0         0
         0         0         0         0         0         0         0         0
         0         0         0         0         0         0         0         0
         0         0         0         0         0         0         0         0
         0         0         0         0         0         0         0         0
         0         0         0         0         0         0         0         0
         0         0         0         0         0         0         0         0
         0         0         0         0         0         0         0         0
         0         0         0         0         0         0         0         0
         0         0         0         0         0         0         0         0
         0         0         0         0         0         0         0         0
         0         0         0         0         0         0         0         0
         0         0         0         0         0         0         0         0
         0         0         0         0         0         0         0         0
         0         0         0         0         0         0         0         0
         0         0         0         0         0         0         0         0
         0         0         0         0         0         0         0         0
         0         0         0         0         0         0         0         0
         0         0         0         0         0         0         0         0
         0         0         0         0         0         0         0         0
         0         0         0         0         0         0         0         0
         0         0         0         0         0         0         0         0
         0         0         0         0         0         0         0         0
         0         0         0         0         0         0         0         0
         0         0         0         0         0         0         0         0
         0         0         0         0         0         0         0         0
         0         0         0         0         0         0         0         0
         0         0         0         0         0         0         0         0
         0         0         0         0         0         0         0         0
         0         0         0         0         0         0         0         0
         0         0         0         0         0         0         0         0
         0         0         0         0         0         0         0         0
         0         0         0         0         0         0         0         0
         0         0         0         0         0         0         0         0
         0         0         0         0         0         0         0         0
         0         0         0         0         0         0         0         0
         0         0         0         0         0         0         0         0
         0         0         0         0         0         0         0         0
         0         0         0         0         0         0         0         0
         0         0         0         0         0         0         0         0
         0         0         0         0         0         0         0         0
         0         0         0         0         0         0         0         0
         0         0         0         0         0         0         0         0
         0         0         0         0         0         0         0         0
         0         0         0         0         0         0         0         0
         0         0         0         0         0         0         0         0
         0         0         0         0         0         0         0         0
         0         0         0         0         0         0         0         0
         0         0         0         0         0         0         0         0
         0         0         0         0         0         0         0         0
         0         0         0         0         0         0         0         0
         0         0         0         0         0         0         0         0
         0         0         0         0         0         0         0         0
         0         0         0         0         0         0         0         0
         0         0         0         0         0         0         0         0
         0         0         0         0         0         0         0         0
         0         0         0         0         0         0         0         0
         0         0         0         0         0         0         0         0
         0         0         0         0         0         0         0         0
         0         0         0         0         0         0         0         0
         0         0         0         0         0         0         0         0
         0         0         0         0         0         0         0         0
         0         0         0         0         0         0         0         0
         0         0         0         0         0         0         0         0
         0         0         0         0         0         0         0         0
         0         0         0         0         0         0         0         0
         0         0         0         0         0         0         0         0
         0         0         0         0         0         0         0         0
         0         0         0         0         0         0         0         0
         0         0         0         0         0         0         0         0
         0         0         0         0         0         0         0         0
         0         0         0         0         0         0         0         0
         0         0         0         0         0         0         0         0
         0         0         0         0         0         0         0         0
         0         0         0         0         0         0         0         0
         0         0         0         0         0         0         0         0
         0         0         0         0         0         0         0         0
         0         0         0         0         0         0         0         0
         0         0         0         0         0         0         0         0
         0         0         0         0         0         0         0         0
         0         0         0         0         0         0         0         0
         0         0         0         0         0         0         0         0
         0         0         0         0         0         0         0         0
         0         0         0         0         0         0         0         0
         0         0         0         0         0         0         0         0
         0         0         0         0         0         0         0         0
         0         0         0         0         0         0         0         0
         0         0         0         0         0         0         0         0
         0         0         0         0         0         0         0         0
         0         0         0         0         0         0         0         0
         0         0         0         0         0         0         0         0
         0         0         0         0         0         0         0         0
         0         0         0         0         0         0         0         0
         0         0         0         0         0         0         0         0
         0         0         0         0         0         0         0         0
         0         0         0         0         0         0         0         0
         0         0         0         0         0         0         0         0
         0         0         0         0         0         0         0         0
         0         0         0         0         0         0         0         0
         0         0         0         0         0         0         0         0
         0         0         0         0         0         0         0         0
         0         0         0         0         0         0         0         0
         0         0         0         0         0         0         0         0
         0         0         0         0         0         0         0         0
         0         0         0         0         0         0         0         0
         0         0         0         0         0         0         0         0
         0         0         0         0         0         0         0         0
         0         0         0         0         0         0         0         0
         0         0         0         0         0         0         0         0
         0         0         0         0         0         0         0         0
         0         0         0         0         0         0         0         0
         0         0         0         0         0         0         0         0
         0         0         0         0         0         0         0         0
         0         0         0         0         0         0         0         0
         0         0         0         0         0         0         0         0
         0         0         0         0         0         0         0         0
         0         0         0         0         0         0         0         0
         0         0         0         0         0         0         0         0
         0         0         0         0         0         0         0         0
         0         0         0         0         0         0         0         0
         0         0         0         0         0         0         0         0
         0         0         0         0         0         0         0         0
         0         0         0         0         0         0         0         0
         0         0         0         0         0         0         0         0
         0         0         0         0         0         0         0         0
         0         0         0         0         0         0         0         0
         0         0         0         0         0         0         0         0
         0         0         0         0         0         0         0         0
         0         0         0         0         0         0         0         0
         0         0         0         0         0         0         0         0
         0         0         0         0         0         0         0         0
         0         0         0         0         0         0         0         0
         0         0         0         0         0         0         0         0
         0         0         0         0         0         0         0         0
         0         0         0         0         0         0         0         0
         0         0         0         0         0         0         0         0
         0         0         0         0         0         0         0         0
         0         0         0         0         0         0         0         0
         0         0         0         0         0         0         0         0
         0         0         0         0         0         0         0         0
         0         0         0         0         0         0         0         0
         0         0         0         0         0         0         0         0
         0         0         0         0         0         0         0         0
         0         0         0         0         0         0         0         0
         0         0         0         0         0         0         0         0
         0         0         0         0         0         0         0         0
         0         0         0         0         0         0         0         0
         0         0         0         0         0         0         0         0
         0         0         0         0         0         0         0         0
         0         0         0         0         0         0         0         0
         0         0         0         0         0         0         0         0
         0         0         0         0         0         0         0         0
         0         0         0         0         0         0         0         0
         0         0         0         0         0         0         0         0
         0         0         0         0         0         0         0         0
         0         0         0         0         0         0         0         0
         0         0         0         0         0         0         0         0
         0         0         0         0         0         0         0         0
         0         0         0         0         0         0         0         0
         0         0         0         0         0         0         0         0
         0         0         0         0         0         0         0         0
         0         0         0         0         0         0         0         0
         0         0         0         0         0         0         0         0
         0         0         0         0         0         0         0         0
         0         0         0         0         0         0         0         0
         0         0         0         0         0         0         0         0
         0         0         0         0         0         0         0         0
         0         0         0         0         0         0         0         0
         0         0         0         0         0         0         0         0
         0         0         0         0         0         0         0         0
         0         0         0         0         0         0         0         0
         0         0         0         0         0         0         0         0
         0         0         0         0         0         0         0         0
         0         0         0         0         0         0         0         0
         0         0         0         0         0         0         0         0
         0         0         0         0         0         0         0         0
         0         0         0         0         0         0         0         0
         0         0         0         0         0         0         0         0
         0         0         0         0         0         0         0         0
         0         0         0         0         0         0         0         0
         0         0         0         0         0         0         0         0
         0         0         0         0         0         0         0         0
         0         0         0         0         0         0         0         0
         0         0         0         0         0         0         0         0
         0         0         0         0         0         0         0         0
         0         0         0         0         0         0         0         0
         0         0         0         0         0         0         0         0
         0         0         0         0         0         0         0         0
         0         0         0         0         0         0         0         0
         0         0         0         0         0         0         0         0
         0         0         0         0         0         0         0         0
         0         0         0         0         0         0         0         0
         0         0         0         0         0         0         0         0
         0         0         0         0         0         0         0         0
         0         0         0         0         0         0         0         0
         0         0         0         0         0         0         0         0
         0         0         0         0         0         0         0         0
         0         0         0         0         0         0         0         0
         0         0         0         0         0         0         0         0
         0         0         0         0         0         0         0         0
         0         0         0         0         0         0         0         0
         0         0         0         0         0         0         0         0
         0         0         0         0         0         0         0         0
         0         0         0         0         0         0         0         0
         0         0         0         0         0         0         0         0
         0         0         0         0         0         0         0         0
         0         0         0         0         0         0         0         0
         0         0         0         0         0         0         0         0
         0         0         0         0         0         0         0         0
         0         0         0         0         0         0         0         0
         0         0         0         0         0         0         0         0
         0         0         0         0         0         0         0         0
         0         0         0         0         0         0         0         0
         0         0         0         0         0         0         0         0
         0         0         0         0         0         0         0         0
         0         0         0         0         0         0         0         0
         0         0         0         0         0         0         0         0
         0         0         0         0         0         0         0         0
         0         0         0         0         0         0         0         0
         0         0         0         0         0         0         0         0
         0         0         0         0         0         0         0         0
         0         0         0         0         0         0         0         0
         0         0         0         0         0         0         0         0
         0         0         0         0         0         0         0         0
         0         0         0         0         0         0         0         0
         0         0         0         0         0         0         0         0
         0         0         0         0         0         0         0         0
         0         0         0         0         0         0         0         0
         0         0         0         0         0         0         0         0
         0         0         0         0         0         0         0         0
         0         0         0         0         0         0         0         0
         0         0         0         0         0         0         0         0
         0         0         0         0         0         0         0         0
         0         0         0         0         0         0         0         0
         0         0         0         0         0         0         0         0
         0         0         0         0         0         0         0         0
         0         0         0         0         0         0         0         0
         0         0         0         0         0         0         0         0
         0         0         0         0         0         0         0         0
         0         0         0         0         0         0         0         0
         0         0         0         0         0         0         0         0
         0         0         0         0         0         0         0         0
         0         0         0         0         0         0         0         0
         0         0         0         0         0         0         0         0
         0         0         0         0         0         0         0         0
         0         0         0         0         0         0         0         0
         0         0         0         0         0         0         0         0
         0         0         0         0         0         0         0         0
         0         0         0         0         0         0         0         0
         0         0         0         0         0         0         0         0
         0         0         0         0         0         0         0         0
         0         0         0         0         0         0         0         0
         0         0         0         0         0         0         0         0
         0         0         0         0         0         0         0         0
         0         0         0         0         0         0         0         0
         0         0         0         0         0         0         0         0
         0         0         0         0         0         0         0         0
         0         0         0         0         0         0         0         0
         0         0         0         0         0         0         0         0
         0         0         0         0         0         0         0         0
         0         0         0         0         0         0         0         0
         0         0         0         0         0         0         0         0
         0         0         0         0         0         0         0         0
         0         0         0         0         0         0         0         0
         0         0         0         0         0         0         0         0
         0         0         0         0         0         0         0         0
         0         0         0         0         0         0         0         0
         0         0         0         0         0         0         0         0
         0         0         0         0         0         0         0         0
         0         0         0         0         0         0         0         0
         0         0         0         0         0         0         0         0
         0         0         0         0         0         0         0         0
         0         0         0         0         0         0         0         0
         0         0         0         0         0         0         0         0
         0         0         0         0         0         0         0         0
         0         0         0         0         0         0         0         0
         0         0         0         0         0         0         0         0
         0         0         0         0         0         0         0         0
         0         0         0         0         0         0         0         0
         0         0         0         0         0         0         0         0
         0         0         0         0         0         0         0         0
         0         0         0         0         0         0         0         0
         0         0         0         0         0         0         0         0
         0         0         0         0         0         0         0         0
         0         0         0         0         0         0         0         0
         0         0         0         0         0         0         0         0
         0         0         0         0         0         0         0         0
         0         0         0         0         0         0         0         0
         0         0         0         0         0         0         0         0
         0         0         0         0         0         0         0         0
         0         0         0         0         0         0         0         0
         0         0         0         0         0         0         0         0
         0         0         0         0         0         0         0         0
         0         0         0         0         0         0         0         0
         0         0         0         0         0         0         0         0
         0         0         0         0         0         0         0         0
         0         0         0         0         0         0         0         0
         0         0         0         0         0         0         0         0
         0         0         0         0         0         0         0         0
         0         0         0         0         0         0         0         0
         0         0         0         0         0         0         0         0
         0         0         0         0         0         0         0         0
         0         0         0         0         0         0         0         0
         0         0         0         0         0         0         0         0
         0         0         0         0         0         0         0         0
         0         0         0         0         0         0         0         0
         0         0         0         0         0         0         0         0
         0         0         0         0         0         0         0         0
         0         0         0         0         0         0         0         0
         0         0         0         0         0         0         0         0
         0         0         0         0         0         0         0         0
         0         0         0         0         0         0         0         0
         0         0         0         0         0         0         0         0
         0         0         0         0         0         0         0         0
         0         0         0         0         0         0         0         0
         0         0         0         0         0         0         0         0
         0         0         0         0         0         0         0         0
         0         0         0         0         0         0         0         0
         0         0         0         0         0         0         0         0
         0         0         0         0         0         0         0         0
         0         0         0         0         0         0         0         0
         0         0         0         0         0         0         0         0
         0         0         0         0         0         0         0         0
         0         0         0         0         0         0         0         0
         0         0         0         0         0         0         0         0
         0         0         0         0         0         0         0         0
         0         0         0         0         0         0         0         0
         0         0         0         0         0         0         0         0
         0         0         0         0         0         0         0         0
         0         0         0         0         0         0         0         0
         0         0         0         0         0         0         0         0
         0         0         0         0         0         0         0         0
         0         0         0         0         0         0         0         0
         0         0         0         0         0         0         0         0
         0         0         0         0         0         0         0         0
         0         0         0         0         0         0         0         0
         0         0         0         0         0         0         0         0
         0         0         0         0         0         0         0         0
         0         0         0         0         0         0         0         0
         0         0         0         0         0         0         0         0
         0         0         0         0         0         0         0         0
         0         0         0         0         0         0         0         0
         0         0         0         0         0         0         0         0
         0         0         0         0         0         0         0         0
         0         0         0         0         0         0         0         0
         0         0         0         0         0         0         0         0
         0         0         0         0         0         0         0         0
         0         0         0         0         0         0         0         0
         0         0         0         0         0         0         0         0
         0         0         0         0         0         0         0         0
         0         0         0         0         0         0         0         0
         0         0         0         0         0         0         0         0
         0         0         0         0         0         0         0         0
         0         0         0         0         0         0         0         0
         0         0         0         0         0         0         0         0
         0         0         0         0         0         0         0         0
         0         0         0         0         0         0         0         0
         0         0         0         0         0         0         0         0
         0         0         0         0         0         0         0         0
         0         0         0         0         0         0         0         0
         0         0         0         0         0         0         0         0
         0         0         0         0         0         0         0         0
         0         0         0         0         0         0         0         0
         0         0         0         0         0         0         0         0
         0         0         0         0         0         0         0         0
         0         0         0         0         0         0         0         0
         0         0         0         0         0         0         0         0
         0         0         0         0         0         0         0         0
         0         0         0         0         0         0         0         0
         0         0         0         0         0         0         0         0
         0         0         0         0         0         0         0         0
         0         0         0         0         0         0         0         0
         0         0         0         0         0         0         0         0
         0         0         0         0         0         0         0         0
         0         0         0         0         0         0         0         0
         0         0         0         0         0         0         0         0
         0         0         0         0         0         0         0         0
         0         0         0         0         0         0         0         0
         0         0         0         0         0         0         0         0
         0         0         0         0         0         0         0         0
         0         0         0         0         0         0         0         0
         0         0         0         0         0         0         0         0
         0         0         0         0         0         0         0         0
         0         0         0         0         0         0         0         0
         0         0         0         0         0         0         0         0
         0         0         0         0         0         0         0         0
         0         0         0         0         0         0         0         0
         0         0         0         0         0         0         0         0
         0         0         0         0         0         0         0         0
         0         0         0         0         0         0         0         0
         0         0         0         0         0         0         0         0
         0         0         0         0         0         0         0         0
         0         0         0         0         0         0         0         0
         0         0         0         0         0         0         0         0
         0         0         0         0         0         0         0         0
         0         0         0         0         0         0         0         0
         0         0         0         0         0         0         0         0
         0         0         0         0         0         0         0         0
         0         0         0         0         0         0         0         0
         0         0         0         0         0         0         0         0
         0         0         0         0         0         0         0         0
         0         0         0         0         0         0         0         0
         0         0         0         0         0         0         0         0
         0         0         0         0         0         0         0         0
         0         0         0         0         0         0         0         0
         0         0         0         0         0         0         0         0
         0         0         0         0         0         0         0         0
         0         0         0         0         0         0         0         0
         0         0         0         0         0         0         0         0
         0         0         0         0         0         0         0         0
         0         0         0         0         0         0         0         0
         0         0         0         0         0         0         0         0
         0         0         0         0         0         0         0         0
         0         0         0         0         0         0         0         0
         0         0         0         0         0         0         0         0
         0         0         0         0         0         0         0         0
         0         0         0         0         0         0         0         0
         0         0         0         0         0         0         0         0
         0         0         0         0         0         0         0         0
         0         0         0         0         0         0         0         0
         0         0         0         0         0         0         0         0
         0         0         0         0         0         0         0         0
         0         0         0         0         0         0         0         0
         0         0         0         0         0         0         0         0
         0         0         0         0         0         0         0         0
         0         0         0         0         0         0         0         0
         0         0         0         0         0         0         0         0
         0         0         0         0         0         0         0         0
         0         0         0         0         0         0         0         0
         0         0         0         0         0         0         0         0
         0         0         0         0         0         0         0         0
         0         0         0         0         0         0         0         0
         0         0         0         0         0         0         0         0
         0         0         0         0         0         0         0         0
         0         0         0         0         0         0         0         0
         0         0         0         0         0         0         0         0
         0         0         0         0         0         0         0         0
         0         0         0         0         0         0         0         0
         0         0         0         0         0         0         0         0
         0         0         0         0         0         0         0         0
         0         0         0         0         0         0         0         0
         0         0         0         0         0         0         0         0
         0         0         0         0         0         0         0         0
         0         0         0         0         0         0         0         0
         0         0         0         0         0         0         0         0
         0         0         0         0         0         0         0         0
         0         0         0         0         0         0         0         0
         0         0         0         0         0         0         0         0
         0         0         0         0         0         0         0         0
         0         0         0         0         0         0         0         0
         0         0         0         0         0         0         0         0
         0         0         0         0         0         0         0         0
         0         0         0         0         0         0         0         0
         0         0         0         0         0         0         0         0
         0         0         0         0         0         0         0         0
         0         0         0         0         0         0         0         0
         0         0         0         0         0         0         0         0
         0         0         0         0         0         0         0         0
         0         0         0         0         0         0         0         0
         0         0         0         0         0         0         0         0
         0         0         0         0         0         0         0         0
         0         0         0         0         0         0         0         0
         0         0         0         0         0         0         0         0
         0         0         0         0         0         0         0         0
         0         0         0         0         0         0         0         0
         0         0         0         0         0         0         0         0
         0         0         0         0         0         0         0         0
         0         0         0         0         0         0         0         0
         0         0         0         0         0         0         0         0
         0         0         0         0         0         0         0         0
         0         0         0         0         0         0         0         0
         0         0         0         0         0         0         0         0
         0         0         0         0         0         0         0         0
         0         0         0         0         0         0         0         0
         0         0         0         0         0         0         0         0
         0         0         0         0         0         0         0         0
         0         0         0         0         0         0         0         0
         0         0         0         0         0         0         0         0
         0         0         0         0         0         0         0         0
         0         0         0         0         0         0         0         0
         0         0         0         0         0         0         0         0
         0         0         0         0         0         0         0         0
         0         0         0         0         0         0         0         0
         0         0         0         0         0         0         0         0
         0         0         0         0         0         0         0         0
         0         0         0         0         0         0         0         0
         0         0         0         0         0         0         0         0
         0         0         0         0         0         0         0         0
         0         0         0         0         0         0         0         0
         0         0         0         0         0         0         0         0
         0         0         0         0         0         0         0         0
         0         0         0         0         0         0         0         0
         0         0         0         0         0         0         0         0
         0         0         0         0         0         0         0         0
         0         0         0         0         0         0         0         0
         0         0         0         0         0         0         0         0
         0         0         0         0         0         0         0         0
         0         0         0         0         0         0         0         0
         0         0         0         0         0         0         0         0
         0         0         0         0         0         0         0         0
         0         0         0         0         0         0         0         0
         0         0         0         0         0         0         0         0
         0         0         0         0         0         0         0         0
         0         0         0         0         0         0         0         0
         0         0         0         0         0         0         0         0
         0         0         0         0         0         0         0         0
         0         0         0         0         0         0         0         0
         0         0         0         0         0         0         0         0
         0         0         0         0         0         0         0         0
         0         0         0         0         0         0         0         0
         0         0         0         0         0         0         0         0
         0         0         0         0         0         0         0         0
         0         0         0         0         0         0         0         0
         0         0         0         0         0         0         0         0
         0         0         0         0         0         0         0         0
         0         0         0         0         0         0         0         0
         0         0         0         0         0         0         0         0
         0         0         0         0         0         0         0         0
         0         0         0         0         0         0         0         0
         0         0         0         0         0         0         0         0
         0         0         0         0         0         0         0         0
         0         0         0         0         0         0         0         0
         0         0         0         0         0         0         0         0
         0         0         0         0         0         0         0         0
         0         0         0         0         0         0         0         0
         0         0         0         0         0         0         0         0
         0         0         0         0         0         0         0         0
         0         0         0         0         0         0         0         0
         0         0         0         0         0         0         0         0
         0         0         0         0         0         0         0         0
         0         0         0         0         0         0         0         0
         0         0         0         0         0         0         0         0
         0         0         0         0         0         0         0         0
         0         0         0         0         0         0         0         0
         0         0         0         0         0         0         0         0
         0         0         0         0         0         0         0         0
         0         0         0         0         0         0         0         0
         0         0         0         0         0         0         0         0
         0         0         0         0         0         0         0         0
         0         0         0         0         0         0         0         0
         0         0         0         0         0         0         0         0
         0         0         0         0         0         0         0         0
         0         0         0         0         0         0         0         0
         0         0         0         0         0         0         0         0
         0         0         0         0         0         0         0         0
         0         0         0         0         0         0         0         0
         0         0         0         0         0         0         0         0
         0         0         0         0         0         0         0         0
         0         0         0         0         0         0         0         0
         0         0         0         0         0         0         0         0
         0         0         0         0         0         0         0         0
         0         0         0         0         0         0         0         0
         0         0         0         0         0         0         0         0
         0         0         0         0         0         0         0         0
         0         0         0         0         0         0         0         0
         0         0         0         0         0         0         0         0
         0         0         0         0         0         0         0         0
         0         0         0         0         0         0         0         0
         0         0         0         0         0         0         0         0
         0         0         0         0         0         0         0         0
         0         0         0         0         0         0         0         0
         0         0         0         0         0         0         0         0
         0         0         0         0         0         0         0         0
         0         0         0         0         0         0         0         0
         0         0         0         0         0         0         0         0
         0         0         0         0         0         0         0         0
         0         0         0         0         0         0         0         0
         0         0         0         0         0         0         0         0
         0         0         0         0         0         0         0         0
         0         0         0         0         0         0         0         0
         0         0         0         0         0         0         0         0
         0         0         0         0         0         0         0         0
         0         0         0         0         0         0         0         0
         0         0         0         0         0         0         0         0
         0         0         0         0         0         0         0         0
         0         0         0         0         0         0         0         0
         0         0         0         0         0         0         0         0
         0         0         0         0         0         0         0         0
         0         0         0         0         0         0         0         0
         0         0         0         0         0         0         0         0
         0         0         0         0         0         0         0         0
         0         0         0         0         0         0         0         0
         0         0         0         0         0         0         0         0
         0         0         0         0         0         0         0         0
         0         0         0         0         0         0         0         0
         0         0         0         0         0         0         0         0
         0         0         0         0         0         0         0         0
         0         0         0         0         0         0         0         0
         0         0         0         0         0         0         0         0
         0         0         0         0         0         0         0         0
         0         0         0         0         0         0         0         0
         0         0         0         0         0         0         0         0
         0         0         0         0         0         0         0         0
         0         0         0         0         0         0         0         0
         0         0         0         0         0         0         0         0
         0         0         0         0         0         0         0         0
         0         0         0         0         0         0         0         0
         0         0         0         0         0         0         0         0
         0         0         0         0         0         0         0         0
         0         0         0         0         0         0         0         0
         0         0         0         0         0         0         0         0
         0         0         0         0         0         0         0         0
         0         0         0         0         0         0         0         0
         0         0         0         0         0         0         0         0
         0         0         0         0         0         0         0         0
         0         0         0         0         0         0         0         0
         0         0         0         0         0         0         0         0
         0         0         0         0         0         0         0         0
         0         0         0         0         0         0         0         0
         0         0         0         0         0         0         0         0
         0         0         0         0         0         0         0         0
         0         0         0         0         0         0         0         0
         0         0         0         0         0         0         0         0
         0         0         0         0         0         0         0         0
         0         0         0         0         0         0         0         0
         0         0         0         0         0         0         0         0
         0         0         0         0         0         0         0         0
         0         0         0         0         0         0         0         0
         0         0         0         0         0         0         0         0
         0         0         0         0         0         0         0         0
         0         0         0         0         0         0         0         0
         0         0         0         0         0         0         0         0
         0         0         0         0         0         0         0         0
         0         0         0         0         0         0         0         0
         0         0         0         0         0         0         0         0
         0         0         0         0         0         0         0         0
         0         0         0         0         0         0         0         0
         0         0         0         0         0         0         0         0
         0         0         0         0         0         0         0         0
         0         0         0         0         0         0         0         0
         0         0         0         0         0         0         0         0
         0         0         0         0         0         0         0         0
         0         0         0         0         0         0         0         0
         0         0         0         0         0         0         0         0
         0         0         0         0         0         0         0         0
         0         0         0         0         0         0         0         0
         0         0         0         0         0         0         0         0
         0         0         0         0         0         0         0         0
         0         0         0         0         0         0         0         0
         0         0         0         0         0         0         0         0
         0         0         0         0         0         0         0         0
         0         0         0         0         0         0         0         0
         0         0         0         0         0         0         0         0
         0         0         0         0         0         0         0         0
         0         0         0         0         0         0         0         0
         0         0         0         0         0         0         0         0
         0         0         0         0         0         0         0         0
         0         0         0         0         0         0         0         0
         0         0         0         0         0         0         0         0
         0         0         0         0         0         0         0         0
         0         0         0         0         0         0         0         0
         0         0         0         0         0         0         0         0
         0         0         0         0         0         0         0         0
         0         0         0         0         0         0         0         0
         0         0         0         0         0         0         0         0
         0         0         0         0         0         0         0         0
         0         0         0         0         0         0         0         0
         0         0         0         0         0         0         0         0
         0         0         0         0         0         0         0         0
         0         0         0         0         0         0         0         0
         0         0         0         0         0         0         0         0
         0         0         0         0         0         0         0         0
         0         0         0         0         0         0         0         0
         0         0         0         0         0         0         0         0
         0         0         0         0         0         0         0         0
         0         0         0         0         0         0         0         0
         0         0         0         0         0         0         0         0
         0         0         0         0         0         0         0         0
         0         0         0         0         0         0         0         0
         0         0         0         0         0         0         0         0
         0         0         0         0         0         0         0         0
         0         0         0         0         0         0         0         0
         0         0         0         0         0         0         0         0
         0         0         0         0         0         0         0         0
         0         0         0         0         0         0         0         0
         0         0         0         0         0         0         0         0
         0         0         0         0         0         0         0         0
         0         0         0         0         0         0         0         0
         0         0         0         0         0         0         0         0
         0         0         0         0         0         0         0         0
         0         0         0         0         0         0         0         0
         0         0         0         0         0         0         0         0
         0         0         0         0         0         0         0         0
         0         0         0         0         0         0         0         0
         0         0         0         0         0         0         0         0
         0         0         0         0         0         0         0         0
         0         0         0         0         0         0         0         0
         0         0         0         0         0         0         0         0
         0         0         0         0         0         0         0         0
         0         0         0         0         0         0         0         0
         0         0         0         0         0         0         0         0
         0         0         0         0         0         0         0         0
         0         0         0         0         0         0         0         0
         0         0         0         0         0         0         0         0
         0         0         0         0         0         0         0         0
         0         0         0         0         0         0         0         0
         0         0         0         0         0         0         0         0
         0         0         0         0         0         0         0         0
         0         0         0         0         0         0         0         0
         0         0         0         0         0         0         0         0
         0         0         0         0         0         0         0         0
         0         0         0         0         0         0         0         0
         0         0         0         0         0         0         0         0
         0         0         0         0         0         0         0         0
         0         0         0         0         0         0         0         0
         0         0         0         0         0         0         0         0
         0         0         0         0         0         0         0         0
         0         0         0         0         0         0         0         0
         0         0         0         0         0         0         0         0
         0         0         0         0         0         0         0         0
         0         0         0         0         0         0         0         0
         0         0         0         0         0         0         0         0
         0         0         0         0         0         0         0         0
         0         0         0         0         0         0         0         0
         0         0         0         0         0         0         0         0
         0         0         0         0         0         0         0         0
         0         0         0         0         0         0         0         0
         0         0         0         0         0         0         0         0
         0         0         0         0         0         0         0         0
         0         0         0         0         0         0         0         0
         0         0         0         0         0         0         0         0
         0         0         0         0         0         0         0         0
         0         0         0         0         0         0         0         0
         0         0         0         0         0         0         0         0
         0         0         0         0         0         0         0         0
         0         0         0         0         0         0         0         0
         0         0         0         0         0         0         0         0
         0         0         0         0         0         0         0         0
         0         0         0         0         0         0         0         0
         0         0         0         0         0         0         0         0
         0         0         0         0         0         0         0         0
         0         0         0         0         0         0         0         0
         0         0         0         0         0         0         0         0
         0         0         0         0         0         0         0         0
         0         0         0         0         0         0         0         0
         0         0         0         0         0         0         0         0
         0         0         0         0         0         0         0         0
         0         0         0         0         0         0         0         0
         0         0         0         0         0         0         0         0
         0         0         0         0         0         0         0         0
         0         0         0         0         0         0         0         0
         0         0         0         0         0         0         0         0
         0         0         0         0         0         0         0         0
         0         0         0         0         0         0         0         0
         0         0         0         0         0         0         0         0
         0         0         0         0         0         0         0         0
         0         0         0         0         0         0         0         0
         0         0         0         0         0         0         0         0
         0         0         0         0         0         0         0         0
         0         0         0         0         0         0         0         0
         0         0         0         0         0         0         0         0
         0         0         0         0         0         0         0         0
         0         0         0         0         0         0         0         0
         0         0         0         0         0         0         0         0
         0         0         0         0         0         0         0         0
         0         0         0         0         0         0         0         0
         0         0         0         0         0         0         0         0
         0         0         0         0         0         0         0         0
         0         0         0         0         0         0         0         0
         0         0         0         0         0         0         0         0
         0         0         0         0         0         0         0         0
         0         0         0         0         0         0         0         0
         0         0         0         0         0         0         0         0
         0         0         0         0         0         0         0         0
         0         0         0         0         0         0         0         0
         0         0         0         0         0         0         0         0
         0         0         0         0         0         0         0         0
         0         0         0         0         0         0         0         0
         0         0         0         0         0         0         0         0
         0         0         0         0         0         0         0         0
         0         0         0         0         0         0         0         0
         0         0         0         0         0         0         0         0
         0         0         0         0         0         0         0         0
         0         0         0         0         0         0         0         0
         0         0         0         0         0         0         0         0
         0         0         0         0         0         0         0         0
         0         0         0         0         0         0         0         0
         0         0         0         0         0         0         0         0
         0         0         0         0         0         0         0         0
         0         0         0         0         0         0         0         0
         0         0         0         0         0         0         0         0
         0         0         0         0         0         0         0         0
         0         0         0         0         0         0         0         0
         0         0         0         0         0         0         0         0
         0         0         0         0         0         0         0         0
         0         0         0         0         0         0         0         0
         0         0         0         0         0         0         0         0
         0         0         0         0         0         0         0         0
         0         0         0         0         0         0         0         0
         0         0         0         0         0         0         0         0
         0         0         0         0         0         0         0         0
         0         0         0         0         0         0         0         0
         0         0         0         0         0         0         0         0
         0         0         0         0         0         0         0         0
         0         0         0         0         0         0         0         0
         0         0         0         0         0         0         0         0
         0         0         0         0         0         0         0         0
         0         0         0         0         0         0         0         0
         0         0         0         0         0         0         0         0
         0         0         0         0         0         0         0         0
         0         0         0         0         0         0         0         0
         0         0         0         0         0         0         0         0
         0         0         0         0         0         0         0         0
         0         0         0         0         0         0         0         0
         0         0         0         0         0         0         0         0
         0         0         0         0         0         0         0         0
         0         0         0         0         0         0         0         0
         0         0         0         0         0         0         0         0
         0         0         0         0         0         0         0         0
         0         0         0         0         0         0         0         0
         0         0         0         0         0         0         0         0
         0         0         0         0         0         0         0         0
         0         0         0         0         0         0         0         0
         0         0         0         0         0         0         0         0
         0         0         0         0         0         0         0         0
         0         0         0         0         0         0         0         0
         0         0         0         0         0         0         0         0
         0         0         0         0         0         0         0         0
         0         0         0         0         0         0         0         0
         0         0         0         0         0         0         0         0
         0         0         0         0         0         0         0         0
         0         0         0         0         0         0         0         0
         0         0         0         0         0         0         0         0
         0         0         0         0         0         0         0         0
         0         0         0         0         0         0         0         0
         0         0         0         0         0         0         0         0
         0         0         0         0         0         0         0         0
         0         0         0         0         0         0         0         0
         0         0         0         0         0         0         0         0
         0         0         0         0         0         0         0         0
         0         0         0         0         0         0         0         0
         0         0         0         0         0         0         0         0
         0         0         0         0         0         0         0         0
         0         0         0         0         0         0         0         0
         0         0         0         0         0         0         0         0
         0         0         0         0         0         0         0         0
         0         0         0         0         0         0         0         0
         0         0         0         0         0         0         0         0
         0         0         0         0         0         0         0         0
         0         0         0         0         0         0         0         0
         0         0         0         0         0         0         0         0
         0         0         0         0         0         0         0         0
         0         0         0         0         0         0         0         0
         0         0         0         0         0         0         0         0
         0         0         0         0         0         0         0         0
         0         0         0         0         0         0         0         0
         0         0         0         0         0         0         0         0
         0         0         0         0         0         0         0         0
         0         0         0         0         0         0         0         0
         0         0         0         0         0         0         0         0
         0         0         0         0         0         0         0         0
         0         0         0         0         0         0         0         0
         0         0         0         0         0         0         0         0
         0         0         0         0         0         0         0         0
         0         0         0         0         0         0         0         0
         0         0         0         0         0         0         0         0
         0         0         0         0         0         0         0         0
         0         0         0         0         0         0         0         0
         0         0         0         0         0         0         0         0
         0         0         0         0         0         0         0         0
         0         0         0         0         0         0         0         0
         0         0         0         0         0         0         0         0
         0         0         0         0         0         0         0         0
         0         0         0         0         0         0         0         0
         0         0         0         0         0         0         0         0
         0         0         0         0         0         0         0         0
         0         0         0         0         0         0         0         0
         0         0         0         0         0         0         0         0
         0         0         0         0         0         0         0         0
         0         0         0         0         0         0         0         0
         0         0         0         0         0         0         0         0
         0         0         0         0         0         0         0         0
         0         0         0         0         0         0         0         0
         0         0         0         0         0         0         0         0
         0         0         0         0         0         0         0         0
         0         0         0         0         0         0         0         0
         0         0         0         0         0         0         0         0
         0         0         0         0         0         0         0         0
         0         0         0         0         0         0         0         0
         0         0         0         0         0         0         0         0
         0         0         0         0         0         0         0         0
         0         0         0         0         0         0         0         0
         0         0         0         0         0         0         0         0
         0         0         0         0         0         0         0         0
         0         0         0         0         0         0         0         0
         0         0         0         0         0         0         0         0
         0         0         0         0         0         0         0         0
         0         0         0         0         0         0         0         0
         0         0         0         0         0         0         0         0
         0         0         0         0         0         0         0         0
         0         0         0         0         0         0         0         0
         0         0         0         0         0         0         0         0
         0         0         0         0         0         0         0         0
         0         0         0         0         0         0         0         0
         0         0         0         0         0         0         0         0
         0         0         0         0         0         0         0         0
         0         0         0         0         0         0         0         0
         0         0         0         0         0         0         0         0
         0         0         0         0         0         0         0         0
         0         0         0         0         0         0         0         0
         0         0         0         0         0         0         0         0
         0         0         0         0         0         0         0         0
         0         0         0         0         0         0         0         0
         0         0         0         0         0         0         0         0
         0         0         0         0         0         0         0         0
         0         0         0         0         0         0         0         0
         0         0         0         0         0         0         0         0
         0         0         0         0         0         0         0         0
         0         0         0         0         0         0         0         0
         0         0         0         0         0         0         0         0
         0         0         0         0         0         0         0         0
         0         0         0         0         0         0         0         0
         0         0         0         0         0         0         0         0
         0         0         0         0         0         0         0         0
         0         0         0         0         0         0         0         0
         0         0         0         0         0         0         0         0
         0         0         0         0         0         0         0         0
         0         0         0         0         0         0         0         0
         0         0         0         0         0         0         0         0
         0         0         0         0         0         0         0         0
         0         0         0         0         0         0         0         0
         0         0         0         0         0         0         0         0
         0         0         0         0         0         0         0         0
         0         0         0         0         0         0         0         0
         0         0         0         0         0         0         0         0
         0         0         0         0         0         0         0         0
         0         0         0         0         0         0         0         0
         0         0         0         0         0         0         0         0
         0         0         0         0         0         0         0         0
         0         0         0         0         0         0         0         0
         0         0         0         0         0         0         0         0
         0         0         0         0         0         0         0         0
         0         0         0         0         0         0         0         0
         0         0         0         0         0         0         0         0
         0         0         0         0         0         0         0         0
         0         0         0         0         0         0         0         0
         0         0         0         0         0         0         0         0
         0         0         0         0         0         0         0         0
         0         0         0         0         0         0         0         0
         0         0         0         0         0         0         0         0
         0         0         0         0         0         0         0         0
         0         0         0         0         0         0         0         0
         0         0         0         0         0         0         0         0
         0         0         0         0         0         0         0         0
         0         0         0         0         0         0         0         0
         0         0         0         0         0         0         0         0
         0         0         0         0         0         0         0         0
         0         0         0         0         0         0         0         0
         0         0         0         0         0         0         0         0
         0         0         0         0         0         0         0         0
         0         0         0         0         0         0         0         0
         0         0         0         0         0         0         0         0
         0         0         0         0         0         0         0         0
         0         0         0         0         0         0         0         0
         0         0         0         0         0         0         0         0
         0         0         0         0         0         0         0         0
         0         0         0         0         0         0         0         0
         0         0         0         0         0         0         0         0
         0         0         0         0         0         0         0         0
         0         0         0         0         0         0         0         0
         0         0         0         0         0         0         0         0
         0         0         0         0         0         0         0         0
         0         0         0         0         0         0         0         0
         0         0         0         0         0         0         0         0
         0         0         0         0         0         0         0         0
         0         0         0         0         0         0         0         0
         0         0         0         0         0         0         0         0
         0         0         0         0         0         0         0         0
         0         0         0         0         0         0         0         0
         0         0         0         0         0         0         0         0
         0         0         0         0         0         0         0         0
         0         0         0         0         0         0         0         0
         0         0         0         0         0         0         0         0
         0         0         0         0         0         0         0         0
         0         0         0         0         0         0         0         0
         0         0         0         0         0         0         0         0
         0         0         0         0         0         0         0         0
         0         0         0         0         0         0         0         0
         0         0         0         0         0         0         0         0
         0         0         0         0         0         0         0         0
         0         0         0         0         0         0         0         0
         0         0         0         0         0         0         0         0
         0         0         0         0         0         0         0         0
         0         0         0         0         0         0         0         0
         0         0         0         0         0         0         0         0
         0         0         0         0         0         0         0         0
         0         0         0         0         0         0         0         0
         0         0         0         0         0         0         0         0
         0         0         0         0         0         0         0         0
         0         0         0         0         0         0         0         0
         0         0         0         0         0         0         0         0
         0         0         0         0         0         0         0         0
         0         0         0         0         0         0         0         0
         0         0         0         0         0         0         0         0
         0         0         0         0         0         0         0         0
         0         0         0         0         0         0         0         0
         0         0         0         0         0         0         0         0
         0         0         0         0         0         0         0         0
         0         0         0         0         0         0         0         0
         0         0         0         0         0         0         0         0
         0         0         0         0         0         0         0         0
         0         0         0         0         0         0         0         0
         0         0         0         0         0         0         0         0
         0         0         0         0         0         0         0         0
         0         0         0         0         0         0         0         0
         0         0         0         0         0         0         0         0
         0         0         0         0         0         0         0         0
         0         0         0         0         0         0         0         0
         0         0         0         0         0         0         0         0
         0         0         0         0         0         0         0         0
         0         0         0         0         0         0         0         0
         0         0         0         0         0         0         0         0
         0         0         0         0         0         0         0         0
         0         0         0         0         0         0         0         0
         0         0         0         0         0         0         0         0
         0         0         0         0         0         0         0         0
         0         0         0         0         0         0         0         0
         0         0         0         0         0         0         0         0
         0         0         0         0         0         0         0         0
         0         0         0         0         0         0         0         0
         0         0         0         0         0         0         0         0
         0         0         0         0         0         0         0         0
         0         0         0         0         0         0         0         0
         0         0         0         0         0         0         0         0
         0         0         0         0         0         0         0         0
         0         0         0         0         0         0         0         0
         0         0         0         0         0         0         0         0
         0         0         0         0         0         0         0         0
         0         0         0         0         0         0         0         0
         0         0         0         0         0         0         0         0
         0         0         0         0         0         0         0         0
         0         0         0         0         0         0         0         0
         0         0         0         0         0         0         0         0
         0         0         0         0         0         0         0         0
         0         0         0         0         0         0         0         0
         0         0         0         0         0         0         0         0
         0         0         0         0         0         0         0         0
         0         0         0         0         0         0         0         0
         0         0         0         0         0         0         0         0
         0         0         0         0         0         0         0         0
         0         0         0         0         0         0         0         0
         0         0         0         0         0         0         0         0
         0         0         0         0         0         0         0         0
         0         0         0         0         0         0         0         0
         0         0         0         0         0         0         0         0
         0         0         0         0         0         0         0         0
         0         0         0         0         0         0         0         0
         0         0         0         0         0         0         0         0
         0         0         0         0         0         0         0         0
         0         0         0         0         0         0         0         0
         0         0         0         0         0         0         0         0
         0         0         0         0         0         0         0         0
         0         0         0         0         0         0         0         0
         0         0         0         0         0         0         0         0
         0         0         0         0         0         0         0         0
         0         0         0         0         0         0         0         0
         0         0         0         0         0         0         0         0
         0         0         0         0         0         0         0         0
         0         0         0         0         0         0         0         0
         0         0         0         0         0         0         0         0
         0         0         0         0         0         0         0         0
         0         0         0         0         0         0         0         0
         0         0         0         0         0         0         0         0
         0         0         0         0         0         0         0         0
         0         0         0         0         0         0         0         0
         0         0         0         0         0         0         0         0
         0         0         0         0         0         0         0         0
         0         0         0         0         0         0         0         0
         0         0         0         0         0         0         0         0
         0         0         0         0         0         0         0         0
         0         0         0         0         0         0         0         0
         0         0         0         0         0         0         0         0
         0         0         0         0         0         0         0         0
         0         0         0         0         0         0         0         0
         0         0         0         0         0         0         0         0
         0         0         0         0         0         0         0         0
         0         0         0         0         0         0         0         0
         0         0         0         0         0         0         0         0
         0         0         0         0         0         0         0         0
         0         0         0         0         0         0         0         0
         0         0         0         0         0         0         0         0
         0         0         0         0         0         0         0         0
         0         0         0         0         0         0         0         0
         0         0         0         0         0         0         0         0
         0         0         0         0         0         0         0         0
         0         0         0         0         0         0         0         0
         0         0         0         0         0         0         0         0
         0         0         0         0         0         0         0         0
         0         0         0         0         0         0         0         0
         0         0         0         0         0         0         0         0
         0         0         0         0         0         0         0         0
         0         0         0         0         0         0         0         0
         0         0         0         0         0         0         0         0
         0         0         0         0         0         0         0         0
         0         0         0         0         0         0         0         0
         0         0         0         0         0         0         0         0
         0         0         0         0         0         0         0         0
         0         0         0         0         0         0         0         0
         0         0         0         0         0         0         0         0
         0         0         0         0         0         0         0         0
         0         0         0         0         0         0         0         0
         0         0         0         0         0         0         0         0
         0         0         0         0         0         0         0         0
         0         0         0         0         0         0         0         0
         0         0         0         0         0         0         0         0
         0         0         0         0         0         0         0         0
         0         0         0         0         0         0         0         0
         0         0         0         0         0         0         0         0
         0         0         0         0         0         0         0         0
         0         0         0         0         0         0         0         0
         0         0         0         0         0         0         0         0
         0         0         0         0         0         0         0         0
         0         0         0         0         0         0         0         0
         0         0         0         0         0         0         0         0
         0         0         0         0         0         0         0         0
         0         0         0         0         0         0         0         0
         0         0         0         0         0         0         0         0
         0         0         0         0         0         0         0         0
         0         0         0         0         0         0         0         0
         0         0         0         0         0         0         0         0
         0         0         0         0         0         0         0         0
         0         0         0         0         0         0         0         0
         0         0         0         0         0         0         0         0
         0         0         0         0         0         0         0         0
         0         0         0         0         0         0         0         0
         0         0         0         0         0         0         0         0
         0         0         0         0         0         0         0         0
         0         0         0         0         0         0         0         0
         0         0         0         0         0         0         0         0
         0         0         0         0         0         0         0         0
         0         0         0         0         0         0         0         0
         0         0         0         0         0         0         0         0
         0         0         0         0         0         0         0         0
         0         0         0         0         0         0         0         0
         0         0         0         0         0         0         0         0
         0         0         0         0         0         0         0         0
         0         0         0         0         0         0         0         0
         0         0         0         0         0         0         0         0
         0         0         0         0         0         0         0         0
         0         0         0         0         0         0         0         0
         0         0         0         0         0         0         0         0
         0         0         0         0         0         0         0         0
         0         0         0         0         0         0         0         0
         0         0         0         0         0         0         0         0
         0         0         0         0         0         0         0         0
         0         0         0         0         0         0         0         0
         0         0         0         0         0         0         0         0
         0         0         0         0         0         0         0         0
         0         0         0         0         0         0         0         0
         0         0         0         0         0         0         0         0
         0         0         0         0         0         0         0         0
         0         0         0         0         0         0         0         0
         0         0         0         0         0         0         0         0
         0         0         0         0         0         0         0         0
         0         0         0         0         0         0         0         0
         0         0         0         0         0         0         0         0
         0         0         0         0         0         0         0         0
         0         0         0         0         0         0         0         0
         0         0         0         0         0         0         0         0
         0         0         0         0         0         0         0         0
         0         0         0         0         0         0         0         0
         0         0         0         0         0         0         0         0
         0         0         0         0         0         0         0         0
         0         0         0         0         0         0         0         0
         0         0         0         0         0         0         0         0
         0         0         0         0         0         0         0         0
         0         0         0         0         0         0         0         0
         0         0         0         0         0         0         0         0
         0         0         0         0         0         0         0         0
         0         0         0         0         0         0         0         0
         0         0         0         0         0         0         0         0
         0         0         0         0         0         0         0         0
         0         0         0         0         0         0         0         0
         0         0         0         0         0         0         0         0
         0         0         0         0         0         0         0         0
         0         0         0         0         0         0         0         0
         0         0         0         0         0         0         0         0
         0         0         0         0         0         0         0         0
         0         0         0         0         0         0         0         0
         0         0         0         0         0         0         0         0
         0         0         0         0         0         0         0         0
         0         0         0         0         0         0         0         0
         0         0         0         0         0         0         0         0
         0         0         0         0         0         0         0         0
         0         0         0         0         0         0         0         0
         0         0         0         0         0         0         0         0
         0         0         0         0         0         0         0         0
         0         0         0         0         0         0         0         0
         0         0         0         0         0         0         0         0
         0         0         0         0         0         0         0         0
         0         0         0         0         0         0         0         0
         0         0         0         0         0         0         0         0
         0         0         0         0         0         0         0         0
         0         0         0         0         0         0         0         0
         0         0         0         0         0         0         0         0
         0         0         0         0         0         0         0         0
         0         0         0         0         0         0         0         0
         0         0         0         0         0         0         0         0
         0         0         0         0         0         0         0         0
         0         0         0         0         0         0         0         0
         0         0         0         0         0         0         0         0
         0         0         0         0         0         0         0         0
         0         0         0         0         0         0         0         0
         0         0         0         0         0         0         0         0
         0         0         0         0         0         0         0         0
         0         0         0         0         0         0         0         0
         0         0         0         0         0         0         0         0
         0         0         0         0         0         0         0         0
         0         0         0         0         0         0         0         0
         0         0         0         0         0         0         0         0
         0         0         0         0         0         0         0         0
         0         0         0         0         0         0         0         0
         0         0         0         0         0         0         0         0
         0         0         0         0         0         0         0         0
         0         0         0         0         0         0         0         0
         0         0         0         0         0         0         0         0
         0         0         0         0         0         0         0         0
         0         0         0         0         0         0         0         0
         0         0         0         0         0         0         0         0
         0         0         0         0         0         0         0         0
         0         0         0         0         0         0         0         0
         0         0         0         0         0         0         0         0
         0         0         0         0         0         0         0         0
         0         0         0         0         0         0         0         0
         0         0         0         0         0         0         0         0
         0         0         0         0         0         0         0         0
         0         0         0         0         0         0         0         0
         0         0         0         0         0         0         0         0
         0         0         0         0         0         0         0         0
         0         0         0         0         0         0         0         0
         0         0         0         0         0         0         0         0
         0         0         0         0         0         0         0         0
         0         0         0         0         0         0         0         0
         0         0         0         0         0         0         0         0
         0         0         0         0         0         0         0         0
         0         0         0         0         0         0         0         0
         0         0         0         0         0         0         0         0
         0         0         0         0         0         0         0         0
         0         0         0         0         0         0         0         0
         0         0         0         0         0         0         0         0
         0         0         0         0         0         0         0         0
         0         0         0         0         0         0         0         0
         0         0         0         0         0         0         0         0
         0         0         0         0         0         0         0         0
         0         0         0         0         0         0         0         0
         0         0         0         0         0         0         0         0
         0         0         0         0         0         0         0         0
         0         0         0         0         0         0         0         0
         0         0         0         0         0         0         0         0
         0         0         0         0         0         0         0         0
         0         0         0         0         0         0         0         0
         0         0         0         0         0         0         0         0
         0         0         0         0         0         0         0         0
         0         0         0         0         0         0         0         0
         0         0         0         0         0         0         0         0
         0         0         0         0         0         0         0         0
         0         0         0         0         0         0         0         0
         0         0         0         0         0         0         0         0
         0         0         0         0         0         0         0         0
         0         0         0         0         0         0         0         0
         0         0         0         0         0         0         0         0
         0         0         0         0         0         0         0         0
         0         0         0         0         0         0         0         0
         0         0         0         0         0         0         0         0
         0         0         0         0         0         0         0         0
         0         0         0         0         0         0         0         0
         0         0         0         0         0         0         0         0
         0         0         0         0         0         0         0         0
         0         0         0         0         0         0         0         0
         0         0         0         0         0         0         0         0
         0         0         0         0         0         0         0         0
         0         0         0         0         0         0         0         0
         0         0         0         0         0         0         0         0
         0         0         0         0         0         0         0         0
         0         0         0         0         0         0         0         0
         0         0         0         0         0         0         0         0
         0         0         0         0         0         0         0         0
         0         0         0         0         0         0         0         0
         0         0         0         0         0         0         0         0
         0         0         0         0         0         0         0         0
         0         0         0         0         0         0         0         0
         0         0         0         0         0         0         0         0
         0         0         0         0         0         0         0         0
         0         0         0         0         0         0         0         0
         0         0         0         0         0         0         0         0
         0         0         0         0         0         0         0         0
         0         0         0         0         0         0         0         0
         0         0         0         0         0         0         0         0
         0         0         0         0         0         0         0         0
         0         0         0         0         0         0         0         0
         0         0         0         0         0         0         0         0
         0         0         0         0         0         0         0         0
         0         0         0         0         0         0         0         0
         0         0         0         0         0         0         0         0
         0         0         0         0         0         0         0         0
         0         0         0         0         0         0         0         0
         0         0         0         0         0         0         0         0
         0         0         0         0         0         0         0         0
         0         0         0         0         0         0         0         0
         0         0         0         0         0         0         0         0
         0         0         0         0         0         0         0         0
         0         0         0         0         0         0         0         0
         0         0         0         0         0         0         0         0
         0         0         0         0         0         0         0         0
         0         0         0         0         0         0         0         0
         0         0         0         0         0         0         0         0
         0         0         0         0         0         0         0         0
         0         0         0         0         0         0         0         0
         0         0         0         0         0         0         0         0
         0         0         0         0         0         0         0         0
         0         0         0         0         0         0         0         0
         0         0         0         0         0         0         0         0
         0         0         0         0         0         0         0         0
         0         0         0         0         0         0         0         0
         0         0         0         0         0         0         0         0
         0         0         0         0         0         0         0         0
         0         0         0         0         0         0         0         0
         0         0         0         0         0         0         0         0
         0         0         0         0         0         0         0         0
         0         0         0         0         0         0         0         0
         0         0         0         0         0         0         0         0
         0         0         0         0         0         0         0         0
         0         0         0         0         0         0         0         0
         0         0         0         0         0         0         0         0
         0         0         0         0         0         0         0         0
         0         0         0         0         0         0         0         0
         0         0         0         0         0         0         0         0
         0         0         0         0         0         0         0         0
         0         0         0         0         0         0         0         0
         0         0         0         0         0         0         0         0
         0         0         0         0         0         0         0         0
         0         0         0         0         0         0         0         0
         0         0         0         0         0         0         0         0
         0         0         0         0         0         0         0         0
         0         0         0         0         0         0         0         0
         0         0         0         0         0         0         0         0
         0         0         0         0         0         0         0         0
         0         0         0         0         0         0         0         0
         0         0         0         0         0         0         0         0
         0         0         0         0         0         0         0         0
         0         0         0         0         0         0         0         0
         0         0         0         0         0         0         0         0
         0         0         0         0         0         0         0         0
         0         0         0         0         0         0         0         0
         0         0         0         0         0         0         0         0
         0         0         0         0         0         0         0         0
         0         0         0         0         0         0         0         0
         0         0         0         0         0         0         0         0
         0         0         0         0         0         0         0         0
         0         0         0         0         0         0         0         0
         0         0         0         0         0         0         0         0
         0         0         0         0         0         0         0         0
         0         0         0         0         0         0         0         0
         0         0         0         0         0         0         0         0
         0         0         0         0         0         0         0         0
         0         0         0         0         0         0         0         0
         0         0         0         0         0         0         0         0
         0         0         0         0         0         0         0         0
         0         0         0         0         0         0         0         0
         0         0         0         0         0         0         0         0
         0         0         0         0         0         0         0         0
         0         0         0         0         0         0         0         0
         0         0         0         0         0         0         0         0
         0         0         0         0         0         0         0         0
         0         0         0         0         0         0         0         0
         0         0         0         0         0         0         0         0
         0         0         0         0         0         0         0         0
         0         0         0         0         0         0         0         0
         0         0         0         0         0         0         0         0
         0         0         0         0         0         0         0         0
         0         0         0         0         0         0         0         0
         0         0         0         0         0         0         0         0
         0         0         0         0         0         0         0         0
         0         0         0         0         0         0         0         0
         0         0         0         0         0         0         0         0
         0         0         0         0         0         0         0         0
         0         0         0         0         0         0         0         0
         0         0         0         0         0         0         0         0
         0         0         0         0         0         0         0         0
         0         0         0         0         0         0         0         0
         0         0         0         0         0         0         0         0
         0         0         0         0         0         0         0         0
         0         0         0         0         0         0         0         0
         0         0         0         0         0         0         0         0
         0         0         0         0         0         0         0         0
         0         0         0         0         0         0         0         0
         0         0         0         0         0         0         0         0
         0         0         0         0         0         0         0         0
         0         0         0         0         0         0         0         0
         0         0         0         0         0         0         0         0
         0         0         0         0         0         0         0         0
         0         0         0         0         0         0         0         0
         0         0         0         0         0         0         0         0
         0         0         0         0         0         0         0         0
         0         0         0         0         0         0         0         0
         0         0         0         0         0         0         0         0
         0         0         0         0         0         0         0         0
         0         0         0         0         0         0         0         0
         0         0         0         0         0         0         0         0
         0         0         0         0         0         0         0         0
         0         0         0         0         0         0         0         0
         0         0         0         0         0         0         0         0
         0         0         0         0         0         0         0         0
         0         0         0         0         0         0         0         0
         0         0         0         0         0         0         0         0
         0         0         0         0         0         0         0         0
         0         0         0         0         0         0         0         0
         0         0         0         0         0         0         0         0
         0         0         0         0         0         0         0         0
         0         0         0         0         0         0         0         0
         0         0         0         0         0         0         0         0
         0         0         0         0         0         0         0         0
         0         0         0         0         0         0         0         0
         0         0         0         0         0         0         0         0
         0         0         0         0         0         0         0         0
         0         0         0         0         0         0         0         0
         0         0         0         0         0         0         0         0
         0         0         0         0         0         0         0         0
         0         0         0         0         0         0         0         0
         0         0         0         0         0         0         0         0
         0         0         0         0         0         0         0         0
         0         0         0         0         0         0         0         0
         0         0         0         0         0         0         0         0
         0         0         0         0         0         0         0         0
         0         0         0         0         0         0         0         0
         0         0         0         0         0         0         0         0
         0         0         0         0         0         0         0         0
         0         0         0         0         0         0         0         0
         0         0         0         0         0         0         0         0
         0         0         0         0         0         0         0         0
         0         0         0         0         0         0         0         0
         0         0         0         0         0         0         0         0
         0         0         0         0         0         0         0         0
         0         0         0         0         0         0         0         0
         0         0         0         0         0         0         0         0
         0         0         0         0         0         0         0         0
         0         0         0         0         0         0         0         0
         0         0         0         0         0         0         0         0
         0         0         0         0         0         0         0         0
         0         0         0         0         0         0         0         0
         0         0         0         0         0         0         0         0
         0         0         0         0         0         0         0         0
         0         0         0         0         0         0         0         0
         0         0         0         0         0         0         0         0
         0         0         0         0         0         0         0         0
         0         0         0         0         0         0         0         0
         0         0         0         0         0         0         0         0
         0         0         0         0         0         0         0         0
         0         0         0         0         0         0         0         0
         0         0         0         0         0         0         0         0
         0         0         0         0         0         0         0         0
         0         0         0         0         0         0         0         0
         0         0         0         0         0         0         0         0
         0         0         0         0         0         0         0         0
         0         0         0         0         0         0         0         0
         0         0         0         0         0         0         0         0
         0         0         0         0         0         0         0         0
         0         0         0         0         0         0         0         0
         0         0         0         0         0         0         0         0
         0         0         0         0         0         0         0         0
         0         0         0         0         0         0         0         0
         0         0         0         0         0         0         0         0
         0         0         0         0         0         0         0         0
         0         0         0         0         0         0         0         0
         0         0         0         0         0         0         0         0
         0         0         0         0         0         0         0         0
         0         0         0         0         0         0         0         0
         0         0         0         0         0         0         0         0
         0         0         0         0         0         0         0         0
         0         0         0         0         0         0         0         0
         0         0         0         0         0         0         0         0
         0         0         0         0         0         0         0         0
         0         0         0         0         0         0         0         0
         0         0         0         0         0         0         0         0
         0         0         0         0         0         0         0         0
         0         0         0         0         0         0         0         0
         0         0         0         0         0         0         0         0
         0         0         0         0         0         0         0         0
         0         0         0         0         0         0         0         0
         0         0         0         0         0         0         0         0
         0         0         0         0         0         0         0         0
         0         0         0         0         0         0         0         0
         0         0         0         0         0         0         0         0
         0         0         0         0         0         0         0         0
         0         0         0         0         0         0         0         0
         0         0         0         0         0         0         0         0
         0         0         0         0         0         0         0         0
         0         0         0         0         0         0         0         0
         0         0         0         0         0         0         0         0
         0         0         0         0         0         0         0         0
         0         0         0         0         0         0         0         0
         0         0         0         0         0         0         0         0
         0         0         0         0         0         0         0         0
         0         0         0         0         0         0         0         0
         0         0         0         0         0         0         0         0
         0         0         0         0         0         0         0         0
         0         0         0         0         0         0         0         0
         0         0         0         0         0         0         0         0
         0         0         0         0         0         0         0         0
         0         0         0         0         0         0         0         0
         0         0         0         0         0         0         0         0
         0         0         0         0         0         0         0         0
         0         0         0         0         0         0         0         0
         0         0         0         0         0         0         0         0
         0         0         0         0         0         0         0         0
         0         0         0         0         0         0         0         0
         0         0         0         0         0         0         0         0
         0         0         0         0         0         0         0         0
         0         0         0         0         0         0         0         0
         0         0         0         0         0         0         0         0
         0         0         0         0         0         0         0         0
         0         0         0         0         0         0         0         0
         0         0         0         0         0         0         0         0
         0         0         0         0         0         0         0         0
         0         0         0         0         0         0         0         0
         0         0         0         0         0         0         0         0
         0         0         0         0         0         0         0         0
         0         0         0         0         0         0         0         0
         0         0         0         0         0         0         0         0
         0         0         0         0         0         0         0         0
         0         0         0         0         0         0         0         0
         0         0         0         0         0         0         0         0
         0         0         0         0         0         0         0         0
         0         0         0         0         0         0         0         0
         0         0         0         0         0         0         0         0
         0         0         0         0         0         0         0         0
         0         0         0         0         0         0         0         0
         0         0         0         0         0         0         0         0
         0         0         0         0         0         0         0         0
         0         0         0         0         0         0         0         0
         0         0         0         0         0         0         0         0
         0         0         0         0         0         0         0         0
         0         0         0         0         0         0         0         0
         0         0         0         0         0         0         0         0
         0         0         0         0         0         0         0         0
         0         0         0         0         0         0         0         0
         0         0         0         0         0         0         0         0
         0         0         0         0         0         0         0         0
         0         0         0         0         0         0         0         0
         0         0         0         0         0         0         0         0
         0         0         0         0         0         0         0         0
         0         0         0         0         0         0         0         0
         0         0         0         0         0         0         0         0
         0         0         0         0         0         0         0         0
         0         0         0         0         0         0         0         0
         0         0         0         0         0         0         0         0
         0         0         0         0         0         0         0         0
         0         0         0         0         0         0         0         0
         0         0         0         0         0         0         0         0
         0         0         0         0         0         0         0         0
         0         0         0         0         0         0         0         0
         0         0         0         0         0         0         0         0
         0         0         0         0         0         0         0         0
         0         0         0         0         0         0         0         0
         0         0         0         0         0         0         0         0
         0         0         0         0         0         0         0         0
         0         0         0         0         0         0         0         0
         0         0         0         0         0         0         0         0
         0         0         0         0         0         0         0         0
         0         0         0         0         0         0         0         0
         0         0         0         0         0         0         0         0
         0         0         0         0         0         0         0         0
         0         0         0         0         0         0         0         0
         0         0         0         0         0         0         0         0
         0         0         0         0         0         0         0         0
         0         0         0         0         0         0         0         0
         0         0         0         0         0         0         0         0
         0         0         0         0         0         0         0         0
         0         0         0         0         0         0         0         0
         0         0         0         0         0         0         0         0
         0         0         0         0         0         0         0         0
         0         0         0         0         0         0         0         0
         0         0         0         0         0         0         0         0
         0         0         0         0         0         0         0         0
         0         0         0         0         0         0         0         0
         0         0         0         0         0         0         0         0
         0         0         0         0         0         0         0         0
         0         0         0         0         0         0         0         0
         0         0         0         0         0         0         0         0
         0         0         0         0         0         0         0         0
         0         0         0         0         0         0         0         0
         0         0         0         0         0         0         0         0
         0         0         0         0         0         0         0         0
         0         0         0         0         0         0         0         0
         0         0         0         0         0         0         0         0
         0         0         0         0         0         0         0         0
         0         0         0         0         0         0         0         0
         0         0         0         0         0         0         0         0
         0         0         0         0         0         0         0         0
         0         0         0         0         0         0         0         0
         0         0         0         0         0         0         0         0
         0         0         0         0         0         0         0         0
         0         0         0         0         0         0         0         0
         0         0         0         0         0         0         0         0
         0         0         0         0         0         0         0         0
         0         0         0         0         0         0         0         0
         0         0         0         0         0         0         0         0
         0         0         0         0         0         0         0         0
         0         0         0         0         0         0         0         0
         0         0         0         0         0         0         0         0
         0         0         0         0         0         0         0         0
         0         0         0         0         0         0         0         0
         0         0         0         0         0         0         0         0
         0         0         0         0         0         0         0         0
         0         0         0         0         0         0         0         0
         0         0         0         0         0         0         0         0
         0         0         0         0         0         0         0         0
         0         0         0         0         0         0         0         0
         0         0         0         0         0         0         0         0
         0         0         0         0         0         0         0         0
         0         0         0         0         0         0         0         0
         0         0         0         0         0         0         0         0
         0         0         0         0         0         0         0         0
         0         0         0         0         0         0         0         0
         0         0         0         0         0         0         0         0
         0         0         0         0         0         0         0         0
         0         0         0         0         0         0         0         0
         0         0         0         0         0         0         0         0
         0         0         0         0         0         0         0         0
         0         0         0         0         0         0         0         0
         0         0         0         0         0         0         0         0
         0         0         0         0         0         0         0         0
         0         0         0         0         0         0         0         0
         0         0         0         0         0         0         0         0
         0         0         0         0         0         0         0         0
         0         0         0         0         0         0         0         0
         0         0         0         0         0         0         0         0
         0         0         0         0         0         0         0         0
         0         0         0         0         0         0         0         0
         0         0         0         0         0         0         0         0
         0         0         0         0         0         0         0         0
         0         0         0         0         0         0         0         0
         0         0         0         0         0         0         0         0
         0         0         0         0         0         0         0         0
         0         0         0         0         0         0         0         0
         0         0         0         0         0         0         0         0
         0         0         0         0         0         0         0         0
         0         0         0         0         0         0         0         0
         0         0         0         0         0         0         0         0
         0         0         0         0         0         0         0         0
         0         0         0         0         0         0         0         0
         0         0         0         0         0         0         0         0
         0         0         0         0         0         0         0         0
         0         0         0         0         0         0         0         0
         0         0         0         0         0         0         0         0
         0         0         0         0         0         0         0         0
         0         0         0         0         0         0         0         0
         0         0         0         0         0         0         0         0
         0         0         0         0         0         0         0         0
         0         0         0         0         0         0         0         0
         0         0         0         0         0         0         0         0
         0         0         0         0         0         0         0         0
         0         0         0         0         0         0         0         0
         0         0         0         0         0         0         0         0
         0         0         0         0         0         0         0         0
         0         0         0         0         0         0         0         0
         0         0         0         0         0         0         0         0
         0         0         0         0         0         0         0         0
         0         0         0         0         0         0         0         0
         0         0         0         0         0         0         0         0
         0         0         0         0         0         0         0         0
         0         0         0         0         0         0         0         0
         0         0         0         0         0         0         0         0
         0         0         0         0         0         0         0         0
         0         0         0         0         0         0         0         0
         0         0         0         0         0         0         0         0
         0         0         0         0         0         0         0         0
         0         0         0         0         0         0         0         0
         0         0         0         0         0         0         0         0
         0         0         0         0         0         0         0         0
         0         0         0         0         0         0         0         0
         0         0         0         0         0         0         0         0
         0         0         0         0         0         0         0         0
         0         0         0         0         0         0         0         0
         0         0         0         0         0         0         0         0
         0         0         0         0         0         0         0         0
         0         0         0         0         0         0         0         0
         0         0         0         0         0         0         0         0
         0         0         0         0         0         0         0         0
         0         0         0         0         0         0         0         0
         0         0         0         0         0         0         0         0
         0         0         0         0         0         0         0         0
         0         0         0         0         0         0         0         0
         0         0         0         0         0         0         0         0
         0         0         0         0         0         0         0         0
         0         0         0         0         0         0         0         0
         0         0         0         0         0         0         0         0
         0         0         0         0         0         0         0         0
         0         0         0         0         0         0         0         0
         0         0         0         0         0         0         0         0
         0         0         0         0         0         0         0         0
         0         0         0         0         0         0         0         0
         0         0         0         0         0         0         0         0
         0         0         0         0         0         0         0         0
         0         0         0         0         0         0         0         0
         0         0         0         0         0         0         0         0
         0         0         0         0         0         0         0         0
         0         0         0         0         0         0         0         0
         0         0         0         0         0         0         0         0
         0         0         0         0         0         0         0         0
         0         0         0         0         0         0         0         0
         0         0         0         0         0         0         0         0
         0         0         0         0         0         0         0         0
         0         0         0         0         0         0         0         0
         0         0         0         0         0         0         0         0
         0         0         0         0         0         0         0         0
         0         0         0         0         0         0         0         0
         0         0         0         0         0         0         0         0
         0         0         0         0         0         0         0         0
         0         0         0         0         0         0         0         0
         0         0         0         0         0         0         0         0
         0         0         0         0         0         0         0         0
         0         0         0         0         0         0         0         0
         0         0         0         0         0         0         0         0
         0         0         0         0         0         0         0         0
         0         0         0         0         0         0         0         0
         0         0         0         0         0         0         0         0
         0         0         0         0         0         0         0         0
         0         0         0         0         0         0         0         0
         0         0         0         0         0         0         0         0
         0         0         0         0         0         0         0         0
         0         0         0         0         0         0         0         0
         0         0         0         0         0         0         0         0
         0         0         0         0         0         0         0         0
         0         0         0         0         0         0         0         0
         0         0         0         0         0         0         0         0
         0         0         0         0         0         0         0         0
         0         0         0         0         0         0         0         0
         0         0         0         0         0         0         0         0
         0         0         0         0         0         0         0         0
         0         0         0         0         0         0         0         0
         0         0         0         0         0         0         0         0
         0         0         0         0         0         0         0         0
         0         0         0         0         0         0         0         0
         0         0         0         0         0         0         0         0
         0         0         0         0         0         0         0         0
         0         0         0         0         0         0         0         0
         0         0         0         0         0         0         0         0
         0         0         0         0         0         0         0         0
         0         0         0         0         0         0         0         0
         0         0         0         0         0         0         0         0
         0         0         0         0         0         0         0         0
         0         0         0         0         0         0         0         0
         0         0         0         0         0         0         0         0
         0         0         0         0         0         0         0         0
         0         0         0         0         0         0         0         0
         0         0         0         0         0         0         0         0
         0         0         0         0         0         0         0         0
         0         0         0         0         0         0         0         0
         0         0         0         0         0         0         0         0
         0         0         0         0         0         0         0         0
         0         0         0         0         0         0         0         0
         0         0         0         0         0         0         0         0
         0         0         0         0         0         0         0         0
         0         0         0         0         0         0         0         0
         0         0         0         0         0         0         0         0
         0         0         0         0         0         0         0         0
         0         0         0         0         0         0         0         0
         0         0         0         0         0         0         0         0
         0         0         0         0         0         0         0         0
         0         0         0         0         0         0         0         0
         0         0         0         0         0         0         0         0
         0         0         0         0         0         0         0         0
         0         0         0         0         0         0         0         0
         0         0         0         0         0         0         0         0
         0         0         0         0         0         0         0         0
         0         0         0         0         0         0         0         0
         0         0         0         0         0         0         0         0
         0         0         0         0         0         0         0         0
         0         0         0         0         0         0         0         0
         0         0         0         0         0         0         0         0
         0         0         0         0         0         0         0         0
         0         0         0         0         0         0         0         0
         0         0         0         0         0         0         0         0
         0         0         0         0         0         0         0         0
         0         0         0         0         0         0         0         0
         0         0         0         0         0         0         0         0
         0         0         0         0         0         0         0         0
         0         0         0         0         0         0         0         0
         0         0         0         0         0         0         0         0
         0         0         0         0         0         0         0         0
         0         0         0         0         0         0         0         0
         0         0         0         0         0         0         0         0
         0         0         0         0         0         0         0         0
         0         0         0         0         0         0         0         0
         0         0         0         0         0         0         0         0
         0         0         0         0         0         0         0         0
         0         0         0         0         0         0         0         0
         0         0         0         0         0         0         0         0
         0         0         0         0         0         0         0         0
         0         0         0         0         0         0         0         0
         0         0         0         0         0         0         0         0
         0         0         0         0         0         0         0         0
         0         0         0         0         0         0         0         0
         0         0         0         0         0         0         0         0
         0         0         0         0         0         0         0         0
         0         0         0         0         0         0         0         0
         0         0         0         0         0         0         0         0
         0         0         0         0         0         0         0         0
         0         0         0         0         0         0         0         0
         0         0         0         0         0         0         0         0
         0         0         0         0         0         0         0         0
         0         0         0         0         0         0         0         0
         0         0         0         0         0         0         0         0
         0         0         0         0         0         0         0         0
         0         0         0         0         0         0         0         0
         0         0         0         0         0         0         0         0
         0         0         0         0         0         0         0         0
         0         0         0         0         0         0         0         0
         0         0         0         0         0         0         0         0
         0         0         0         0         0         0         0         0
         0         0         0         0         0         0         0         0
         0         0         0         0         0         0         0         0
         0         0         0         0         0         0         0         0
         0         0         0         0         0         0         0         0
         0         0         0         0         0         0         0         0
         0         0         0         0         0         0         0         0
         0         0         0         0         0         0         0         0
         0         0         0         0         0         0         0         0
         0         0         0         0         0         0         0         0
         0         0         0         0         0         0         0         0
         0         0         0         0         0         0         0         0
         0         0         0         0         0         0         0         0
         0         0         0         0         0         0         0         0
         0         0         0         0         0         0         0         0
         0         0         0         0         0         0         0         0
         0         0         0         0         0         0         0         0
         0         0         0         0         0         0         0         0
         0         0         0         0         0         0         0         0
         0         0         0         0         0         0         0         0
         0         0         0         0         0         0         0         0
         0         0         0         0         0         0         0         0
         0         0         0         0         0         0         0         0
         0         0         0         0         0         0         0         0
         0         0         0         0         0         0         0         0
         0         0         0         0         0         0         0         0
         0         0         0         0         0         0         0         0
         0         0         0         0         0         0         0         0
         0         0         0         0         0         0         0         0
         0         0         0         0         0         0         0         0
         0         0         0         0         0         0         0         0
         0         0         0         0         0         0         0         0
         0         0         0         0         0         0         0         0
         0         0         0         0         0         0         0         0
         0         0         0         0         0         0         0         0
         0         0         0         0         0         0         0         0
         0         0         0         0         0         0         0         0
         0         0         0         0         0         0         0         0
         0         0         0         0         0         0         0         0
         0         0         0         0         0         0         0         0
         0         0         0         0         0         0         0         0
         0         0         0         0         0         0         0         0
         0         0         0         0         0         0         0         0
         0         0         0         0         0         0         0         0
         0         0         0         0         0         0         0         0
         0         0         0         0         0         0         0         0
         0         0         0         0         0         0         0         0
         0         0         0         0         0         0         0         0
         0         0         0         0         0         0         0         0
         0         0         0         0         0         0         0         0
         0         0         0         0         0         0         0         0
         0         0         0         0         0         0         0         0
         0         0         0         0         0         0         0         0
         0         0         0         0         0         0         0         0
         0         0         0         0         0         0         0         0
         0         0         0         0         0         0         0         0
         0         0         0         0         0         0         0         0
         0         0         0         0         0         0         0         0
         0         0         0         0         0         0         0         0
         0         0         0         0         0         0         0         0
         0         0         0         0         0         0         0         0
         0         0         0         0         0         0         0         0
         0         0         0         0         0         0         0         0
         0         0         0         0         0         0         0         0
         0         0         0         0         0         0         0         0
         0         0         0         0         0         0         0         0
         0         0         0         0         0         0         0         0
         0         0         0         0         0         0         0         0
         0         0         0         0         0         0         0         0
         0         0         0         0         0         0         0         0
         0         0         0         0         0         0         0         0
         0         0         0         0         0         0         0         0
         0         0         0         0         0         0         0         0
         0         0         0         0         0         0         0         0
         0         0         0         0         0         0         0         0
         0         0         0         0         0         0         0         0
         0         0         0         0         0         0         0         0
         0         0         0         0         0         0         0         0
         0         0         0         0         0         0         0         0
         0         0         0         0         0         0         0         0
         0         0         0         0         0         0         0         0
         0         0         0         0         0         0         0         0
         0         0         0         0         0         0         0         0
         0         0         0         0         0         0         0         0
         0         0         0         0         0         0         0         0
         0         0         0         0         0         0         0         0
         0         0         0         0         0         0         0         0
         0         0         0         0         0         0         0         0
         0         0         0         0         0         0         0         0
         0         0         0         0         0         0         0         0
         0         0         0         0         0         0         0         0
         0         0         0         0         0         0         0         0
         0         0         0         0         0         0         0         0
         0         0         0         0         0         0         0         0
         0         0         0         0         0         0         0         0
         0         0         0         0         0         0         0         0
         0         0         0         0         0         0         0         0
         0         0         0         0         0         0         0         0
         0         0         0         0         0         0         0         0
         0         0         0         0         0         0         0         0
         0         0         0         0         0         0         0         0
         0         0         0         0         0         0         0         0
         0         0         0         0         0         0         0         0
         0         0         0         0         0         0         0         0
         0         0         0         0         0         0         0         0
         0         0         0         0         0         0         0         0
         0         0         0         0         0         0         0         0
         0         0         0         0         0         0         0         0
         0         0         0         0         0         0         0         0
         0         0         0         0         0         0         0         0
         0         0         0         0         0         0         0         0
         0         0         0         0         0         0         0         0
         0         0         0         0         0         0         0         0
         0         0         0         0         0         0         0         0
         0         0         0         0         0         0         0         0
         0         0         0         0         0         0         0         0
         0         0         0         0         0         0         0         0
         0         0         0         0         0         0         0         0
         0         0         0         0         0         0         0         0
         0         0         0         0         0         0         0         0
         0         0         0         0         0         0         0         0
         0         0         0         0         0         0         0         0
         0         0         0         0         0         0         0         0
         0         0         0         0         0         0         0         0
         0         0         0         0         0         0         0         0
         0         0         0         0         0         0         0         0
         0         0         0         0         0         0         0         0
         0         0         0         0         0         0         0         0
         0         0         0         0         0         0         0         0
         0         0         0         0         0         0         0         0
         0         0         0         0         0         0         0         0
         0         0         0         0         0         0         0         0
         0         0         0         0         0         0         0         0
         0         0         0         0         0         0         0         0
         0         0         0         0         0         0         0         0
         0         0         0         0         0         0         0         0
         0         0         0         0         0         0         0         0
         0         0         0         0         0         0         0         0
         0         0         0         0         0         0         0         0
         0         0         0         0         0         0         0         0
         0         0         0         0         0         0         0         0
         0         0         0         0         0         0         0         0
         0         0         0         0         0         0         0         0
         0         0         0         0         0         0         0         0
         0         0         0         0         0         0         0         0
         0         0         0         0         0         0         0         0
         0         0         0         0         0         0         0         0
         0         0         0         0         0         0         0         0
         0         0         0         0         0         0         0         0
         0         0         0         0         0         0         0         0
         0         0         0         0         0         0         0         0
         0         0         0         0         0         0         0         0
         0         0         0         0         0         0         0         0
         0         0         0         0         0         0         0         0
         0         0         0         0         0         0         0         0
         0         0         0         0         0         0         0         0
         0         0         0         0         0         0         0         0
         0         0         0         0         0         0         0         0
         0         0         0         0         0         0         0         0
         0         0         0         0         0         0         0         0
         0         0         0         0         0         0         0         0
         0         0         0         0         0         0         0         0
         0         0         0         0         0         0         0         0
         0         0         0         0         0         0         0         0
         0         0         0         0         0         0         0         0
         0         0         0         0         0         0         0         0
         0         0         0         0         0         0         0         0
         0         0         0         0         0         0         0         0
         0         0         0         0         0         0         0         0
         0         0         0         0         0         0         0         0
         0         0         0         0         0         0         0         0
         0         0         0         0         0         0         0         0
         0         0         0         0         0         0         0         0
         0         0         0         0         0         0         0         0
         0         0         0         0         0         0         0         0
         0         0         0         0         0         0         0         0
         0         0         0         0         0         0         0         0
         0         0         0         0         0         0         0         0
         0         0         0         0         0         0         0         0
         0         0         0         0         0         0         0         0
         0         0         0         0         0         0         0         0
         0         0         0         0         0         0         0         0
         0         0         0         0         0         0         0         0
         0         0         0         0         0         0         0         0
         0         0         0         0         0         0         0         0
         0         0         0         0         0         0         0         0
         0         0         0         0         0         0         0         0
         0         0         0         0         0         0         0         0
         0         0         0         0         0         0         0         0
         0         0         0         0         0         0         0         0
         0         0         0         0         0         0         0         0
         0         0         0         0         0         0         0         0
         0         0         0         0         0         0         0         0
         0         0         0         0         0         0         0         0
         0         0         0         0         0         0         0         0
         0         0         0         0         0         0         0         0
         0         0         0         0         0         0         0         0
         0         0         0         0         0         0         0         0
         0         0         0         0         0         0         0         0
         0         0         0         0         0         0         0         0
         0         0         0         0         0         0         0         0
         0         0         0         0         0         0         0         0
         0         0         0         0         0         0         0         0
         0         0         0         0         0         0         0         0
         0         0         0         0         0         0         0         0
         0         0         0         0         0         0         0         0
         0         0         0         0         0         0         0         0
         0         0         0         0         0         0         0         0
         0         0         0         0         0         0         0         0
         0         0         0         0         0         0         0         0
         0         0         0         0         0         0         0         0
         0         0         0         0         0         0         0         0
         0         0         0         0         0         0         0         0
         0         0         0         0         0         0         0         0
         0         0         0         0         0         0         0         0
         0         0         0         0         0         0         0         0
         0         0         0         0         0         0         0         0
         0         0         0         0         0         0         0         0
         0         0         0         0         0         0         0         0
         0         0         0         0         0         0         0         0
         0         0         0         0         0         0         0         0
         0         0         0         0         0         0         0         0
         0         0         0         0         0         0         0         0
         0         0         0         0         0         0         0         0
         0         0         0         0         0         0         0         0
         0         0         0         0         0         0         0         0
         0         0         0         0         0         0         0         0
         0         0         0         0         0         0         0         0
         0         0         0         0         0         0         0         0
         0         0         0         0         0         0         0         0
         0         0         0         0         0         0         0         0
         0         0         0         0         0         0         0         0
         0         0         0         0         0         0         0         0
         0         0         0         0         0         0         0         0
         0         0         0         0         0         0         0         0
         0         0         0         0         0         0         0         0
         0         0         0         0         0         0         0         0
         0         0         0         0         0         0         0         0
         0         0         0         0         0         0         0         0
         0         0         0         0         0         0         0         0
         0         0         0         0         0         0         0         0
         0         0         0         0         0         0         0         0
         0         0         0         0         0         0         0         0
         0         0         0         0         0         0         0         0
         0         0         0         0         0         0         0         0
         0         0         0         0         0         0         0         0
         0         0         0         0         0         0         0         0
         0         0         0         0         0         0         0         0
         0         0         0         0         0         0         0         0
         0         0         0         0         0         0         0         0
         0         0         0         0         0         0         0         0
         0         0         0         0         0         0         0         0
         0         0         0         0         0         0         0         0
         0         0         0         0         0         0         0         0
         0         0         0         0         0         0         0         0
         0         0         0         0         0         0         0         0
         0         0         0         0         0         0         0         0
         0         0         0         0         0         0         0         0
         0         0         0         0         0         0         0         0
         0         0         0         0         0         0         0         0
         0         0         0         0         0         0         0         0
         0         0         0         0         0         0         0         0
         0         0         0         0         0         0         0         0
         0         0         0         0         0         0         0         0
         0         0         0         0         0         0         0         0
         0         0         0         0         0         0         0         0
         0         0         0         0         0         0         0         0
         0         0         0         0         0         0         0         0
         0         0         0         0         0         0         0         0
         0         0         0         0         0         0         0         0
         0         0         0         0         0         0         0         0
         0         0         0         0         0         0         0         0
         0         0         0         0         0         0         0         0
         0         0         0         0         0         0         0         0
         0         0         0         0         0         0         0         0
         0         0         0         0         0         0         0         0
         0         0         0         0         0         0         0         0
         0         0         0         0         0         0         0         0
         0         0         0         0         0         0         0         0
         0         0         0         0         0         0         0         0
         0         0         0         0         0         0         0         0
         0         0         0         0         0         0         0         0
         0         0         0         0         0         0         0         0
         0         0         0         0         0         0         0         0
         0         0         0         0         0         0         0         0
         0         0         0         0         0         0         0         0
         0         0         0         0         0         0         0         0
         0         0         0         0         0         0         0         0
         0         0         0         0         0         0         0         0
         0         0         0         0         0         0         0         0
         0         0         0         0         0         0         0         0
         0         0         0         0         0         0         0         0
         0         0         0         0         0         0         0         0
         0         0         0         0         0         0         0         0
         0         0         0         0         0         0         0         0
         0         0         0         0         0         0         0         0
         0         0         0         0         0         0         0         0
         0         0         0         0         0         0         0         0
         0         0         0         0         0         0         0         0
         0         0         0         0         0         0         0         0
         0         0         0         0         0         0         0         0
         0         0         0         0         0         0         0         0
         0         0         0         0         0         0         0         0
         0         0         0         0         0         0         0         0
         0         0         0         0         0         0         0         0
         0         0         0         0         0         0         0         0
         0         0         0         0         0         0         0         0
         0         0         0         0         0         0         0         0
         0         0         0         0         0         0         0         0
         0         0         0         0         0         0         0         0
         0         0         0         0         0         0         0         0
         0         0         0         0         0         0         0         0
         0         0         0         0         0         0         0         0
         0         0         0         0         0         0         0         0
         0         0         0         0         0         0         0         0
         0         0         0         0         0         0         0         0
         0         0         0         0         0         0         0         0
         0         0         0         0         0         0         0         0
         0         0         0         0         0         0         0         0
         0         0         0         0         0         0         0         0
         0         0         0         0         0         0         0         0
         0         0         0         0         0         0         0         0
         0         0         0         0         0         0         0         0
         0         0         0         0         0         0         0         0
         0         0         0         0         0         0         0         0
         0         0         0         0         0         0         0         0
         0         0         0         0         0         0         0         0
         0         0         0         0         0         0         0         0
         0         0         0         0         0         0         0         0
         0         0         0         0         0         0         0         0
         0         0         0         0         0         0         0         0
         0         0         0         0         0         0         0         0
         0         0         0         0         0         0         0         0
         0         0         0         0         0         0         0         0
         0         0         0         0         0         0         0         0
         0         0         0         0         0         0         0         0
         0         0         0         0         0         0         0         0
         0         0         0         0         0         0         0         0
         0         0         0         0         0         0         0         0
         0         0         0         0         0         0         0         0
         0         0         0         0         0         0         0         0
         0         0         0         0         0         0         0         0
         0         0         0         0         0         0         0         0
         0         0         0         0         0         0         0         0
         0         0         0         0         0         0         0         0
         0         0         0         0         0         0         0         0
         0         0         0         0         0         0         0         0
         0         0         0         0         0         0         0         0
         0         0         0         0         0         0         0         0
         0         0         0         0         0         0         0         0
         0         0         0         0         0         0         0         0
         0         0         0         0         0         0         0         0
         0         0         0         0         0         0         0         0
         0         0         0         0         0         0         0         0
         0         0         0         0         0         0         0         0
         0         0         0         0         0         0         0         0
         0         0         0         0         0         0         0         0
         0         0         0         0         0         0         0         0
         0         0         0         0         0         0         0         0
         0         0         0         0         0         0         0         0
         0         0         0         0         0         0         0         0
         0         0         0         0         0         0         0         0
         0         0         0         0         0         0         0         0
         0         0         0         0         0         0         0         0
         0         0         0         0         0         0         0         0
         0         0         0         0         0         0         0         0
         0         0         0         0         0         0         0         0
         0         0         0         0         0         0         0         0
         0         0         0         0         0         0         0         0
         0         0         0         0         0         0         0         0
         0         0         0         0         0         0         0         0
         0         0         0         0         0         0         0         0
         0         0         0         0         0         0         0         0
         0         0         0         0         0         0         0         0
         0         0         0         0         0         0         0         0
         0         0         0         0         0         0         0         0
         0         0         0         0         0         0         0         0
         0         0         0         0         0         0         0         0
         0         0         0         0         0         0         0         0
         0         0         0         0         0         0         0         0
         0         0         0         0         0         0         0         0
         0         0         0         0         0         0         0         0
         0         0         0         0         0         0         0         0
         0         0         0         0         0         0         0         0
         0         0         0         0         0         0         0         0
         0         0         0         0         0         0         0         0
         0         0         0         0         0         0         0         0
         0         0         0         0         0         0         0         0
         0         0         0         0         0         0         0         0
         0         0         0         0         0         0         0         0
         0         0         0         0         0         0         0         0
         0         0         0         0         0         0         0         0
         0         0         0         0         0         0         0         0
         0         0         0         0         0         0         0         0
         0         0         0         0         0         0         0         0
         0         0         0         0         0         0         0         0
         0         0         0         0         0         0         0         0
         0         0         0         0         0         0         0         0
         0         0         0         0         0         0         0         0
         0         0         0         0         0         0         0         0
         0         0         0         0         0         0         0         0
         0         0         0         0         0         0         0         0
         0         0         0         0         0         0         0         0
         0         0         0         0         0         0         0         0
         0         0         0         0         0         0         0         0
         0         0         0         0         0         0         0         0
         0         0         0         0         0         0         0         0
         0         0         0         0         0         0         0         0
         0         0         0         0         0         0         0         0
         0         0         0         0         0         0         0         0
         0         0         0         0         0         0         0         0
         0         0         0         0         0         0         0         0
         0         0         0         0         0         0         0         0
         0         0         0         0         0         0         0         0
         0         0         0         0         0         0         0         0
         0         0         0         0         0         0         0         0
         0         0         0         0         0         0         0         0
         0         0         0         0         0         0         0         0
         0         0         0         0         0         0         0         0
         0         0         0         0         0         0         0         0
         0         0         0         0         0         0         0         0
         0         0         0         0         0         0         0         0
         0         0         0         0         0         0         0         0
         0         0         0         0         0         0         0         0
         0         0         0         0         0         0         0         0
         0         0         0         0         0         0         0         0
         0         0         0         0         0         0         0         0
         0         0         0         0         0         0         0         0
         0         0         0         0         0         0         0         0
         0         0         0         0         0         0         0         0
         0         0         0         0         0         0         0         0
         0         0         0         0         0         0         0         0
         0         0         0         0         0         0         0         0
         0         0         0         0         0         0         0         0
         0         0         0         0         0         0         0         0
         0         0         0         0         0         0         0         0
         0         0         0         0         0         0         0         0
         0         0         0         0         0         0         0         0
         0         0         0         0         0         0         0         0
         0         0         0         0         0         0         0         0
         0         0         0         0         0         0         0         0
         0         0         0         0         0         0         0         0
         0         0         0         0         0         0         0         0
         0         0         0         0         0         0         0         0
         0         0         0         0         0         0         0         0
         0         0         0         0         0         0         0         0
         0         0         0         0         0         0         0         0
         0         0         0         0         0         0         0         0
         0         0         0         0         0         0         0         0
         0         0         0         0         0         0         0         0
         0         0         0         0         0         0         0         0
         0         0         0         0         0         0         0         0
         0         0         0         0         0         0         0         0
         0         0         0         0         0         0         0         0
         0         0         0         0         0         0         0         0
         0         0         0         0         0         0         0         0
         0         0         0         0         0         0         0         0
         0         0         0         0         0         0         0         0
         0         0         0         0         0         0         0         0
         0         0         0         0         0         0         0         0
         0         0         0         0         0         0         0         0
         0         0         0         0         0         0         0         0
         0         0         0         0         0         0         0         0
         0         0         0         0         0         0         0         0
         0         0         0         0         0         0         0         0
         0         0         0         0         0         0         0         0
         0         0         0         0         0         0         0         0
         0         0         0         0         0         0         0         0
         0         0         0         0         0         0         0         0
         0         0         0         0         0         0         0         0
         0         0         0         0         0         0         0         0
         0         0         0         0         0         0         0         0
         0         0         0         0         0         0         0         0
         0         0         0         0         0         0         0         0
         0         0         0         0         0         0         0         0
         0         0         0         0         0         0         0         0
         0         0         0         0         0         0         0         0
         0         0         0         0         0         0         0         0
         0         0         0         0         0         0         0         0
         0         0         0         0         0         0         0         0
         0         0         0         0         0         0         0         0
         0         0         0         0         0         0         0         0
         0         0         0         0         0         0         0         0
         0         0         0         0         0         0         0         0
         0         0         0         0         0         0         0         0
         0         0         0         0         0         0         0         0
         0         0         0         0         0         0         0         0
         0         0         0         0         0         0         0         0
         0         0         0         0         0         0         0         0
         0         0         0         0         0         0         0         0
         0         0         0         0         0         0         0         0
         0         0         0         0         0         0         0         0
         0         0         0         0         0         0         0         0
         0         0         0         0         0         0         0         0
         0         0         0         0         0         0         0         0
         0         0         0         0         0         0         0         0
         0         0         0         0         0         0         0         0
         0         0         0         0         0         0         0         0
         0         0         0         0         0         0         0         0
         0         0         0         0         0         0         0         0
         0         0         0         0         0         0         0         0
         0         0         0         0         0         0         0         0
         0         0         0         0         0         0         0         0
         0         0         0         0         0         0         0         0
         0         0         0         0         0         0         0         0
         0         0         0         0         0         0         0         0
         0         0         0         0         0         0         0         0
         0         0         0         0         0         0         0         0
         0         0         0         0         0         0         0         0
         0         0         0         0         0         0         0         0
         0         0         0         0         0         0         0         0
         0         0         0         0         0         0         0         0
         0         0         0         0         0         0         0         0
         0         0         0         0         0         0         0         0
         0         0         0         0         0         0         0         0
         0         0         0         0         0         0         0         0
         0         0         0         0         0         0         0         0
         0         0         0         0         0         0         0         0
         0         0         0         0         0         0         0         0
         0         0         0         0         0         0         0         0
         0         0         0         0         0         0         0         0
         0         0         0         0         0         0         0         0
         0         0         0         0         0         0         0         0
         0         0         0         0         0         0         0         0
         0         0         0         0         0         0         0         0
         0         0         0         0         0         0         0         0
         0         0         0         0         0         0         0         0
         0         0         0         0         0         0         0         0
         0         0         0         0         0         0         0         0
         0         0         0         0         0         0         0         0
         0         0         0         0         0         0         0         0
         0         0         0         0         0         0         0         0
         0         0         0         0         0         0         0         0
         0         0         0         0         0         0         0         0
         0         0         0         0         0         0         0         0
         0         0         0         0         0         0         0         0
         0         0         0         0         0         0         0         0
         0         0         0         0         0         0         0         0
         0         0         0         0         0         0         0         0
         0         0         0         0         0         0         0         0
         0         0         0         0         0         0         0         0
         0         0         0         0         0         0         0         0
         0         0         0         0         0         0         0         0
         0         0         0         0         0         0         0         0
         0         0         0         0         0         0         0         0
         0         0         0         0         0         0         0         0
         0         0         0         0         0         0         0         0
         0         0         0         0         0         0         0         0
         0         0         0         0         0         0         0         0
         0         0         0         0         0         0         0         0
         0         0         0         0         0         0         0         0
         0         0         0         0         0         0         0         0
         0         0         0         0         0         0         0         0
         0         0         0         0         0         0         0         0
         0         0         0         0         0         0         0         0
         0         0         0         0         0         0         0         0
         0         0         0         0         0         0         0         0
         0         0         0         0         0         0         0         0
         0         0         0         0         0         0         0         0
         0         0         0         0         0         0         0         0
         0         0         0         0         0         0         0         0
         0         0         0         0         0         0         0         0
         0         0         0         0         0         0         0         0
         0         0         0         0         0         0         0         0
         0         0         0         0         0         0         0         0
         0         0         0         0         0         0         0         0
         0         0         0         0         0         0         0         0
         0         0         0         0         0         0         0         0
         0         0         0         0         0         0         0         0
         0         0         0         0         0         0         0         0
         0         0         0         0         0         0         0         0
         0         0         0         0         0         0         0         0
         0         0         0         0         0         0         0         0
         0         0         0         0         0         0         0         0
         0         0         0         0         0         0         0         0
         0         0         0         0         0         0         0         0
         0         0         0         0         0         0         0         0
         0         0         0         0         0         0         0         0
         0         0         0         0         0         0         0         0
         0         0         0         0         0         0         0         0
         0         0         0         0         0         0         0         0
         0         0         0         0         0         0         0         0
         0         0         0         0         0         0         0         0
         0         0         0         0         0         0         0         0
         0         0         0         0         0         0         0         0
         0         0         0         0         0         0         0         0
         0         0         0         0         0         0         0         0
         0         0         0         0         0         0         0         0
         0         0         0         0         0         0         0         0
         0         0         0         0         0         0         0         0
         0         0         0         0         0         0         0         0
         0         0         0         0         0         0         0         0
         0         0         0         0         0         0         0         0
         0         0         0         0         0         0         0         0
         0         0         0         0         0         0         0         0
         0         0         0         0         0         0         0         0
         0         0         0         0         0         0         0         0
         0         0         0         0         0         0         0         0
         0         0         0         0         0         0         0         0
         0         0         0         0         0         0         0         0
         0         0         0         0         0         0         0         0
         0         0         0         0         0         0         0         0
         0         0         0         0         0         0         0         0
         0         0         0         0         0         0         0         0
         0         0         0         0         0         0         0         0
         0         0         0         0         0         0         0         0
         0         0         0         0         0         0         0         0
         0         0         0         0         0         0         0         0
         0         0         0         0         0         0         0         0
         0         0         0         0         0         0         0         0
         0         0         0         0         0         0         0         0
         0         0         0         0         0         0         0         0
         0         0         0         0         0         0         0         0
         0         0         0         0         0         0         0         0
         0         0         0         0         0         0         0         0
         0         0         0         0         0         0         0         0
         0         0         0         0         0         0         0         0
         0         0         0         0         0         0         0         0
         0         0         0         0         0         0         0         0
         0         0         0         0         0         0         0         0
         0         0         0         0         0         0         0         0
         0         0         0         0         0         0         0         0
         0         0         0         0         0         0         0         0
         0         0         0         0         0         0         0         0
         0         0         0         0         0         0         0         0
         0         0         0         0         0         0         0         0
         0         0         0         0         0         0         0         0
         0         0         0         0         0         0         0         0
         0         0         0         0         0         0         0         0
         0         0         0         0         0         0         0         0
         0         0         0         0         0         0         0         0
         0         0         0         0         0         0         0         0
         0         0         0         0         0         0         0         0
         0         0         0         0         0         0         0         0
         0         0         0         0         0         0         0         0
         0         0         0         0         0         0         0         0
         0         0         0         0         0         0         0         0
         0         0         0         0         0         0         0         0
         0         0         0         0         0         0         0         0
         0         0         0         0         0         0         0         0
         0         0         0         0         0         0         0         0
         0         0         0         0         0         0         0         0
         0         0         0         0         0         0         0         0
         0         0         0         0         0         0         0         0
         0         0         0         0         0         0         0         0
         0         0         0         0         0         0         0         0
         0         0         0         0         0         0         0         0
         0         0         0         0         0         0         0         0
         0         0         0         0         0         0         0         0
         0         0         0         0         0         0         0         0
         0         0         0         0         0         0         0         0
         0         0         0         0         0         0         0         0
         0         0         0         0         0         0         0         0
         0         0         0         0         0         0         0         0
         0         0         0         0         0         0         0         0
         0         0         0         0         0         0         0         0
         0         0         0         0         0         0         0         0
         0         0         0         0         0         0         0         0
         0         0         0         0         0         0         0         0
         0         0         0         0         0         0         0         0
         0         0         0         0         0         0         0         0
         0         0         0         0         0         0         0         0
         0         0         0         0         0         0         0         0
         0         0         0         0         0         0         0         0
         0         0         0         0         0         0         0         0
         0         0         0         0         0         0         0         0
         0         0         0         0         0         0         0         0
         0         0         0         0         0         0         0         0
         0         0         0         0         0         0         0         0
         0         0         0         0         0         0         0         0
         0         0         0         0         0         0         0         0
         0         0         0         0         0         0         0         0
         0         0         0         0         0         0         0         0
         0         0         0         0         0         0         0         0
         0         0         0         0         0         0         0         0
         0         0         0         0         0         0         0         0
         0         0         0         0         0         0         0         0
         0         0         0         0         0         0         0         0
         0         0         0         0         0         0         0         0
         0         0         0         0         0         0         0         0
         0         0         0         0         0         0         0         0
         0         0         0         0         0         0         0         0
         0         0         0         0         0         0         0         0
         0         0         0         0         0         0         0         0
         0         0         0         0         0         0         0         0
         0         0         0         0         0         0         0         0
         0         0         0         0         0         0         0         0
         0         0         0         0         0         0         0         0
         0         0         0         0         0         0         0         0
         0         0         0         0         0         0         0         0
         0         0         0         0         0         0         0         0
         0         0         0         0         0         0         0         0
         0         0         0         0         0         0         0         0
         0         0         0         0         0         0         0         0
         0         0         0         0         0         0         0         0
         0         0         0         0         0         0         0         0
         0         0         0         0         0         0         0         0
         0         0         0         0         0         0         0         0
         0         0         0         0         0         0         0         0
         0         0         0         0         0         0         0         0
         0         0         0         0         0         0         0         0
         0         0         0         0         0         0         0         0
         0         0         0         0         0         0         0         0
         0         0         0         0         0         0         0         0
         0         0         0         0         0         0         0         0
         0         0         0         0         0         0         0         0
         0         0         0         0         0         0         0         0
         0         0         0         0         0         0         0         0
         0         0         0         0         0         0         0         0
         0         0         0         0         0         0         0         0
         0         0         0         0         0         0         0         0
         0         0         0         0         0         0         0         0
         0         0         0         0         0         0         0         0
         0         0         0         0         0         0         0         0
         0         0         0         0         0         0         0         0
         0         0         0         0         0         0         0         0
         0         0         0         0         0         0         0         0
         0         0         0         0         0         0         0         0
         0         0         0         0         0         0         0         0
         0         0         0         0         0         0         0         0
         0         0         0         0         0         0         0         0
         0         0         0         0         0         0         0         0
         0         0         0         0         0         0         0         0
         0         0         0         0         0         0         0         0
         0         0         0         0         0         0         0         0
         0         0         0         0         0         0         0         0
         0         0         0         0         0         0         0         0
         0         0         0         0         0         0         0         0
         0         0         0         0         0         0         0         0
         0         0         0         0         0         0         0         0
         0         0         0         0         0         0         0         0
         0         0         0         0         0         0         0         0
         0         0         0         0         0         0         0         0
         0         0         0         0         0         0         0         0
         0         0         0         0         0         0         0         0
         0         0         0         0         0         0         0         0
         0         0         0         0         0         0         0         0
         0         0         0         0         0         0         0         0
         0         0         0         0         0         0         0         0
         0         0         0         0         0         0         0         0
         0         0         0         0         0         0         0         0
         0         0         0         0         0         0         0         0
         0         0         0         0         0         0         0         0
         0         0         0         0         0         0         0         0
         0         0         0         0         0         0         0         0
         0         0         0         0         0         0         0         0
         0         0         0         0         0         0         0         0
         0         0         0         0         0         0         0         0
         0         0         0         0         0         0         0         0
         0         0         0         0         0         0         0         0
         0         0         0         0         0         0         0         0
         0         0         0         0         0         0         0         0
         0         0         0         0         0         0         0         0
         0         0         0         0         0         0         0         0
         0         0         0         0         0         0         0         0
         0         0         0         0         0         0         0         0
         0         0         0         0         0         0         0         0
         0         0         0         0         0         0         0         0
         0         0         0         0         0         0         0         0
         0         0         0         0         0         0         0         0
         0         0         0         0         0         0         0         0
         0         0         0         0         0         0         0         0
         0         0         0         0         0         0         0         0
         0         0         0         0         0         0         0         0
         0         0         0         0         0         0         0         0
         0         0         0         0         0         0         0         0
         0         0         0         0         0         0         0         0
         0         0         0         0         0         0         0         0
         0         0         0         0         0         0         0         0
         0         0         0         0         0         0         0         0
         0         0         0         0         0         0         0         0
         0         0         0         0         0         0         0         0
         0         0         0         0         0         0         0         0
         0         0         0         0         0         0         0         0
         0         0         0         0         0         0         0         0
         0         0         0         0         0         0         0         0
         0         0         0         0         0         0         0         0
         0         0         0         0         0         0         0         0
         0         0         0         0         0         0         0         0
         0         0         0         0         0         0         0         0
         0         0         0         0         0         0         0         0
         0         0         0         0         0         0         0         0
         0         0         0         0         0         0         0         0
         0         0         0         0         0         0         0         0
         0         0         0         0         0         0         0         0
         0         0         0         0         0         0         0         0
         0         0         0         0         0         0         0         0
         0         0         0         0         0         0         0         0
         0         0         0         0         0         0         0         0
         0         0         0         0         0         0         0         0
         0         0         0         0         0         0         0         0
         0         0         0         0         0         0         0         0
         0         0         0         0         0         0         0         0
         0         0         0         0         0         0         0         0
         0         0         0         0         0         0         0         0
         0         0         0         0         0         0         0         0
         0         0         0         0         0         0         0         0
         0         0         0         0         0         0         0         0
         0         0         0         0         0         0         0         0
         0         0         0         0         0         0         0         0
         0         0         0         0         0         0         0         0
         0         0         0         0         0         0         0         0
         0         0         0         0         0         0         0         0
         0         0         0         0         0         0         0         0
         0         0         0         0         0         0         0         0
         0         0         0         0         0         0         0         0
         0         0         0         0         0         0         0         0
         0         0         0         0         0         0         0         0
         0         0         0         0         0         0         0         0
         0         0         0         0         0         0         0         0
         0         0         0         0         0         0         0         0
         0         0         0         0         0         0         0         0
         0         0         0         0         0         0         0         0
         0         0         0         0         0         0         0         0
         0         0         0         0         0         0         0         0
         0         0         0         0         0         0         0         0
         0         0         0         0         0         0         0         0
         0         0         0         0         0         0         0         0
         0         0         0         0         0         0         0         0
         0         0         0         0         0         0         0         0
         0         0         0         0         0         0         0         0
         0         0         0         0         0         0         0         0
         0         0         0         0         0         0         0         0
         0         0         0         0         0         0         0         0
         0         0         0         0         0         0         0         0
         0         0         0         0         0         0         0         0
         0         0         0         0         0         0         0         0
         0         0         0         0         0         0         0         0
         0         0         0         0         0         0         0         0
         0         0         0         0         0         0         0         0
         0         0         0         0         0         0         0         0
         0         0         0         0         0         0         0         0
         0         0         0         0         0         0         0         0
         0         0         0         0         0         0         0         0
         0         0         0         0         0         0         0         0
         0         0         0         0         0         0         0         0
         0         0         0         0         0         0         0         0
         0         0         0         0         0         0         0         0
         0         0         0         0         0         0         0         0
         0         0         0         0         0         0         0         0
         0         0         0         0         0         0         0         0
         0         0         0         0         0         0         0         0
         0         0         0         0         0         0         0         0
         0         0         0         0         0         0         0         0
         0         0         0         0         0         0         0         0
         0         0         0         0         0         0         0         0
         0         0         0         0         0         0         0         0
         0         0         0         0         0         0         0         0
         0         0         0         0         0         0         0         0
         0         0         0         0         0         0         0         0
         0         0         0         0         0         0         0         0
         0         0         0         0         0         0         0         0
         0         0         0         0         0         0         0         0
         0         0         0         0         0         0         0         0
         0         0         0         0         0         0         0         0
         0         0         0         0         0         0         0         0
         0         0         0         0         0         0         0         0
         0         0         0         0         0         0         0         0
         0         0         0         0         0         0         0         0
         0         0         0         0         0         0         0         0
         0         0         0         0         0         0         0         0
         0         0         0         0         0         0         0         0
         0         0         0         0         0         0         0         0
         0         0         0         0         0         0         0         0
         0         0         0         0         0         0         0         0
         0         0         0         0         0         0         0         0
         0         0         0         0         0         0         0         0
         0         0         0         0         0         0         0         0
         0         0         0         0         0         0         0         0
         0         0         0         0         0         0         0         0
         0         0         0         0         0         0         0         0
         0         0         0         0         0         0         0         0
         0         0         0         0         0         0         0         0
         0         0         0         0         0         0         0         0
         0         0         0         0         0         0         0         0
         0         0         0         0         0         0         0         0
         0         0         0         0         0         0         0         0
         0         0         0         0         0         0         0         0
         0         0         0         0         0         0         0         0
         0         0         0         0         0         0         0         0
         0         0         0         0         0         0         0         0
         0         0         0         0         0         0         0         0
         0         0         0         0         0         0         0         0
         0         0         0         0         0         0         0         0
         0         0         0         0         0         0         0         0
         0         0         0         0         0         0         0         0
         0         0         0         0         0         0         0         0
         0         0         0         0         0         0         0         0
         0         0         0         0         0         0         0         0
         0         0         0         0         0         0         0         0
         0         0         0         0         0         0         0         0
         0         0         0         0         0         0         0         0
         0         0         0         0         0         0         0         0
         0         0         0         0         0         0         0         0
         0         0         0         0         0         0         0         0
         0         0         0         0         0         0         0         0
         0         0         0         0         0         0         0         0
         0         0         0         0         0         0         0         0
         0         0         0         0         0         0         0         0
         0         0         0         0         0         0         0         0
         0         0         0         0         0         0         0         0
         0         0         0         0         0         0         0         0
         0         0         0         0         0         0         0         0
         0         0         0         0         0         0         0         0
         0         0         0         0         0         0         0         0
         0         0         0         0         0         0         0         0
         0         0         0         0         0         0         0         0
         0         0         0         0         0         0         0         0
         0         0         0         0         0         0         0         0
         0         0         0         0         0         0         0         0
         0         0         0         0         0         0         0         0
         0         0         0         0         0         0         0         0
         0         0         0         0         0         0         0         0
         0         0         0         0         0         0         0         0
         0         0         0         0         0         0         0         0
         0         0         0         0         0         0         0         0
         0         0         0         0         0         0         0         0
         0         0         0         0         0         0         0         0
         0         0         0         0         0         0         0         0
         0         0         0         0         0         0         0         0
         0         0         0         0         0         0         0         0
         0         0         0         0         0         0         0         0
         0         0         0         0         0         0         0         0
         0         0         0         0         0         0         0         0
         0         0         0         0         0         0         0         0
         0         0         0         0         0         0         0         0
         0         0         0         0         0         0         0         0
         0         0         0         0         0         0         0         0
         0         0         0         0         0         0         0         0
         0         0         0         0         0         0         0         0
         0         0         0         0         0         0         0         0
         0         0         0         0         0         0         0         0
         0         0         0         0         0         0         0         0
         0         0         0         0         0         0         0         0
         0         0         0         0         0         0         0         0
         0         0         0         0         0         0         0         0
         0         0         0         0         0         0         0         0
         0         0         0         0         0         0         0         0
         0         0         0         0         0         0         0         0
         0         0         0         0         0         0         0         0
         0         0         0         0         0         0         0         0
         0         0         0         0         0         0         0         0
         0         0         0         0         0         0         0         0
         0         0         0         0         0         0         0         0
         0         0         0         0         0         0         0         0
         0         0         0         0         0         0         0         0
         0         0         0         0         0         0         0         0
         0         0         0         0         0         0         0         0
         0         0         0         0         0         0         0         0
         0         0         0         0         0         0         0         0
         0         0         0         0         0         0         0         0
         0         0         0         0         0         0         0         0
         0         0         0         0         0         0         0         0
         0         0         0         0         0         0         0         0
         0         0         0         0         0         0         0         0
         0         0         0         0         0         0         0         0
         0         0         0         0         0         0         0         0
         0         0         0         0         0         0         0         0
         0         0         0         0         0         0         0         0
         0         0         0         0         0         0         0         0
         0         0         0         0         0         0         0         0
         0         0         0         0         0         0         0         0
         0         0         0         0         0         0         0         0
         0         0         0         0         0         0         0         0
         0         0         0         0         0         0         0         0
         0         0         0         0         0         0         0         0
         0         0         0         0         0         0         0         0
         0         0         0         0         0         0         0         0
         0         0         0         0         0         0         0         0
         0         0         0         0         0         0         0         0
         0         0         0         0         0         0         0         0
         0         0         0         0         0         0         0         0
         0         0         0         0         0         0         0         0
         0         0         0         0         0         0         0         0
         0         0         0         0         0         0         0         0
         0         0         0         0         0         0         0         0
         0         0         0         0         0         0         0         0
         0         0         0         0         0         0         0         0
         0         0         0         0         0         0         0         0
         0         0         0         0         0         0         0         0
         0         0         0         0         0         0         0         0
         0         0         0         0         0         0         0         0
         0         0         0         0         0         0         0         0
         0         0         0         0         0         0         0         0
         0         0         0         0         0         0         0         0
         0         0         0         0         0         0         0         0
         0         0         0         0         0         0         0         0
         0         0         0         0         0         0         0         0
         0         0         0         0         0         0         0         0
         0         0         0         0         0         0         0         0
         0         0         0         0         0         0         0         0
         0         0         0         0         0         0         0         0
         0         0         0         0         0         0         0         0
         0         0         0         0         0         0         0         0
         0         0         0         0         0         0         0         0
         0         0         0         0         0         0         0         0
         0         0         0         0         0         0         0         0
         0         0         0         0         0         0         0         0
         0         0         0         0         0         0         0         0
         0         0         0         0         0         0         0         0
         0         0         0         0         0         0         0         0
         0         0         0         0         0         0         0         0
         0         0         0         0         0         0         0         0
         0         0         0         0         0         0         0         0
         0         0         0         0         0         0         0         0
         0         0         0         0         0         0         0         0
         0         0         0         0         0         0         0         0
         0         0         0         0         0         0         0         0
         0         0         0         0         0         0         0         0
         0         0         0         0         0         0         0         0
         0         0         0         0         0         0         0         0
         0         0         0         0         0         0         0         0
         0         0         0         0         0         0         0         0
         0         0         0         0         0         0         0         0
         0         0         0         0         0         0         0         0
         0         0         0         0         0         0         0         0
         0         0         0         0         0         0         0         0
         0         0         0         0         0         0         0         0
         0         0         0         0         0         0         0         0
         0         0         0         0         0         0         0         0
         0         0         0         0         0         0         0         0
         0         0         0         0         0         0         0         0
         0         0         0         0         0         0         0         0
         0         0         0         0         0         0         0         0
         0         0         0         0         0         0         0         0
         0         0         0         0         0         0         0         0
         0         0         0         0         0         0         0         0
         0         0         0         0         0         0         0         0
         0         0         0         0         0         0         0         0
         0         0         0         0         0         0         0         0
         0         0         0         0         0         0         0         0
         0         0         0         0         0         0         0         0
         0         0         0         0         0         0         0         0
         0         0         0         0         0         0         0         0
         0         0         0         0         0         0         0         0
         0         0         0         0         0         0         0         0
         0         0         0         0         0         0         0         0
         0         0         0         0         0         0         0         0
         0         0         0         0         0         0         0         0
         0         0         0         0         0         0         0         0
         0         0         0         0         0         0         0         0
         0         0         0         0         0         0         0         0
         0         0         0         0         0         0         0         0
         0         0         0         0         0         0         0         0
         0         0         0         0         0         0         0         0
         0         0         0         0         0         0         0         0
         0         0         0         0         0         0         0         0
         0         0         0         0         0         0         0         0
         0         0         0         0         0         0         0         0
         0         0         0         0         0         0         0         0
         0         0         0         0         0         0         0         0
         0         0         0         0         0         0         0         0
         0         0         0         0         0         0         0         0
         0         0         0         0         0         0         0         0
         0         0         0         0         0         0         0         0
         0         0         0         0         0         0         0         0
         0         0         0         0         0         0         0         0
         0         0         0         0         0         0         0         0
         0         0         0         0         0         0         0         0
         0         0         0         0         0         0         0         0
         0         0         0         0         0         0         0         0
         0         0         0         0         0         0         0         0
         0         0         0         0         0         0         0         0
         0         0         0         0         0         0         0         0
         0         0         0         0         0         0         0         0
         0         0         0         0         0         0         0         0
         0         0         0         0         0         0         0         0
         0         0         0         0         0         0         0         0
         0         0         0         0         0         0         0         0
         0         0         0         0         0         0         0         0
         0         0         0         0         0         0         0         0
         0         0         0         0         0         0         0         0
         0         0         0         0         0         0         0         0
         0         0         0         0         0         0         0         0
         0         0         0         0         0         0         0         0
         0         0         0         0         0         0         0         0
         0         0         0         0         0         0         0         0
         0         0         0         0         0         0         0         0
         0         0         0         0         0         0         0         0
         0         0         0         0         0         0         0         0
         0         0         0         0         0         0         0         0
         0         0         0         0         0         0         0         0
         0         0         0         0         0         0         0         0
         0         0         0         0         0         0         0         0
         0         0         0         0         0         0         0         0
         0         0         0         0         0         0         0         0
         0         0         0         0         0         0         0         0
         0         0         0         0         0         0         0         0
         0         0         0         0         0         0         0         0
         0         0         0         0         0         0         0         0
         0         0         0         0         0         0         0         0
         0         0         0         0         0         0         0         0
         0         0         0         0         0         0         0         0
         0         0         0         0         0         0         0         0
         0         0         0         0         0         0         0         0
         0         0         0         0         0         0         0         0
         0         0         0         0         0         0         0         0
         0         0         0         0         0         0         0         0
         0         0         0         0         0         0         0         0
         0         0         0         0         0         0         0         0
         0         0         0         0         0         0         0         0
         0         0         0         0         0         0         0         0
         0         0         0         0         0         0         0         0
         0         0         0         0         0         0         0         0
         0         0         0         0         0         0         0         0
         0         0         0         0         0         0         0         0
         0         0         0         0         0         0         0         0
         0         0         0         0         0         0         0         0
         0         0         0         0         0         0         0         0
         0         0         0         0         0         0         0         0
         0         0         0         0         0         0         0         0
         0         0         0         0         0         0         0         0
         0         0         0         0         0         0         0         0
         0         0         0         0         0         0         0         0
         0         0         0         0         0         0         0         0
         0         0         0         0         0         0         0         0
         0         0         0         0         0         0         0         0
         0         0         0         0         0         0         0         0
         0         0         0         0         0         0         0         0
         0         0         0         0         0         0         0         0
         0         0         0         0         0         0         0         0
         0         0         0         0         0         0         0         0
         0         0         0         0         0         0         0         0
         0         0         0         0         0         0         0         0
         0         0         0         0         0         0         0         0
         0         0         0         0         0         0         0         0
         0         0         0         0         0         0         0         0
         0         0         0         0         0         0         0         0
         0         0         0         0         0         0         0         0
         0         0         0         0         0         0         0         0
         0         0         0         0         0         0         0         0
         0         0         0         0         0         0         0         0
         0         0         0         0         0         0         0         0
         0         0         0         0         0         0         0         0
         0         0         0         0         0         0         0         0
         0         0         0         0         0         0         0         0
         0         0         0         0         0         0         0         0
         0         0         0         0         0         0         0         0
         0         0         0         0         0         0         0         0
         0         0         0         0         0         0         0         0
         0         0         0         0         0         0         0         0
         0         0         0         0         0         0         0         0
         0         0         0         0         0         0         0         0
         0         0         0         0         0         0         0         0
         0         0         0         0         0         0         0         0
         0         0         0         0         0         0         0         0
         0         0         0         0         0         0         0         0
         0         0         0         0         0         0         0         0
         0         0         0         0         0         0         0         0
         0         0         0         0         0         0         0         0
         0         0         0         0         0         0         0         0
         0         0         0         0         0         0         0         0
         0         0         0         0         0         0         0         0
         0         0         0         0         0         0         0         0
         0         0         0         0         0         0         0         0
         0         0         0         0         0         0         0         0
         0         0         0         0         0         0         0         0
         0         0         0         0         0         0         0         0
         0         0         0         0         0         0         0         0
         0         0         0         0         0         0         0         0
         0         0         0         0         0         0         0         0
         0         0         0         0         0         0         0         0
         0         0         0         0         0         0         0         0
         0         0         0         0         0         0         0         0
         0         0         0         0         0         0         0         0
         0         0         0         0         0         0         0         0
         0         0         0         0         0         0         0         0
         0         0         0         0         0         0         0         0
         0         0         0         0         0         0         0         0
         0         0         0         0         0         0         0         0
         0         0         0         0         0         0         0         0
         0         0         0         0         0         0         0         0
         0         0         0         0         0         0         0         0
         0         0         0         0         0         0         0         0
         0         0         0         0         0         0         0         0
         0         0         0         0         0         0         0         0
         0         0         0         0         0         0         0         0
         0         0         0         0         0         0         0         0
         0         0         0         0         0         0         0         0
         0         0         0         0         0         0         0         0
         0         0         0         0         0         0         0         0
         0         0         0         0         0         0         0         0
         0         0         0         0         0         0         0         0
         0         0         0         0         0         0         0         0
         0         0         0         0         0         0         0         0
         0         0         0         0         0         0         0         0
         0         0         0         0         0         0         0         0
         0         0         0         0         0         0         0         0
         0         0         0         0         0         0         0         0
         0         0         0         0         0         0         0         0
         0         0         0         0         0         0         0         0
         0         0         0         0         0         0         0         0
         0         0         0         0         0         0         0         0
         0         0         0         0         0         0         0         0
         0         0         0         0         0         0         0         0
         0         0         0         0         0         0         0         0
         0         0         0         0         0         0         0         0
         0         0         0         0         0         0         0         0
         0         0         0         0         0         0         0         0
         0         0         0         0         0         0         0         0
         0         0         0         0         0         0         0         0
         0         0         0         0         0         0         0         0
         0         0         0         0         0         0         0         0
         0         0         0         0         0         0         0         0
         0         0         0         0         0         0         0         0
         0         0         0         0         0         0         0         0
         0         0         0         0         0         0         0         0
         0         0         0         0         0         0         0         0
         0         0         0         0         0         0         0         0
         0         0         0         0         0         0         0         0
         0         0         0         0         0         0         0         0
         0         0         0         0         0         0         0         0
         0         0         0         0         0         0         0         0
         0         0         0         0         0         0         0         0
         0         0         0         0         0         0         0         0
         0         0         0         0         0         0         0         0
         0         0         0         0         0         0         0         0
         0         0         0         0         0         0         0         0
         0         0         0         0         0         0         0         0
         0         0         0         0         0         0         0         0
         0         0         0         0         0         0         0         0
         0         0         0         0         0         0         0         0
         0         0         0         0         0         0         0         0
         0         0         0         0         0         0         0         0
         0         0         0         0         0         0         0         0
         0         0         0         0         0         0         0         0
         0         0         0         0         0         0         0         0
         0         0         0         0         0         0         0         0
         0         0         0         0         0         0         0         0
         0         0         0         0         0         0         0         0
         0         0         0         0         0         0         0         0
         0         0         0         0         0         0         0         0
         0         0         0         0         0         0         0         0
         0         0         0         0         0         0         0         0
         0         0         0         0         0         0         0         0
         0         0         0         0         0         0         0         0
         0         0         0         0         0         0         0         0
         0         0         0         0         0         0         0         0
         0         0         0         0         0         0         0         0
         0         0         0         0         0         0         0         0
         0         0         0         0         0         0         0         0
         0         0         0         0         0         0         0         0
         0         0         0         0         0         0         0         0
         0         0         0         0         0         0         0         0
         0         0         0         0         0         0         0         0
         0         0         0         0         0         0         0         0
         0         0         0         0         0         0         0         0
         0         0         0         0         0         0         0         0
         0         0         0         0         0         0         0         0
         0         0         0         0         0         0         0         0
         0         0         0         0         0         0         0         0
         0         0         0         0         0         0         0         0
         0         0         0         0         0         0         0         0
         0         0         0         0         0         0         0         0
         0         0         0         0         0         0         0         0
         0         0         0         0         0         0         0         0
         0         0         0         0         0         0         0         0
         0         0         0         0         0         0         0         0
         0         0         0         0         0         0         0         0
         0         0         0         0         0         0         0         0
         0         0         0         0         0         0         0         0
         0         0         0         0         0         0         0         0
         0         0         0         0         0         0         0         0
         0         0         0         0         0         0         0         0
         0         0         0         0         0         0         0         0
         0         0         0         0         0         0         0         0
         0         0         0         0         0         0         0         0
         0         0         0         0         0         0         0         0
         0         0         0         0         0         0         0         0
         0         0         0         0         0         0         0         0
         0         0         0         0         0         0         0         0
         0         0         0         0         0         0         0         0
         0         0         0         0         0         0         0         0
         0         0         0         0         0         0         0         0
         0         0         0         0         0         0         0         0
         0         0         0         0         0         0         0         0
         0         0         0         0         0         0         0         0
         0         0         0         0         0         0         0         0
         0         0         0         0         0         0         0         0
         0         0         0         0         0         0         0         0
         0         0         0         0         0         0         0         0
         0         0         0         0         0         0         0         0
         0         0         0         0         0         0         0         0
         0         0         0         0         0         0         0         0
         0         0         0         0         0         0         0         0
         0         0         0         0         0         0         0         0
         0         0         0         0         0         0         0         0
         0         0         0         0         0         0         0         0
         0         0         0         0         0         0         0         0
         0         0         0         0         0         0         0         0
         0         0         0         0         0         0         0         0
         0         0         0         0         0         0         0         0
         0         0         0         0         0         0         0         0
         0         0         0         0         0         0         0         0
         0         0         0         0         0         0         0         0
         0         0         0         0         0         0         0         0
         0         0         0         0         0         0         0         0
         0         0         0         0         0         0         0         0
         0         0         0         0         0         0         0         0
         0         0         0         0         0         0         0         0
         0         0         0         0         0         0         0         0
         0         0         0         0         0         0         0         0
         0         0         0         0         0         0         0         0
         0         0         0         0         0         0         0         0
         0         0         0         0         0         0         0         0
         0         0         0         0         0         0         0         0
         0         0         0         0         0         0         0         0
         0         0         0         0         0         0         0         0
         0         0         0         0         0         0         0         0
         0         0         0         0         0         0         0         0
         0         0         0         0         0         0         0         0
         0         0         0         0         0         0         0         0
         0         0         0         0         0         0         0         0
         0         0         0         0         0         0         0         0
         0         0         0         0         0         0         0         0
         0         0         0         0         0         0         0         0
         0         0         0         0         0         0         0         0
         0         0         0         0         0         0         0         0
         0         0         0         0         0         0         0         0
         0         0         0         0         0         0         0         0
         0         0         0         0         0         0         0         0
         0         0         0         0         0         0         0         0
         0         0         0         0         0         0         0         0
         0         0         0         0         0         0         0         0
         0         0         0         0         0         0         0         0
         0         0         0         0         0         0         0         0
         0         0         0         0         0         0         0         0
         0         0         0         0         0         0         0         0
         0         0         0         0         0         0         0         0
         0         0         0         0         0         0         0         0
         0         0         0         0         0         0         0         0
         0         0         0         0         0         0         0         0
         0         0         0         0         0         0         0         0
         0         0         0         0         0         0         0         0
         0         0         0         0         0         0         0         0
         0         0         0         0         0         0         0         0
         0         0         0         0         0         0         0         0
         0         0         0         0         0         0         0         0
         0         0         0         0         0         0         0         0
         0         0         0         0         0         0         0         0
         0         0         0         0         0         0         0         0
         0         0         0         0         0         0         0         0
         0         0         0         0         0         0         0         0
         0         0         0         0         0         0         0         0
         0         0         0         0         0         0         0         0
         0         0         0         0         0         0         0         0
         0         0         0         0         0         0         0         0
         0         0         0         0         0         0         0         0
         0         0         0         0         0         0         0         0
         0         0         0         0         0         0         0         0
         0         0         0         0         0         0         0         0
         0         0         0         0         0         0         0         0
         0         0         0         0         0         0         0         0
         0         0         0         0         0         0         0         0
         0         0         0         0         0         0         0         0
         0         0         0         0         0         0         0         0
         0         0         0         0         0         0         0         0
         0         0         0         0         0         0         0         0
         0         0         0         0         0         0         0         0
         0         0         0         0         0         0         0         0
         0         0         0         0         0         0         0         0
         0         0         0         0         0         0         0         0
         0         0         0         0         0         0         0         0
         0         0         0         0         0         0         0         0
         0         0         0         0         0         0         0         0
         0         0         0         0         0         0         0         0
         0         0         0         0         0         0         0         0
         0         0         0         0         0         0         0         0
         0         0         0         0         0         0         0         0
         0         0         0         0         0         0         0         0
         0         0         0         0         0         0         0         0
         0         0         0         0         0         0         0         0
         0         0         0         0         0         0         0         0
         0         0         0         0         0         0         0         0
         0         0         0         0         0         0         0         0
         0         0         0         0         0         0         0         0
         0         0         0         0         0         0         0         0
         0         0         0         0         0         0         0         0
         0         0         0         0         0         0         0         0
         0         0         0         0         0         0         0         0
         0         0         0         0         0         0         0         0
         0         0         0         0         0         0         0         0
         0         0         0         0         0         0         0         0
         0         0         0         0         0         0         0         0
         0         0         0         0         0         0         0         0
         0         0         0         0         0         0         0         0
         0         0         0         0         0         0         0         0
         0         0         0         0         0         0         0         0
         0         0         0         0         0         0         0         0
         0         0         0         0         0         0         0         0
         0         0         0         0         0         0         0         0
         0         0         0         0         0         0         0         0
         0         0         0         0         0         0         0         0
         0         0         0         0         0         0         0         0
         0         0         0         0         0         0         0         0
         0         0         0         0         0         0         0         0
         0         0         0         0         0         0         0         0
         0         0         0         0         0         0         0         0
         0         0         0         0         0         0         0         0
         0         0         0         0         0         0         0         0
         0         0         0         0         0         0         0         0
         0         0         0         0         0         0         0         0
         0         0         0         0         0         0         0         0
         0         0         0         0         0         0         0         0
         0         0         0         0         0         0         0         0
         0         0         0         0         0         0         0         0
         0         0         0         0         0         0         0         0
         0         0         0         0         0         0         0         0
         0         0         0         0         0         0         0         0
         0         0         0         0         0         0         0         0
         0         0         0         0         0         0         0         0
         0         0         0         0         0         0         0         0
         0         0         0         0         0         0         0         0
         0         0         0         0         0         0         0         0
         0         0         0         0         0         0         0         0
         0         0         0         0         0         0         0         0
         0         0         0         0         0         0         0         0
         0         0         0         0         0         0         0         0
         0         0         0         0         0         0         0         0
         0         0         0         0         0         0         0         0
         0         0         0         0         0         0         0         0
         0         0         0         0         0         0         0         0
         0         0         0         0         0         0         0         0
         0         0         0         0         0         0         0         0
         0         0         0         0         0         0         0         0
         0         0         0         0         0         0         0         0
         0         0         0         0         0         0         0         0
         0         0         0         0         0         0         0         0
         0         0         0         0         0         0         0         0
         0         0         0         0         0         0         0         0
         0         0         0         0         0         0         0         0
         0         0         0         0         0         0         0         0
         0         0         0         0         0         0         0         0
         0         0         0         0         0         0         0         0
         0         0         0         0         0         0         0         0
         0         0         0         0         0         0         0         0
         0         0         0         0         0         0         0         0
         0         0         0         0         0         0         0         0
         0         0         0         0         0         0         0         0
         0         0         0         0         0         0         0         0
         0         0         0         0         0         0         0         0
         0         0         0         0         0         0         0         0
         0         0         0         0         0         0         0         0
         0         0         0         0         0         0         0         0
         0         0         0         0         0         0         0         0
         0         0         0         0         0         0         0         0
         0         0         0         0         0         0         0         0
         0         0         0         0         0         0         0         0
         0         0         0         0         0         0         0         0
         0         0         0         0         0         0         0         0
         0         0         0         0         0         0         0         0
         0         0         0         0         0         0         0         0
         0         0         0         0         0         0         0         0
         0         0         0         0         0         0         0         0
         0         0         0         0         0         0         0         0
         0         0         0         0         0         0         0         0
         0         0         0         0         0         0         0         0
         0         0         0         0         0         0         0         0
         0         0         0         0         0         0         0         0
         0         0         0         0         0         0         0         0
         0         0         0         0         0         0         0         0
         0         0         0         0         0         0         0         0
         0         0         0         0         0         0         0         0
         0         0         0         0         0         0         0         0
         0         0         0         0         0         0         0         0
         0         0         0         0         0         0         0         0
         0         0         0         0         0         0         0         0
         0         0         0         0         0         0         0         0
         0         0         0         0         0         0         0         0
         0         0         0         0         0         0         0         0
         0         0         0         0         0         0         0         0
         0         0         0         0         0         0         0         0
         0         0         0         0         0         0         0         0
         0         0         0         0         0         0         0         0
         0         0         0         0         0         0         0         0
         0         0         0         0         0         0         0         0
         0         0         0         0         0         0         0         0
         0         0         0         0         0         0         0         0
         0         0         0         0         0         0         0         0
         0         0         0         0         0         0         0         0
         0         0         0         0         0         0         0         0
         0         0         0         0         0         0         0         0
         0         0         0         0         0         0         0         0
         0         0         0         0         0         0         0         0
         0         0         0         0         0         0         0         0
         0         0         0         0         0         0         0         0
         0         0         0         0         0         0         0         0
         0         0         0         0         0         0         0         0
         0         0         0         0         0         0         0         0
         0         0         0         0         0         0         0         0
         0         0         0         0         0         0         0         0
         0         0         0         0         0         0         0         0
         0         0         0         0         0         0         0         0
         0         0         0         0         0         0         0         0
         0         0         0         0         0         0         0         0
         0         0         0         0         0         0         0         0
         0         0         0         0         0         0         0         0
         0         0         0         0         0         0         0         0
         0         0         0         0         0         0         0         0
         0         0         0         0         0         0         0         0
         0         0         0         0         0         0         0         0
         0         0         0         0         0         0         0         0
         0         0         0         0         0         0         0         0
         0         0         0         0         0         0         0         0
         0         0         0         0         0         0         0         0
         0         0         0         0         0         0         0         0
         0         0         0         0         0         0         0         0
         0         0         0         0         0         0         0         0
         0         0         0         0         0         0         0         0
         0         0         0         0         0         0         0         0
         0         0         0         0         0         0         0         0
         0         0         0         0         0         0         0         0
         0         0         0         0         0         0         0         0
         0         0         0         0         0         0         0         0
         0         0         0         0         0         0         0         0
         0         0         0         0         0         0         0         0
         0         0         0         0         0         0         0         0
         0         0         0         0         0         0         0         0
         0         0         0         0         0         0         0         0
         0         0         0         0         0         0         0         0
         0         0         0         0         0         0         0         0
         0         0         0         0         0         0         0         0
         0         0         0         0         0         0         0         0
         0         0         0         0         0         0         0         0
         0         0         0         0         0         0         0         0
         0         0         0         0         0         0         0         0
         0         0         0         0         0         0         0         0
         0         0         0         0         0         0         0         0
         0         0         0         0         0         0         0         0
         0         0         0         0         0         0         0         0
         0         0         0         0         0         0         0         0
         0         0         0         0         0         0         0         0
         0         0         0         0         0         0         0         0
         0         0         0         0         0         0         0         0
         0         0         0         0         0         0         0         0
         0         0         0         0         0         0         0         0
         0         0         0         0         0         0         0         0
         0         0         0         0         0         0         0         0
         0         0         0         0         0         0         0         0
         0         0         0         0         0         0         0         0
         0         0         0         0         0         0         0         0
         0         0         0         0         0         0         0         0
         0         0         0         0         0         0         0         0
         0         0         0         0         0         0         0         0
         0         0         0         0         0         0         0         0
         0         0         0         0         0         0         0         0
         0         0         0         0         0         0         0         0
         0         0         0         0         0         0         0         0
         0         0         0         0         0         0         0         0
         0         0         0         0         0         0         0         0
         0         0         0         0         0         0         0         0
         0         0         0         0         0         0         0         0
         0         0         0         0         0         0         0         0
         0         0         0         0         0         0         0         0
         0         0         0         0         0         0         0         0
         0         0         0         0         0         0         0         0
         0         0         0         0         0         0         0         0
         0         0         0         0         0         0         0         0
         0         0         0         0         0         0         0         0
         0         0         0         0         0         0         0         0
         0         0         0         0         0         0         0         0
         0         0         0         0         0         0         0         0
         0         0         0         0         0         0         0         0
         0         0         0         0         0         0         0         0
         0         0         0         0         0         0         0         0
         0         0         0         0         0         0         0         0
         0         0         0         0         0         0         0         0
         0         0         0         0         0         0         0         0
         0         0         0         0         0         0         0         0
         0         0         0         0         0         0         0         0
         0         0         0         0         0         0         0         0
         0         0         0         0         0         0         0         0
         0         0         0         0         0         0         0         0
         0         0         0         0         0         0         0         0
         0         0         0         0         0         0         0         0
         0         0         0         0         0         0         0         0
         0         0         0         0         0         0         0         0
         0         0         0         0         0         0         0         0
         0         0         0         0         0         0         0         0
         0         0         0         0         0         0         0         0
         0         0         0         0         0         0         0         0
         0         0         0         0         0         0         0         0
         0         0         0         0         0         0         0         0
         0         0         0         0         0         0         0         0
         0         0         0         0         0         0         0         0
         0         0         0         0         0         0         0         0
         0         0         0         0         0         0         0         0
         0         0         0         0         0         0         0         0
         0         0         0         0         0         0         0         0
         0         0         0         0         0         0         0         0
         0         0         0         0         0         0         0         0
         0         0         0         0         0         0         0         0
         0         0         0         0         0         0         0         0
         0         0         0         0         0         0         0         0
         0         0         0         0         0         0         0         0
         0         0         0         0         0         0         0         0
         0         0         0         0         0         0         0         0
         0         0         0         0         0         0         0         0
         0         0         0         0         0         0         0         0
         0         0         0         0         0         0         0         0
         0         0         0         0         0         0         0         0
         0         0         0         0         0         0         0         0
         0         0         0         0         0         0         0         0
         0         0         0         0         0         0         0         0
         0         0         0         0         0         0         0         0
         0         0         0         0         0         0         0         0
         0         0         0         0         0         0         0         0
         0         0         0         0         0         0         0         0
         0         0         0         0         0         0         0         0
         0         0         0         0         0         0         0         0
         0         0         0         0         0         0         0         0
         0         0         0         0         0         0         0         0
         0         0         0         0         0         0         0         0
         0         0         0         0         0         0         0         0
         0         0         0         0         0         0         0         0
         0         0         0         0         0         0         0         0
         0         0         0         0         0         0         0         0
         0         0         0         0         0         0         0         0
         0         0         0         0         0         0         0         0
         0         0         0         0         0         0         0         0
         0         0         0         0         0         0         0         0
         0         0         0         0         0         0         0         0
         0         0         0         0         0         0         0         0
         0         0         0         0         0         0         0         0
         0         0         0         0         0         0         0         0
         0         0         0         0         0         0         0         0
         0         0         0         0         0         0         0         0
         0         0         0         0         0         0         0         0
         0         0         0         0         0         0         0         0
         0         0         0         0         0         0         0         0
         0         0         0         0         0         0         0         0
         0         0         0         0         0         0         0         0
         0         0         0         0         0         0         0         0
         0         0         0         0         0         0         0         0
         0         0         0         0         0         0         0         0
         0         0         0         0         0         0         0         0
         0         0         0         0         0         0         0         0
         0         0         0         0         0         0         0         0
         0         0         0         0         0         0         0         0
         0         0         0         0         0         0         0         0
         0         0         0         0         0         0         0         0
         0         0         0         0         0         0         0         0
         0         0         0         0         0         0         0         0
         0         0         0         0         0         0         0         0
         0         0         0         0         0         0         0         0
         0         0         0         0         0         0         0         0
         0         0         0         0         0         0         0         0
         0         0         0         0         0         0         0         0
         0         0         0         0         0         0         0         0
         0         0         0         0         0         0         0         0
         0         0         0         0         0         0         0         0
         0         0         0         0         0         0         0         0
         0         0         0         0         0         0         0         0
         0         0         0         0         0         0         0         0
         0         0         0         0         0         0         0         0
         0         0         0         0         0         0         0         0
         0         0         0         0         0         0         0         0
         0         0         0         0         0         0         0         0
         0         0         0         0         0         0         0         0
         0         0         0         0         0         0         0         0
         0         0         0         0         0         0         0         0
         0         0         0         0         0         0         0         0
         0         0         0         0         0         0         0         0
         0         0         0         0         0         0         0         0
         0         0         0         0         0         0         0         0
         0         0         0         0         0         0         0         0
         0         0         0         0         0         0         0         0
         0         0         0         0         0         0         0         0
         0         0         0         0         0         0         0         0
         0         0         0         0         0         0         0         0
         0         0         0         0         0         0         0         0
         0         0         0         0         0         0         0         0
         0         0         0         0         0         0         0         0
         0         0         0         0         0         0         0         0
         0         0         0         0         0         0         0         0
         0         0         0         0         0         0         0         0
         0         0         0         0         0         0         0         0
         0         0         0         0         0         0         0         0
         0         0         0         0         0         0         0         0
         0         0         0         0         0         0         0         0
         0         0         0         0         0         0         0         0
         0         0         0         0         0         0         0         0
         0         0         0         0         0         0         0         0
         0         0         0         0         0         0         0         0
         0         0         0         0         0         0         0         0
         0         0         0         0         0         0         0         0
         0         0         0         0         0         0         0         0
         0         0         0         0         0         0         0         0
         0         0         0         0         0         0         0         0
         0         0         0         0         0         0         0         0
         0         0         0         0         0         0         0         0
         0         0         0         0         0         0         0         0
         0         0         0         0         0         0         0         0
         0         0         0         0         0         0         0         0
         0         0         0         0         0         0         0         0
         0         0         0         0         0         0         0         0
         0         0         0         0         0         0         0         0
         0         0         0         0         0         0         0         0
         0         0         0         0         0         0         0         0
         0         0         0         0         0         0         0         0
         0         0         0         0         0         0         0         0
         0         0         0         0         0         0         0         0
         0         0         0         0         0         0         0         0
         0         0         0         0         0         0         0         0
         0         0         0         0         0         0         0         0
         0         0         0         0         0         0         0         0
         0         0         0         0         0         0         0         0
         0         0         0         0         0         0         0         0
         0         0         0         0         0         0         0         0
         0         0         0         0         0         0         0         0
         0         0         0         0         0         0         0         0
         0         0         0         0         0         0         0         0
         0         0         0         0         0         0         0         0
         0         0         0         0         0         0         0         0
         0         0         0         0         0         0         0         0
         0         0         0         0         0         0         0         0
         0         0         0         0         0         0         0         0
         0         0         0         0         0         0         0         0
         0         0         0         0         0         0         0         0
         0         0         0         0         0         0         0         0
         0         0         0         0         0         0         0         0
         0         0         0         0         0         0         0         0
         0         0         0         0         0         0         0         0
         0         0         0         0         0         0         0         0
         0         0         0         0         0         0         0         0
         0         0         0         0         0         0         0         0
         0         0         0         0         0         0         0         0
         0         0         0         0         0         0         0         0
         0         0         0         0         0         0         0         0
         0         0         0         0         0         0         0         0
         0         0         0         0         0         0         0         0
         0         0         0         0         0         0         0         0
         0         0         0         0         0         0         0         0
         0         0         0         0         0         0         0         0
         0         0         0         0         0         0         0         0
         0         0         0         0         0         0         0         0
         0         0         0         0         0         0         0         0
         0         0         0         0         0         0         0         0
         0         0         0         0         0         0         0         0
         0         0         0         0         0         0         0         0
         0         0         0         0         0         0         0         0
         0         0         0         0         0         0         0         0
         0         0         0         0         0         0         0         0
         0         0         0         0         0         0         0         0
         0         0         0         0         0         0         0         0
         0         0         0         0         0         0         0         0
         0         0         0         0         0         0         0         0
         0         0         0         0         0         0         0         0
         0         0         0         0         0         0         0         0
         0         0         0         0         0         0         0         0
         0         0         0         0         0         0         0         0
         0         0         0         0         0         0         0         0
         0         0         0         0         0         0         0         0
         0         0         0         0         0         0         0         0
         0         0         0         0         0         0         0         0
         0         0         0         0         0         0         0         0
         0         0         0         0         0         0         0         0
         0         0         0         0         0         0         0         0
         0         0         0         0         0         0         0         0
         0         0         0         0         0         0         0         0
         0         0         0         0         0         0         0         0
         0         0         0         0         0         0         0         0
         0         0         0         0         0         0         0         0
         0         0         0         0         0         0         0         0
         0         0         0         0         0         0         0         0
         0         0         0         0         0         0         0         0
         0         0         0         0         0         0         0         0
         0         0         0         0         0         0         0         0
         0         0         0         0         0         0         0         0
         0         0         0         0         0         0         0         0
         0         0         0         0         0         0         0         0
         0         0         0         0         0         0         0         0
         0         0         0         0         0         0         0         0
         0         0         0         0         0         0         0         0
         0         0         0         0         0         0         0         0
         0         0         0         0         0         0         0         0
         0         0         0         0         0         0         0         0
         0         0         0         0         0         0         0         0
         0         0         0         0         0         0         0         0
         0         0         0         0         0         0         0         0
         0         0         0         0         0         0         0         0
         0         0         0         0         0         0         0         0
         0         0         0         0         0         0         0         0
         0         0         0         0         0         0         0         0
         0         0         0         0         0         0         0         0
         0         0         0         0         0         0         0         0
         0         0         0         0         0         0         0         0
         0         0         0         0         0         0         0         0
         0         0         0         0         0         0         0         0
         0         0         0         0         0         0         0         0
         0         0         0         0         0         0         0         0
         0         0         0         0         0         0         0         0
         0         0         0         0         0         0         0         0
         0         0         0         0         0         0         0         0
         0         0         0         0         0         0         0         0
         0         0         0         0         0         0         0         0
         0         0         0         0         0         0         0         0
         0         0         0         0         0         0         0         0
         0         0         0         0         0         0         0         0
         0         0         0         0         0         0         0         0
         0         0         0         0         0         0         0         0
         0         0         0         0         0         0         0         0
         0         0         0         0         0         0         0         0
         0         0         0         0         0         0         0         0
         0         0         0         0         0         0         0         0
         0         0         0         0         0         0         0         0
         0         0         0         0         0         0         0         0
         0         0         0         0         0         0         0         0
         0         0         0         0         0         0         0         0
         0         0         0         0         0         0         0         0
         0         0         0         0         0         0         0         0
         0         0         0         0         0         0         0         0
         0         0         0         0         0         0         0         0
         0         0         0         0         0         0         0         0
         0         0         0         0         0         0         0         0
         0         0         0         0         0         0         0         0
         0         0         0         0         0         0         0         0
         0         0         0         0         0         0         0         0
         0         0         0         0         0         0         0         0
         0         0         0         0         0         0         0         0
         0         0         0         0         0         0         0         0
         0         0         0         0         0         0         0         0
         0         0         0         0         0         0         0         0
         0         0         0         0         0         0         0         0
         0         0         0         0         0         0         0         0
         0         0         0         0         0         0         0         0
         0         0         0         0         0         0         0         0
         0         0         0         0         0         0         0         0
         0         0         0         0         0         0         0         0
         0         0         0         0         0         0         0         0
         0         0         0         0         0         0         0         0
         0         0         0         0         0         0         0         0
         0         0         0         0         0         0         0         0
         0         0         0         0         0         0         0         0
         0         0         0         0         0         0         0         0
         0         0         0         0         0         0         0         0
         0         0         0         0         0         0         0         0
         0         0         0         0         0         0         0         0
         0         0         0         0         0         0         0         0
         0         0         0         0         0         0         0         0
         0         0         0         0         0         0         0         0
         0         0         0         0         0         0         0         0
         0         0         0         0         0         0         0         0
         0         0         0         0         0         0         0         0
         0         0         0         0         0         0         0         0
         0         0         0         0         0         0         0         0
         0         0         0         0         0         0         0         0
         0         0         0         0         0         0         0         0
         0         0         0         0         0         0         0         0
         0         0         0         0         0         0         0         0
         0         0         0         0         0         0         0         0
         0         0         0         0         0         0         0         0
         0         0         0         0         0         0         0         0
         0         0         0         0         0         0         0         0
         0         0         0         0         0         0         0         0
         0         0         0         0         0         0         0         0
         0         0         0         0         0         0         0         0
         0         0         0         0         0         0         0         0
         0         0         0         0         0         0         0         0
         0         0         0         0         0         0         0         0
         0         0         0         0         0         0         0         0
         0         0         0         0         0         0         0         0
         0         0         0         0         0         0         0         0
         0         0         0         0         0         0         0         0
         0         0         0         0         0         0         0         0
         0         0         0         0         0         0         0         0
         0         0         0         0         0         0         0         0
         0         0         0         0         0         0         0         0
         0         0         0         0         0         0         0         0
         0         0         0         0         0         0         0         0
         0         0         0         0         0         0         0         0
         0         0         0         0         0         0         0         0
         0         0         0         0         0         0         0         0
         0         0         0         0         0         0         0         0
         0         0         0         0         0         0         0         0
         0         0         0         0         0         0         0         0
         0         0         0         0         0         0         0         0
         0         0         0         0         0         0         0         0
         0         0         0         0         0         0         0         0
         0         0         0         0         0         0         0         0
         0         0         0         0         0         0         0         0
         0         0         0         0         0         0         0         0
         0         0         0         0         0         0         0         0
         0         0         0         0         0         0         0         0
         0         0         0         0         0         0         0         0
         0         0         0         0         0         0         0         0
         0         0         0         0         0         0         0         0
         0         0         0         0         0         0         0         0
         0         0         0         0         0         0         0         0
         0         0         0         0         0         0         0         0
         0         0         0         0         0         0         0         0
         0         0         0         0         0         0         0         0
         0         0         0         0         0         0         0         0
         0         0         0         0         0         0         0         0
         0         0         0         0         0         0         0         0
         0         0         0         0         0         0         0         0
         0         0         0         0         0         0         0         0
         0         0         0         0         0         0         0         0
         0         0         0         0         0         0         0         0
         0         0         0         0         0         0         0         0
         0         0         0         0         0         0         0         0
         0         0         0         0         0         0         0         0
         0         0         0         0         0         0         0         0
         0         0         0         0         0         0         0         0
         0         0         0         0         0         0         0         0
         0         0         0         0         0         0         0         0
         0         0         0         0         0         0         0         0
         0         0         0         0         0         0         0         0
         0         0         0         0         0         0         0         0
         0         0         0         0         0         0         0         0
         0         0         0         0         0         0         0         0
         0         0         0         0         0         0         0         0
         0         0         0         0         0         0         0         0
         0         0         0         0         0         0         0         0
         0         0         0         0         0         0         0         0
         0         0         0         0         0         0         0         0
         0         0         0         0         0         0         0         0
         0         0         0         0         0         0         0         0
         0         0         0         0         0         0         0         0
         0         0         0         0         0         0         0         0
         0         0         0         0         0         0         0         0
         0         0         0         0         0         0         0         0
         0         0         0         0         0         0         0         0
         0         0         0         0         0         0         0         0
         0         0         0         0         0         0         0         0
         0         0         0         0         0         0         0         0
         0         0         0         0         0         0         0         0
         0         0         0         0         0         0         0         0
         0         0         0         0         0         0         0         0
         0         0         0         0         0         0         0         0
         0         0         0         0         0         0         0         0
         0         0         0         0         0         0         0         0
         0         0         0         0         0         0         0         0
         0         0         0         0         0         0         0         0
         0         0         0         0         0         0         0         0
         0         0         0         0         0         0         0         0
         0         0         0         0         0         0         0         0
         0         0         0         0         0         0         0         0
         0         0         0         0         0         0         0         0
         0         0         0         0         0         0         0         0
         0         0         0         0         0         0         0         0
         0         0         0         0         0         0         0         0
         0         0         0         0         0         0         0         0
         0         0         0         0         0         0         0         0
         0         0         0         0         0         0         0         0
         0         0         0         0         0         0         0         0
         0         0         0         0         0         0         0         0
         0         0         0         0         0         0         0         0
         0         0         0         0         0         0         0         0
         0         0         0         0         0         0         0         0
         0         0         0         0         0         0         0         0
         0         0         0         0         0         0         0         0
         0         0         0         0         0         0         0         0
         0         0         0         0         0         0         0         0
         0         0         0         0         0         0         0         0
         0         0         0         0         0         0         0         0
         0         0         0         0         0         0         0         0
         0         0         0         0         0         0         0         0
         0         0         0         0         0         0         0         0
         0         0         0         0         0         0         0         0
         0         0         0         0         0         0         0         0
         0         0         0         0         0         0         0         0
         0         0         0         0         0         0         0         0
         0         0         0         0         0         0         0         0
         0         0         0         0         0         0         0         0
         0         0         0         0         0         0         0         0
         0         0         0         0         0         0         0         0
         0         0         0         0         0         0         0         0
         0         0         0         0         0         0         0         0
         0         0         0         0         0         0         0         0
         0         0         0         0         0         0         0         0
         0         0         0         0         0         0         0         0
         0         0         0         0         0         0         0         0
         0         0         0         0         0         0         0         0
         0         0         0         0         0         0         0         0
         0         0         0         0         0         0         0         0
         0         0         0         0         0         0         0         0
         0         0         0         0         0         0         0         0
         0         0         0         0         0         0         0         0
         0         0         0         0         0         0         0         0
         0         0         0         0         0         0         0         0
         0         0         0         0         0         0         0         0
         0         0         0         0         0         0         0         0
         0         0         0         0         0         0         0         0
         0         0         0         0         0         0         0         0
         0         0         0         0         0         0         0         0
         0         0         0         0         0         0         0         0
         0         0         0         0         0         0         0         0
         0         0         0         0         0         0         0         0
         0         0         0         0         0         0         0         0
         0         0         0         0         0         0         0         0
         0         0         0         0         0         0         0         0
         0         0         0         0         0         0         0         0
         0         0         0         0         0         0         0         0
         0         0         0         0         0         0         0         0
         0         0         0         0         0         0         0         0
         0         0         0         0         0         0         0         0
         0         0         0         0         0         0         0         0
         0         0         0         0         0         0         0         0
         0         0         0         0         0         0         0         0
         0         0         0         0         0         0         0         0
         0         0         0         0         0         0         0         0
         0         0         0         0         0         0         0         0
         0         0         0         0         0         0         0         0
         0         0         0         0         0         0         0         0
         0         0         0         0         0         0         0         0
         0         0         0         0         0         0         0         0
         0         0         0         0         0         0         0         0
         0         0         0         0         0         0         0         0
         0         0         0         0         0         0         0         0
         0         0         0         0         0         0         0         0
         0         0         0         0         0         0         0         0
         0         0         0         0         0         0         0         0
         0         0         0         0         0         0         0         0
         0         0         0         0         0         0         0         0
         0         0         0         0         0         0         0         0
         0         0         0         0         0         0         0         0
         0         0         0         0         0         0         0         0
         0         0         0         0         0         0         0         0
         0         0         0         0         0         0         0         0
         0         0         0         0         0         0         0         0
         0         0         0         0         0         0         0         0
         0         0         0         0         0         0         0         0
         0         0         0         0         0         0         0         0
         0         0         0         0         0         0         0         0
         0         0         0         0         0         0         0         0
         0         0         0         0         0         0         0         0
         0         0         0         0         0         0         0         0
         0         0         0         0         0         0         0         0
         0         0         0         0         0         0         0         0
         0         0         0         0         0         0         0         0
         0         0         0         0         0         0         0         0
         0         0         0         0         0         0         0         0
         0         0         0         0         0         0         0         0
         0         0         0         0         0         0         0         0
         0         0         0         0         0         0         0         0
         0         0         0         0         0         0         0         0
         0         0         0         0         0         0         0         0
         0         0         0         0         0         0         0         0
         0         0         0         0         0         0         0         0
         0         0         0         0         0         0         0         0
         0         0         0         0         0         0         0         0
         0         0         0         0         0         0         0         0
         0         0         0         0         0         0         0         0
         0         0         0         0         0         0         0         0
         0         0         0         0         0         0         0         0
         0         0         0         0         0         0         0         0
         0         0         0         0         0         0         0         0
         0         0         0         0         0         0         0         0
         0         0         0         0         0         0         0         0
         0         0         0         0         0         0         0         0
         0         0         0         0         0         0         0         0
         0         0         0         0         0         0         0         0
         0         0         0         0         0         0         0         0
         0         0         0         0         0         0         0         0
         0         0         0         0         0         0         0         0
         0         0         0         0         0         0         0         0
         0         0         0         0         0         0         0         0
         0         0         0         0         0         0         0         0
         0         0         0         0         0         0         0         0
         0         0         0         0         0         0         0         0
         0         0         0         0         0         0         0         0
         0         0         0         0         0         0         0         0
         0         0         0         0         0         0         0         0
         0         0         0         0         0         0         0         0
         0         0         0         0         0         0         0         0
         0         0         0         0         0         0         0         0
         0         0         0         0         0         0         0         0
         0         0         0         0         0         0         0         0
         0         0         0         0         0         0         0         0
         0         0         0         0         0         0         0         0
         0         0         0         0         0         0         0         0
         0         0         0         0         0         0         0         0
         0         0         0         0         0         0         0         0
         0         0         0         0         0         0         0         0
         0         0         0         0         0         0         0         0
         0         0         0         0         0         0         0         0
         0         0         0         0         0         0         0         0
         0         0         0         0         0         0         0         0
         0         0         0         0         0         0         0         0
         0         0         0         0         0         0         0         0
         0         0         0         0         0         0         0         0
         0         0         0         0         0         0         0         0
         0         0         0         0         0         0         0         0
         0         0         0         0         0         0         0         0
         0         0         0         0         0         0         0         0
         0         0         0         0         0         0         0         0
         0         0         0         0         0         0         0         0
         0         0         0         0         0         0         0         0
         0         0         0         0         0         0         0         0
         0         0         0         0         0         0         0         0
         0         0         0         0         0         0         0         0
         0         0         0         0         0         0         0         0
         0         0         0         0         0         0         0         0
         0         0         0         0         0         0         0         0
         0         0         0         0         0         0         0         0
         0         0         0         0         0         0         0         0
         0         0         0         0         0         0         0         0
         0         0         0         0         0         0         0         0
         0         0         0         0         0         0         0         0
         0         0         0         0         0         0         0         0
         0         0         0         0         0         0         0         0
         0         0         0         0         0         0         0         0
         0         0         0         0         0         0         0         0
         0         0         0         0         0         0         0         0
         0         0         0         0         0         0         0         0
         0         0         0         0         0         0         0         0
         0         0         0         0         0         0         0         0
         0         0         0         0         0         0         0         0
         0         0         0         0         0         0         0         0
         0         0         0         0         0         0         0         0
         0         0         0         0         0         0         0         0
         0         0         0         0         0         0         0         0
         0         0         0         0         0         0         0         0
         0         0         0         0         0         0         0         0
         0         0         0         0         0         0         0         0
         0         0         0         0         0         0         0         0
         0         0         0         0         0         0         0         0
         0         0         0         0         0         0         0         0
         0         0         0         0         0         0         0         0
         0         0         0         0         0         0         0         0
         0         0         0         0         0         0         0         0
         0         0         0         0         0         0         0         0
         0         0         0         0         0         0         0         0
         0         0         0         0         0         0         0         0
         0         0         0         0         0         0         0         0
         0         0         0         0         0         0         0         0
         0         0         0         0         0         0         0         0
         0         0         0         0         0         0         0         0
         0         0         0         0         0         0         0         0
         0         0         0         0         0         0         0         0
         0         0         0         0         0         0         0         0
         0         0         0         0         0         0         0         0
         0         0         0         0         0         0         0         0
         0         0         0         0         0         0         0         0
         0         0         0         0         0         0         0         0
         0         0         0         0         0         0         0         0
         0         0         0         0         0         0         0         0
         0         0         0         0         0         0         0         0
         0         0         0         0         0         0         0         0
         0         0         0         0         0         0         0         0
         0         0         0         0         0         0         0         0
         0         0         0         0         0         0         0         0
         0         0         0         0         0         0         0         0
         0         0         0         0         0         0         0         0
         0         0         0         0         0         0         0         0
         0         0         0         0         0         0         0         0
         0         0         0         0         0         0         0         0
         0         0         0         0         0         0         0         0
         0         0         0         0         0         0         0         0
         0         0         0         0         0         0         0         0
         0         0         0         0         0         0         0         0
         0         0         0         0         0         0         0         0
         0         0         0         0         0         0         0         0
         0         0         0         0         0         0         0         0
         0         0         0         0         0         0         0         0
         0         0         0         0         0         0         0         0
         0         0         0         0         0         0         0         0
         0         0         0         0         0         0         0         0
         0         0         0         0         0         0         0         0
         0         0         0         0         0         0         0         0
         0         0         0         0         0         0         0         0
         0         0         0         0         0         0         0         0
         0         0         0         0         0         0         0         0
         0         0         0         0         0         0         0         0
         0         0         0         0         0         0         0         0
         0         0         0         0         0         0         0         0
         0         0         0         0         0         0         0         0
         0         0         0         0         0         0         0         0
         0         0         0         0         0         0         0         0
         0         0         0         0         0         0         0         0
         0         0         0         0         0         0         0         0
         0         0         0         0         0         0         0         0
         0         0         0         0         0         0         0         0
         0         0         0         0         0         0         0         0
         0         0         0         0         0         0         0         0
         0         0         0         0         0         0         0         0
         0         0         0         0         0         0         0         0
         0         0         0         0         0         0         0         0
         0         0         0         0         0         0         0         0
         0         0         0         0         0         0         0         0
         0         0         0         0         0         0         0         0
         0         0         0         0         0         0         0         0
         0         0         0         0         0         0         0         0
         0         0         0         0         0         0         0         0
         0         0         0         0         0         0         0         0
         0         0         0         0         0         0         0         0
         0         0         0         0         0         0         0         0
         0         0         0         0         0         0         0         0
         0         0         0         0         0         0         0         0
         0         0         0         0         0         0         0         0
         0         0         0         0         0         0         0         0
         0         0         0         0         0         0         0         0
         0         0         0         0         0         0         0         0
         0         0         0         0         0         0         0         0
         0         0         0         0         0         0         0         0
         0         0         0         0         0         0         0         0
         0         0         0         0         0         0         0         0
         0         0         0         0         0         0         0         0
         0         0         0         0         0         0         0         0
         0         0         0         0         0         0         0         0
         0         0         0         0         0         0         0         0
         0         0         0         0         0         0         0         0
         0         0         0         0         0         0         0         0
         0         0         0         0         0         0         0         0
         0         0         0         0         0         0         0         0
         0         0         0         0         0         0         0         0
         0         0         0         0         0         0         0         0
         0         0         0         0         0         0         0         0
         0         0         0         0         0         0         0         0
         0         0         0         0         0         0         0         0
         0         0         0         0         0         0         0         0
         0         0         0         0         0         0         0         0
         0         0         0         0         0         0         0         0
         0         0         0         0         0         0         0         0
         0         0         0         0         0         0         0         0
         0         0         0         0         0         0         0         0
         0         0         0         0         0         0         0         0
         0         0         0         0         0         0         0         0
         0         0         0         0         0         0         0         0
         0         0         0         0         0         0         0         0
         0         0         0         0         0         0         0         0
         0         0         0         0         0         0         0         0
         0         0         0         0         0         0         0         0
         0         0         0         0         0         0         0         0
         0         0         0         0         0         0         0         0
         0         0         0         0         0         0         0         0
         0         0         0         0

     11866         0 !NGRP NST2
         0         2         0         7         1         0         9         1         0
        13         1         0        17         1         0        19         1         0
        23         1         0        26         1         0        28         1         0
        32         1         0        36         1         0        38         1         0
        42         1         0        46         1         0        48         1         0
        52         1         0        54         1         0        58         1         0
        62         1         0        64         1         0        68         1         0
        70         1         0        74         1         0        78         1         0
        80         1         0        84         1         0        86         1         0
        90         1         0        94         1         0        96         1         0
       100         1         0       103         1         0       118         1         0
       120         1         0       124         1         0       127         1         0
       129         1         0       133         1         0       137         1         0
       139         1         0       143         1         0       146         1         0
       161         1         0       163         1         0       167         1         0
       170         1         0       172         1         0       176         1         0
       180         1         0       182         1         0       186         1         0
       189         1         0       204         1         0       206         1         0
       210         1         0       213         1         0       215         1         0
       219         1         0       223         1         0       225         1         0
       229         1         0       232         1         0       247         2         0
       250         2         0       257         1         0       259         1         0
       263         1         0       267         1         0       269         1         0
       273         1         0       276         1         0       278         1         0
       282         1         0       286         1         0       288         1         0
       292         1         0       296         1         0       298         1         0
       302         1         0       304         1         0       308         1         0
       312         1         0       314         1         0       318         1         0
       320         1         0       324         1         0       328         1         0
       330         1         0       334         1         0       336         1         0
       340         1         0       344         1         0       346         1         0
       350         1         0       353         1         0       368         1         0
       370         1         0       374         1         0       377         1         0
       379         1         0       383         1         0       387         1         0
       389         1         0       393         1         0       396         1         0
       411         1         0       413         1         0       417         1         0
       420         1         0       422         1         0       426         1         0
       430         1         0       432         1         0       436         1         0
       439         1         0       454         1         0       456         1         0
       460         1         0       463         1         0       465         1         0
       469         1         0       473         1         0       475         1         0
       479         1         0       482         1         0       497         2         0
       500         2         0       516         2         0       527         1         0
       535         1         0       544         1         0       547         1         0
       550         1         0       553         1         0       556         1         0
       559         1         0       562         1         0       564         1         0
       566         1         0       569         1         0       572         1         0
       575         1         0       578         1         0       581         1         0
       584         1         0       587         1         0       591         1         0
       594         1         0       597         1         0       600         1         0
       603         1         0       606         1         0       609         1         0
       611         1         0       613         1         0       616         1         0
       619         1         0       622         1         0       625         1         0
       628         1         0       631         1         0       634         1         0
       638         2         0       654         2         0       665         1         0
       673         1         0       682         1         0       685         1         0
       688         1         0       691         1         0       694         1         0
       697         1         0       700         1         0       702         1         0
       704         1         0       707         1         0       710         1         0
       713         1         0       716         1         0       719         1         0
       722         1         0       725         1         0       729         1         0
       732         1         0       735         1         0       738         1         0
       741         1         0       744         1         0       747         1         0
       749         1         0       751         1         0       754         1         0
       757         1         0       760         1         0       763         1         0
       766         1         0       769         1         0       772         1         0
       776         2         0       792         2         0       803         1         0
       811         1         0       820         1         0       823         1         0
       826         1         0       829         1         0       832         1         0
       835         1         0       838         1         0       840         1         0
       842         1         0       845         1         0       848         1         0
       851         1         0       854         1         0       857         1         0
       860         1         0       863         1         0       867         1         0
       870         1         0       873         1         0       876         1         0
       879         1         0       882         1         0       885         1         0
       887         1         0       889         1         0       892         1         0
       895         1         0       898         1         0       901         1         0
       904         1         0       907         1         0       910         1         0
       914         2         0       930         2         0       941         1         0
       949         1         0       958         1         0       961         1         0
       964         1         0       967         1         0       970         1         0
       973         1         0       976         1         0       978         1         0
       980         1         0       983         1         0       986         1         0
       989         1         0       992         1         0       995         1         0
       998         1         0      1001         1         0      1005         1         0
      1008         1         0      1011         1         0      1014         1         0
      1017         1         0      1020         1         0      1023         1         0
      1025         1         0      1027         1         0      1030         1         0
      1033         1         0      1036         1         0      1039         1         0
      1042         1         0      1045         1         0      1048         1         0
      1052         2         0      1068         2         0      1079         1         0
      1087         1         0      1096         1         0      1099         1         0
      1102         1         0      1105         1         0      1108         1         0
      1111         1         0      1114         1         0      1116         1         0
      1118         1         0      1121         1         0      1124         1         0
      1127         1         0      1130         1         0      1133         1         0
      1136         1         0      1139         1         0      1143         1         0
      1146         1         0      1149         1         0      1152         1         0
      1155         1         0      1158         1         0      1161         1         0
      1163         1         0      1165         1         0      1168         1         0
      1171         1         0      1174         1         0      1177         1         0
      1180         1         0      1183         1         0      1186         1         0
      1190         2         0      1206         2         0      1217         1         0
      1225         1         0      1234         1         0      1237         1         0
      1240         1         0      1243         1         0      1246         1         0
      1249         1         0      1252         1         0      1254         1         0
      1256         1         0      1259         1         0      1262         1         0
      1265         1         0      1268         1         0      1271         1         0
      1274         1         0      1277         1         0      1281         1         0
      1284         1         0      1287         1         0      1290         1         0
      1293         1         0      1296         1         0      1299         1         0
      1301         1         0      1303         1         0      1306         1         0
      1309         1         0      1312         1         0      1315         1         0
      1318         1         0      1321         1         0      1324         1         0
      1328         2         0      1344         2         0      1355         1         0
      1363         1         0      1372         1         0      1375         1         0
      1378         1         0      1381         1         0      1384         1         0
      1387         1         0      1390         1         0      1392         1         0
      1394         1         0      1397         1         0      1400         1         0
      1403         1         0      1406         1         0      1409         1         0
      1412         1         0      1415         1         0      1419         1         0
      1422         1         0      1425         1         0      1428         1         0
      1431         1         0      1434         1         0      1437         1         0
      1439         1         0      1441         1         0      1444         1         0
      1447         1         0      1450         1         0      1453         1         0
      1456         1         0      1459         1         0      1462         1         0
      1466         2         0      1482         2         0      1493         1         0
      1501         1         0      1510         1         0      1513         1         0
      1516         1         0      1519         1         0      1522         1         0
      1525         1         0      1528         1         0      1530         1         0
      1532         1         0      1535         1         0      1538         1         0
      1541         1         0      1544         1         0      1547         1         0
      1550         1         0      1553         1         0      1557         1         0
      1560         1         0      1563         1         0      1566         1         0
      1569         1         0      1572         1         0      1575         1         0
      1577         1         0      1579         1         0      1582         1         0
      1585         1         0      1588         1         0      1591         1         0
      1594         1         0      1597         1         0      1600         1         0
      1604         2         0      1620         2         0      1631         1         0
      1639         1         0      1648         1         0      1651         1         0
      1654         1         0      1657         1         0      1660         1         0
      1663         1         0      1666         1         0      1668         1         0
      1670         1         0      1673         1         0      1676         1         0
      1679         1         0      1682         1         0      1685         1         0
      1688         1         0      1691         1         0      1695         1         0
      1698         1         0      1701         1         0      1704         1         0
      1707         1         0      1710         1         0      1713         1         0
      1715         1         0      1717         1         0      1720         1         0
      1723         1         0      1726         1         0      1729         1         0
      1732         1         0      1735         1         0      1738         1         0
      1742         2         0      1758         2         0      1769         1         0
      1777         1         0      1786         1         0      1789         1         0
      1792         1         0      1795         1         0      1798         1         0
      1801         1         0      1804         1         0      1806         1         0
      1808         1         0      1811         1         0      1814         1         0
      1817         1         0      1820         1         0      1823         1         0
      1826         1         0      1829         1         0      1833         1         0
      1836         1         0      1839         1         0      1842         1         0
      1845         1         0      1848         1         0      1851         1         0
      1853         1         0      1855         1         0      1858         1         0
      1861         1         0      1864         1         0      1867         1         0
      1870         1         0      1873         1         0      1876         1         0
      1880         2         0      1896         2         0      1907         1         0
      1915         1         0      1924         1         0      1927         1         0
      1930         1         0      1933         1         0      1936         1         0
      1939         1         0      1942         1         0      1944         1         0
      1946         1         0      1949         1         0      1952         1         0
      1955         1         0      1958         1         0      1961         1         0
      1964         1         0      1967         1         0      1971         1         0
      1974         1         0      1977         1         0      1980         1         0
      1983         1         0      1986         1         0      1989         1         0
      1991         1         0      1993         1         0      1996         1         0
      1999         1         0      2002         1         0      2005         1         0
      2008         1         0      2011         1         0      2014         1         0
      2018         2         0      2034         2         0      2045         1         0
      2053         1         0      2062         1         0      2065         1         0
      2068         1         0      2071         1         0      2074         1         0
      2077         1         0      2080         1         0      2082         1         0
      2084         1         0      2087         1         0      2090         1         0
      2093         1         0      2096         1         0      2099         1         0
      2102         1         0      2105         1         0      2109         1         0
      2112         1         0      2115         1         0      2118         1         0
      2121         1         0      2124         1         0      2127         1         0
      2129         1         0      2131         1         0      2134         1         0
      2137         1         0      2140         1         0      2143         1         0
      2146         1         0      2149         1         0      2152         1         0
      2156         2         0      2172         2         0      2183         1         0
      2191         1         0      2200         1         0      2203         1         0
      2206         1         0      2209         1         0      2212         1         0
      2215         1         0      2218         1         0      2220         1         0
      2222         1         0      2225         1         0      2228         1         0
      2231         1         0      2234         1         0      2237         1         0
      2240         1         0      2243         1         0      2247         1         0
      2250         1         0      2253         1         0      2256         1         0
      2259         1         0      2262         1         0      2265         1         0
      2267         1         0      2269         1         0      2272         1         0
      2275         1         0      2278         1         0      2281         1         0
      2284         1         0      2287         1         0      2290         1         0
      2294         2         0      2310         2         0      2321         1         0
      2329         1         0      2338         1         0      2341         1         0
      2344         1         0      2347         1         0      2350         1         0
      2353         1         0      2356         1         0      2358         1         0
      2360         1         0      2363         1         0      2366         1         0
      2369         1         0      2372         1         0      2375         1         0
      2378         1         0      2381         1         0      2385         1         0
      2388         1         0      2391         1         0      2394         1         0
      2397         1         0      2400         1         0      2403         1         0
      2405         1         0      2407         1         0      2410         1         0
      2413         1         0      2416         1         0      2419         1         0
      2422         1         0      2425         1         0      2428         1         0
      2432         2         0      2448         2         0      2459         1         0
      2467         1         0      2476         1         0      2479         1         0
      2482         1         0      2485         1         0      2488         1         0
      2491         1         0      2494         1         0      2496         1         0
      2498         1         0      2501         1         0      2504         1         0
      2507         1         0      2510         1         0      2513         1         0
      2516         1         0      2519         1         0      2523         1         0
      2526         1         0      2529         1         0      2532         1         0
      2535         1         0      2538         1         0      2541         1         0
      2543         1         0      2545         1         0      2548         1         0
      2551         1         0      2554         1         0      2557         1         0
      2560         1         0      2563         1         0      2566         1         0
      2570         2         0      2586         2         0      2597         1         0
      2605         1         0      2614         1         0      2617         1         0
      2620         1         0      2623         1         0      2626         1         0
      2629         1         0      2632         1         0      2634         1         0
      2636         1         0      2639         1         0      2642         1         0
      2645         1         0      2648         1         0      2651         1         0
      2654         1         0      2657         1         0      2661         1         0
      2664         1         0      2667         1         0      2670         1         0
      2673         1         0      2676         1         0      2679         1         0
      2681         1         0      2683         1         0      2686         1         0
      2689         1         0      2692         1         0      2695         1         0
      2698         1         0      2701         1         0      2704         1         0
      2708         2         0      2724         2         0      2735         1         0
      2743         1         0      2752         1         0      2755         1         0
      2758         1         0      2761         1         0      2764         1         0
      2767         1         0      2770         1         0      2772         1         0
      2774         1         0      2777         1         0      2780         1         0
      2783         1         0      2786         1         0      2789         1         0
      2792         1         0      2795         1         0      2799         1         0
      2802         1         0      2805         1         0      2808         1         0
      2811         1         0      2814         1         0      2817         1         0
      2819         1         0      2821         1         0      2824         1         0
      2827         1         0      2830         1         0      2833         1         0
      2836         1         0      2839         1         0      2842         1         0
      2846         2         0      2862         2         0      2873         1         0
      2881         1         0      2890         1         0      2893         1         0
      2896         1         0      2899         1         0      2902         1         0
      2905         1         0      2908         1         0      2910         1         0
      2912         1         0      2915         1         0      2918         1         0
      2921         1         0      2924         1         0      2927         1         0
      2930         1         0      2933         1         0      2937         1         0
      2940         1         0      2943         1         0      2946         1         0
      2949         1         0      2952         1         0      2955         1         0
      2957         1         0      2959         1         0      2962         1         0
      2965         1         0      2968         1         0      2971         1         0
      2974         1         0      2977         1         0      2980         1         0
      2984         2         0      3000         2         0      3011         1         0
      3019         1         0      3028         1         0      3031         1         0
      3034         1         0      3037         1         0      3040         1         0
      3043         1         0      3046         1         0      3048         1         0
      3050         1         0      3053         1         0      3056         1         0
      3059         1         0      3062         1         0      3065         1         0
      3068         1         0      3071         1         0      3075         1         0
      3078         1         0      3081         1         0      3084         1         0
      3087         1         0      3090         1         0      3093         1         0
      3095         1         0      3097         1         0      3100         1         0
      3103         1         0      3106         1         0      3109         1         0
      3112         1         0      3115         1         0      3118         1         0
      3122         2         0      3138         2         0      3149         1         0
      3157         1         0      3166         1         0      3169         1         0
      3172         1         0      3175         1         0      3178         1         0
      3181         1         0      3184         1         0      3186         1         0
      3188         1         0      3191         1         0      3194         1         0
      3197         1         0      3200         1         0      3203         1         0
      3206         1         0      3209         1         0      3213         1         0
      3216         1         0      3219         1         0      3222         1         0
      3225         1         0      3228         1         0      3231         1         0
      3233         1         0      3235         1         0      3238         1         0
      3241         1         0      3244         1         0      3247         1         0
      3250         1         0      3253         1         0      3256         1         0
      3260         2         0      3276         2         0      3287         1         0
      3295         1         0      3304         1         0      3307         1         0
      3310         1         0      3313         1         0      3316         1         0
      3319         1         0      3322         1         0      3324         1         0
      3326         1         0      3329         1         0      3332         1         0
      3335         1         0      3338         1         0      3341         1         0
      3344         1         0      3347         1         0      3351         1         0
      3354         1         0      3357         1         0      3360         1         0
      3363         1         0      3366         1         0      3369         1         0
      3371         1         0      3373         1         0      3376         1         0
      3379         1         0      3382         1         0      3385         1         0
      3388         1         0      3391         1         0      3394         1         0
      3398         2         0      3414         2         0      3425         1         0
      3433         1         0      3442         1         0      3445         1         0
      3448         1         0      3451         1         0      3454         1         0
      3457         1         0      3460         1         0      3462         1         0
      3464         1         0      3467         1         0      3470         1         0
      3473         1         0      3476         1         0      3479         1         0
      3482         1         0      3485         1         0      3489         1         0
      3492         1         0      3495         1         0      3498         1         0
      3501         1         0      3504         1         0      3507         1         0
      3509         1         0      3511         1         0      3514         1         0
      3517         1         0      3520         1         0      3523         1         0
      3526         1         0      3529         1         0      3532         1         0
      3536         2         0      3552         2         0      3563         1         0
      3571         1         0      3580         1         0      3583         1         0
      3586         1         0      3589         1         0      3592         1         0
      3595         1         0      3598         1         0      3600         1         0
      3602         1         0      3605         1         0      3608         1         0
      3611         1         0      3614         1         0      3617         1         0
      3620         1         0      3623         1         0      3627         1         0
      3630         1         0      3633         1         0      3636         1         0
      3639         1         0      3642         1         0      3645         1         0
      3647         1         0      3649         1         0      3652         1         0
      3655         1         0      3658         1         0      3661         1         0
      3664         1         0      3667         1         0      3670         1         0
      3674         2         0      3690         2         0      3701         1         0
      3709         1         0      3718         1         0      3721         1         0
      3724         1         0      3727         1         0      3730         1         0
      3733         1         0      3736         1         0      3738         1         0
      3740         1         0      3743         1         0      3746         1         0
      3749         1         0      3752         1         0      3755         1         0
      3758         1         0      3761         1         0      3765         1         0
      3768         1         0      3771         1         0      3774         1         0
      3777         1         0      3780         1         0      3783         1         0
      3785         1         0      3787         1         0      3790         1         0
      3793         1         0      3796         1         0      3799         1         0
      3802         1         0      3805         1         0      3808         1         0
      3812         2         0      3828         2         0      3839         1         0
      3847         1         0      3856         1         0      3859         1         0
      3862         1         0      3865         1         0      3868         1         0
      3871         1         0      3874         1         0      3876         1         0
      3878         1         0      3881         1         0      3884         1         0
      3887         1         0      3890         1         0      3893         1         0
      3896         1         0      3899         1         0      3903         1         0
      3906         1         0      3909         1         0      3912         1         0
      3915         1         0      3918         1         0      3921         1         0
      3923         1         0      3925         1         0      3928         1         0
      3931         1         0      3934         1         0      3937         1         0
      3940         1         0      3943         1         0      3946         1         0
      3950         2         0      3966         2         0      3977         1         0
      3985         1         0      3994         1         0      3997         1         0
      4000         1         0      4003         1         0      4006         1         0
      4009         1         0      4012         1         0      4014         1         0
      4016         1         0      4019         1         0      4022         1         0
      4025         1         0      4028         1         0      4031         1         0
      4034         1         0      4037         1         0      4041         1         0
      4044         1         0      4047         1         0      4050         1         0
      4053         1         0      4056         1         0      4059         1         0
      4061         1         0      4063         1         0      4066         1         0
      4069         1         0      4072         1         0      4075         1         0
      4078         1         0      4081         1         0      4084         1         0
      4088         2         0      4104         2         0      4115         1         0
      4123         1         0      4132         1         0      4135         1         0
      4138         1         0      4141         1         0      4144         1         0
      4147         1         0      4150         1         0      4152         1         0
      4154         1         0      4157         1         0      4160         1         0
      4163         1         0      4166         1         0      4169         1         0
      4172         1         0      4175         1         0      4179         1         0
      4182         1         0      4185         1         0      4188         1         0
      4191         1         0      4194         1         0      4197         1         0
      4199         1         0      4201         1         0      4204         1         0
      4207         1         0      4210         1         0      4213         1         0
      4216         1         0      4219         1         0      4222         1         0
      4226         2         0      4242         2         0      4253         1         0
      4261         1         0      4270         1         0      4273         1         0
      4276         1         0      4279         1         0      4282         1         0
      4285         1         0      4288         1         0      4290         1         0
      4292         1         0      4295         1         0      4298         1         0
      4301         1         0      4304         1         0      4307         1         0
      4310         1         0      4313         1         0      4317         1         0
      4320         1         0      4323         1         0      4326         1         0
      4329         1         0      4332         1         0      4335         1         0
      4337         1         0      4339         1         0      4342         1         0
      4345         1         0      4348         1         0      4351         1         0
      4354         1         0      4357         1         0      4360         1         0
      4364         2         0      4380         2         0      4391         1         0
      4399         1         0      4408         1         0      4411         1         0
      4414         1         0      4417         1         0      4420         1         0
      4423         1         0      4426         1         0      4428         1         0
      4430         1         0      4433         1         0      4436         1         0
      4439         1         0      4442         1         0      4445         1         0
      4448         1         0      4451         1         0      4455         1         0
      4458         1         0      4461         1         0      4464         1         0
      4467         1         0      4470         1         0      4473         1         0
      4475         1         0      4477         1         0      4480         1         0
      4483         1         0      4486         1         0      4489         1         0
      4492         1         0      4495         1         0      4498         1         0
      4502         2         0      4518         2         0      4529         1         0
      4537         1         0      4546         1         0      4549         1         0
      4552         1         0      4555         1         0      4558         1         0
      4561         1         0      4564         1         0      4566         1         0
      4568         1         0      4571         1         0      4574         1         0
      4577         1         0      4580         1         0      4583         1         0
      4586         1         0      4589         1         0      4593         1         0
      4596         1         0      4599         1         0      4602         1         0
      4605         1         0      4608         1         0      4611         1         0
      4613         1         0      4615         1         0      4618         1         0
      4621         1         0      4624         1         0      4627         1         0
      4630         1         0      4633         1         0      4636         1         0
      4640         2         0      4656         2         0      4667         1         0
      4675         1         0      4684         1         0      4687         1         0
      4690         1         0      4693         1         0      4696         1         0
      4699         1         0      4702         1         0      4704         1         0
      4706         1         0      4709         1         0      4712         1         0
      4715         1         0      4718         1         0      4721         1         0
      4724         1         0      4727         1         0      4731         1         0
      4734         1         0      4737         1         0      4740         1         0
      4743         1         0      4746         1         0      4749         1         0
      4751         1         0      4753         1         0      4756         1         0
      4759         1         0      4762         1         0      4765         1         0
      4768         1         0      4771         1         0      4774         1         0
      4778         2         0      4794         2         0      4805         1         0
      4813         1         0      4822         1         0      4825         1         0
      4828         1         0      4831         1         0      4834         1         0
      4837         1         0      4840         1         0      4842         1         0
      4844         1         0      4847         1         0      4850         1         0
      4853         1         0      4856         1         0      4859         1         0
      4862         1         0      4865         1         0      4869         1         0
      4872         1         0      4875         1         0      4878         1         0
      4881         1         0      4884         1         0      4887         1         0
      4889         1         0      4891         1         0      4894         1         0
      4897         1         0      4900         1         0      4903         1         0
      4906         1         0      4909         1         0      4912         1         0
      4916         2         0      4932         2         0      4943         1         0
      4951         1         0      4960         1         0      4963         1         0
      4966         1         0      4969         1         0      4972         1         0
      4975         1         0      4978         1         0      4980         1         0
      4982         1         0      4985         1         0      4988         1         0
      4991         1         0      4994         1         0      4997         1         0
      5000         1         0      5003         1         0      5007         1         0
      5010         1         0      5013         1         0      5016         1         0
      5019         1         0      5022         1         0      5025         1         0
      5027         1         0      5029         1         0      5032         1         0
      5035         1         0      5038         1         0      5041         1         0
      5044         1         0      5047         1         0      5050         1         0
      5054         2         0      5070         2         0      5081         1         0
      5089         1         0      5098         1         0      5101         1         0
      5104         1         0      5107         1         0      5110         1         0
      5113         1         0      5116         1         0      5118         1         0
      5120         1         0      5123         1         0      5126         1         0
      5129         1         0      5132         1         0      5135         1         0
      5138         1         0      5141         1         0      5145         1         0
      5148         1         0      5151         1         0      5154         1         0
      5157         1         0      5160         1         0      5163         1         0
      5165         1         0      5167         1         0      5170         1         0
      5173         1         0      5176         1         0      5179         1         0
      5182         1         0      5185         1         0      5188         1         0
      5192         2         0      5208         2         0      5219         1         0
      5227         1         0      5236         1         0      5239         1         0
      5242         1         0      5245         1         0      5248         1         0
      5251         1         0      5254         1         0      5256         1         0
      5258         1         0      5261         1         0      5264         1         0
      5267         1         0      5270         1         0      5273         1         0
      5276         1         0      5279         1         0      5283         1         0
      5286         1         0      5289         1         0      5292         1         0
      5295         1         0      5298         1         0      5301         1         0
      5303         1         0      5305         1         0      5308         1         0
      5311         1         0      5314         1         0      5317         1         0
      5320         1         0      5323         1         0      5326         1         0
      5330         2         0      5346         2         0      5357         1         0
      5365         1         0      5374         1         0      5377         1         0
      5380         1         0      5383         1         0      5386         1         0
      5389         1         0      5392         1         0      5394         1         0
      5396         1         0      5399         1         0      5402         1         0
      5405         1         0      5408         1         0      5411         1         0
      5414         1         0      5417         1         0      5421         1         0
      5424         1         0      5427         1         0      5430         1         0
      5433         1         0      5436         1         0      5439         1         0
      5441         1         0      5443         1         0      5446         1         0
      5449         1         0      5452         1         0      5455         1         0
      5458         1         0      5461         1         0      5464         1         0
      5468         2         0      5484         2         0      5495         1         0
      5503         1         0      5512         1         0      5515         1         0
      5518         1         0      5521         1         0      5524         1         0
      5527         1         0      5530         1         0      5532         1         0
      5534         1         0      5537         1         0      5540         1         0
      5543         1         0      5546         1         0      5549         1         0
      5552         1         0      5555         1         0      5559         1         0
      5562         1         0      5565         1         0      5568         1         0
      5571         1         0      5574         1         0      5577         1         0
      5579         1         0      5581         1         0      5584         1         0
      5587         1         0      5590         1         0      5593         1         0
      5596         1         0      5599         1         0      5602         1         0
      5606         2         0      5622         2         0      5633         1         0
      5641         1         0      5650         1         0      5653         1         0
      5656         1         0      5659         1         0      5662         1         0
      5665         1         0      5668         1         0      5670         1         0
      5672         1         0      5675         1         0      5678         1         0
      5681         1         0      5684         1         0      5687         1         0
      5690         1         0      5693         1         0      5697         1         0
      5700         1         0      5703         1         0      5706         1         0
      5709         1         0      5712         1         0      5715         1         0
      5717         1         0      5719         1         0      5722         1         0
      5725         1         0      5728         1         0      5731         1         0
      5734         1         0      5737         1         0      5740         1         0
      5744         2         0      5760         2         0      5771         1         0
      5779         1         0      5788         1         0      5791         1         0
      5794         1         0      5797         1         0      5800         1         0
      5803         1         0      5806         1         0      5808         1         0
      5810         1         0      5813         1         0      5816         1         0
      5819         1         0      5822         1         0      5825         1         0
      5828         1         0      5831         1         0      5835         1         0
      5838         1         0      5841         1         0      5844         1         0
      5847         1         0      5850         1         0      5853         1         0
      5855         1         0      5857         1         0      5860         1         0
      5863         1         0      5866         1         0      5869         1         0
      5872         1         0      5875         1         0      5878         1         0
      5882         2         0      5898         2         0      5909         1         0
      5917         1         0      5926         1         0      5929         1         0
      5932         1         0      5935         1         0      5938         1         0
      5941         1         0      5944         1         0      5946         1         0
      5948         1         0      5951         1         0      5954         1         0
      5957         1         0      5960         1         0      5963         1         0
      5966         1         0      5969         1         0      5973         1         0
      5976         1         0      5979         1         0      5982         1         0
      5985         1         0      5988         1         0      5991         1         0
      5993         1         0      5995         1         0      5998         1         0
      6001         1         0      6004         1         0      6007         1         0
      6010         1         0      6013         1         0      6016         1         0
      6020         2         0      6036         2         0      6047         1         0
      6055         1         0      6064         1         0      6067         1         0
      6070         1         0      6073         1         0      6076         1         0
      6079         1         0      6082         1         0      6084         1         0
      6086         1         0      6089         1         0      6092         1         0
      6095         1         0      6098         1         0      6101         1         0
      6104         1         0      6107         1         0      6111         1         0
      6114         1         0      6117         1         0      6120         1         0
      6123         1         0      6126         1         0      6129         1         0
      6131         1         0      6133         1         0      6136         1         0
      6139         1         0      6142         1         0      6145         1         0
      6148         1         0      6151         1         0      6154         1         0
      6158         2         0      6174         2         0      6185         1         0
      6193         1         0      6202         1         0      6205         1         0
      6208         1         0      6211         1         0      6214         1         0
      6217         1         0      6220         1         0      6222         1         0
      6224         1         0      6227         1         0      6230         1         0
      6233         1         0      6236         1         0      6239         1         0
      6242         1         0      6245         1         0      6249         1         0
      6252         1         0      6255         1         0      6258         1         0
      6261         1         0      6264         1         0      6267         1         0
      6269         1         0      6271         1         0      6274         1         0
      6277         1         0      6280         1         0      6283         1         0
      6286         1         0      6289         1         0      6292         1         0
      6296         2         0      6312         2         0      6323         1         0
      6331         1         0      6340         1         0      6343         1         0
      6346         1         0      6349         1         0      6352         1         0
      6355         1         0      6358         1         0      6360         1         0
      6362         1         0      6365         1         0      6368         1         0
      6371         1         0      6374         1         0      6377         1         0
      6380         1         0      6383         1         0      6387         1         0
      6390         1         0      6393         1         0      6396         1         0
      6399         1         0      6402         1         0      6405         1         0
      6407         1         0      6409         1         0      6412         1         0
      6415         1         0      6418         1         0      6421         1         0
      6424         1         0      6427         1         0      6430         1         0
      6434         2         0      6450         2         0      6461         1         0
      6469         1         0      6478         1         0      6481         1         0
      6484         1         0      6487         1         0      6490         1         0
      6493         1         0      6496         1         0      6498         1         0
      6500         1         0      6503         1         0      6506         1         0
      6509         1         0      6512         1         0      6515         1         0
      6518         1         0      6521         1         0      6525         1         0
      6528         1         0      6531         1         0      6534         1         0
      6537         1         0      6540         1         0      6543         1         0
      6545         1         0      6547         1         0      6550         1         0
      6553         1         0      6556         1         0      6559         1         0
      6562         1         0      6565         1         0      6568         1         0
      6572         2         0      6588         2         0      6599         1         0
      6607         1         0      6616         1         0      6619         1         0
      6622         1         0      6625         1         0      6628         1         0
      6631         1         0      6634         1         0      6636         1         0
      6638         1         0      6641         1         0      6644         1         0
      6647         1         0      6650         1         0      6653         1         0
      6656         1         0      6659         1         0      6663         1         0
      6666         1         0      6669         1         0      6672         1         0
      6675         1         0      6678         1         0      6681         1         0
      6683         1         0      6685         1         0      6688         1         0
      6691         1         0      6694         1         0      6697         1         0
      6700         1         0      6703         1         0      6706         1         0
      6710         2         0      6726         2         0      6737         1         0
      6745         1         0      6754         1         0      6757         1         0
      6760         1         0      6763         1         0      6766         1         0
      6769         1         0      6772         1         0      6774         1         0
      6776         1         0      6779         1         0      6782         1         0
      6785         1         0      6788         1         0      6791         1         0
      6794         1         0      6797         1         0      6801         1         0
      6804         1         0      6807         1         0      6810         1         0
      6813         1         0      6816         1         0      6819         1         0
      6821         1         0      6823         1         0      6826         1         0
      6829         1         0      6832         1         0      6835         1         0
      6838         1         0      6841         1         0      6844         1         0
      6848         2         0      6864         2         0      6875         1         0
      6883         1         0      6892         1         0      6895         1         0
      6898         1         0      6901         1         0      6904         1         0
      6907         1         0      6910         1         0      6912         1         0
      6914         1         0      6917         1         0      6920         1         0
      6923         1         0      6926         1         0      6929         1         0
      6932         1         0      6935         1         0      6939         1         0
      6942         1         0      6945         1         0      6948         1         0
      6951         1         0      6954         1         0      6957         1         0
      6959         1         0      6961         1         0      6964         1         0
      6967         1         0      6970         1         0      6973         1         0
      6976         1         0      6979         1         0      6982         1         0
      6986         2         0      7002         2         0      7013         1         0
      7021         1         0      7030         1         0      7033         1         0
      7036         1         0      7039         1         0      7042         1         0
      7045         1         0      7048         1         0      7050         1         0
      7052         1         0      7055         1         0      7058         1         0
      7061         1         0      7064         1         0      7067         1         0
      7070         1         0      7073         1         0      7077         1         0
      7080         1         0      7083         1         0      7086         1         0
      7089         1         0      7092         1         0      7095         1         0
      7097         1         0      7099         1         0      7102         1         0
      7105         1         0      7108         1         0      7111         1         0
      7114         1         0      7117         1         0      7120         1         0
      7124         2         0      7140         2         0      7151         1         0
      7159         1         0      7168         1         0      7171         1         0
      7174         1         0      7177         1         0      7180         1         0
      7183         1         0      7186         1         0      7188         1         0
      7190         1         0      7193         1         0      7196         1         0
      7199         1         0      7202         1         0      7205         1         0
      7208         1         0      7211         1         0      7215         1         0
      7218         1         0      7221         1         0      7224         1         0
      7227         1         0      7230         1         0      7233         1         0
      7235         1         0      7237         1         0      7240         1         0
      7243         1         0      7246         1         0      7249         1         0
      7252         1         0      7255         1         0      7258         1         0
      7262         2         0      7278         2         0      7289         1         0
      7297         1         0      7306         1         0      7309         1         0
      7312         1         0      7315         1         0      7318         1         0
      7321         1         0      7324         1         0      7326         1         0
      7328         1         0      7331         1         0      7334         1         0
      7337         1         0      7340         1         0      7343         1         0
      7346         1         0      7349         1         0      7353         1         0
      7356         1         0      7359         1         0      7362         1         0
      7365         1         0      7368         1         0      7371         1         0
      7373         1         0      7375         1         0      7378         1         0
      7381         1         0      7384         1         0      7387         1         0
      7390         1         0      7393         1         0      7396         1         0
      7400         2         0      7416         2         0      7427         1         0
      7435         1         0      7444         1         0      7447         1         0
      7450         1         0      7453         1         0      7456         1         0
      7459         1         0      7462         1         0      7464         1         0
      7466         1         0      7469         1         0      7472         1         0
      7475         1         0      7478         1         0      7481         1         0
      7484         1         0      7487         1         0      7491         1         0
      7494         1         0      7497         1         0      7500         1         0
      7503         1         0      7506         1         0      7509         1         0
      7511         1         0      7513         1         0      7516         1         0
      7519         1         0      7522         1         0      7525         1         0
      7528         1         0      7531         1         0      7534         1         0
      7538         2         0      7554         2         0      7565         1         0
      7573         1         0      7582         1         0      7585         1         0
      7588         1         0      7591         1         0      7594         1         0
      7597         1         0      7600         1         0      7602         1         0
      7604         1         0      7607         1         0      7610         1         0
      7613         1         0      7616         1         0      7619         1         0
      7622         1         0      7625         1         0      7629         1         0
      7632         1         0      7635         1         0      7638         1         0
      7641         1         0      7644         1         0      7647         1         0
      7649         1         0      7651         1         0      7654         1         0
      7657         1         0      7660         1         0      7663         1         0
      7666         1         0      7669         1         0      7672         1         0
      7676         2         0      7692         2         0      7703         1         0
      7711         1         0      7720         1         0      7723         1         0
      7726         1         0      7729         1         0      7732         1         0
      7735         1         0      7738         1         0      7740         1         0
      7742         1         0      7745         1         0      7748         1         0
      7751         1         0      7754         1         0      7757         1         0
      7760         1         0      7763         1         0      7767         1         0
      7770         1         0      7773         1         0      7776         1         0
      7779         1         0      7782         1         0      7785         1         0
      7787         1         0      7789         1         0      7792         1         0
      7795         1         0      7798         1         0      7801         1         0
      7804         1         0      7807         1         0      7810         1         0
      7814         2         0      7830         2         0      7841         1         0
      7849         1         0      7858         1         0      7861         1         0
      7864         1         0      7867         1         0      7870         1         0
      7873         1         0      7876         1         0      7878         1         0
      7880         1         0      7883         1         0      7886         1         0
      7889         1         0      7892         1         0      7895         1         0
      7898         1         0      7901         1         0      7905         1         0
      7908         1         0      7911         1         0      7914         1         0
      7917         1         0      7920         1         0      7923         1         0
      7925         1         0      7927         1         0      7930         1         0
      7933         1         0      7936         1         0      7939         1         0
      7942         1         0      7945         1         0      7948         1         0
      7952         2         0      7968         2         0      7979         1         0
      7987         1         0      7996         1         0      7999         1         0
      8002         1         0      8005         1         0      8008         1         0
      8011         1         0      8014         1         0      8016         1         0
      8018         1         0      8021         1         0      8024         1         0
      8027         1         0      8030         1         0      8033         1         0
      8036         1         0      8039         1         0      8043         1         0
      8046         1         0      8049         1         0      8052         1         0
      8055         1         0      8058         1         0      8061         1         0
      8063         1         0      8065         1         0      8068         1         0
      8071         1         0      8074         1         0      8077         1         0
      8080         1         0      8083         1         0      8086         1         0
      8090         2         0      8106         2         0      8117         1         0
      8125         1         0      8134         1         0      8137         1         0
      8140         1         0      8143         1         0      8146         1         0
      8149         1         0      8152         1         0      8154         1         0
      8156         1         0      8159         1         0      8162         1         0
      8165         1         0      8168         1         0      8171         1         0
      8174         1         0      8177         1         0      8181         1         0
      8184         1         0      8187         1         0      8190         1         0
      8193         1         0      8196         1         0      8199         1         0
      8201         1         0      8203         1         0      8206         1         0
      8209         1         0      8212         1         0      8215         1         0
      8218         1         0      8221         1         0      8224         1         0
      8228         2         0      8244         2         0      8255         1         0
      8263         1         0      8272         1         0      8275         1         0
      8278         1         0      8281         1         0      8284         1         0
      8287         1         0      8290         1         0      8292         1         0
      8294         1         0      8297         1         0      8300         1         0
      8303         1         0      8306         1         0      8309         1         0
      8312         1         0      8315         1         0      8319         1         0
      8322         1         0      8325         1         0      8328         1         0
      8331         1         0      8334         1         0      8337         1         0
      8339         1         0      8341         1         0      8344         1         0
      8347         1         0      8350         1         0      8353         1         0
      8356         1         0      8359         1         0      8362         1         0
      8366         2         0      8382         2         0      8393         1         0
      8401         1         0      8410         1         0      8413         1         0
      8416         1         0      8419         1         0      8422         1         0
      8425         1         0      8428         1         0      8430         1         0
      8432         1         0      8435         1         0      8438         1         0
      8441         1         0      8444         1         0      8447         1         0
      8450         1         0      8453         1         0      8457         1         0
      8460         1         0      8463         1         0      8466         1         0
      8469         1         0      8472         1         0      8475         1         0
      8477         1         0      8479         1         0      8482         1         0
      8485         1         0      8488         1         0      8491         1         0
      8494         1         0      8497         1         0      8500         1         0
      8504         2         0      8520         2         0      8531         1         0
      8539         1         0      8548         1         0      8551         1         0
      8554         1         0      8557         1         0      8560         1         0
      8563         1         0      8566         1         0      8568         1         0
      8570         1         0      8573         1         0      8576         1         0
      8579         1         0      8582         1         0      8585         1         0
      8588         1         0      8591         1         0      8595         1         0
      8598         1         0      8601         1         0      8604         1         0
      8607         1         0      8610         1         0      8613         1         0
      8615         1         0      8617         1         0      8620         1         0
      8623         1         0      8626         1         0      8629         1         0
      8632         1         0      8635         1         0      8638         1         0
      8642         2         0      8658         2         0      8669         1         0
      8677         1         0      8686         1         0      8689         1         0
      8692         1         0      8695         1         0      8698         1         0
      8701         1         0      8704         1         0      8706         1         0
      8708         1         0      8711         1         0      8714         1         0
      8717         1         0      8720         1         0      8723         1         0
      8726         1         0      8729         1         0      8733         1         0
      8736         1         0      8739         1         0      8742         1         0
      8745         1         0      8748         1         0      8751         1         0
      8753         1         0      8755         1         0      8758         1         0
      8761         1         0      8764         1         0      8767         1         0
      8770         1         0      8773         1         0      8776         1         0
      8780         2         0      8796         2         0      8807         1         0
      8815         1         0      8824         1         0      8827         1         0
      8830         1         0      8833         1         0      8836         1         0
      8839         1         0      8842         1         0      8844         1         0
      8846         1         0      8849         1         0      8852         1         0
      8855         1         0      8858         1         0      8861         1         0
      8864         1         0      8867         1         0      8871         1         0
      8874         1         0      8877         1         0      8880         1         0
      8883         1         0      8886         1         0      8889         1         0
      8891         1         0      8893         1         0      8896         1         0
      8899         1         0      8902         1         0      8905         1         0
      8908         1         0      8911         1         0      8914         1         0
      8918         2         0      8934         2         0      8945         1         0
      8953         1         0      8962         1         0      8965         1         0
      8968         1         0      8971         1         0      8974         1         0
      8977         1         0      8980         1         0      8982         1         0
      8984         1         0      8987         1         0      8990         1         0
      8993         1         0      8996         1         0      8999         1         0
      9002         1         0      9005         1         0      9009         1         0
      9012         1         0      9015         1         0      9018         1         0
      9021         1         0      9024         1         0      9027         1         0
      9029         1         0      9031         1         0      9034         1         0
      9037         1         0      9040         1         0      9043         1         0
      9046         1         0      9049         1         0      9052         1         0
      9056         2         0      9072         2         0      9083         1         0
      9091         1         0      9100         1         0      9103         1         0
      9106         1         0      9109         1         0      9112         1         0
      9115         1         0      9118         1         0      9120         1         0
      9122         1         0      9125         1         0      9128         1         0
      9131         1         0      9134         1         0      9137         1         0
      9140         1         0      9143         1         0      9147         1         0
      9150         1         0      9153         1         0      9156         1         0
      9159         1         0      9162         1         0      9165         1         0
      9167         1         0      9169         1         0      9172         1         0
      9175         1         0      9178         1         0      9181         1         0
      9184         1         0      9187         1         0      9190         1         0
      9194         2         0      9210         2         0      9221         1         0
      9229         1         0      9238         1         0      9241         1         0
      9244         1         0      9247         1         0      9250         1         0
      9253         1         0      9256         1         0      9258         1         0
      9260         1         0      9263         1         0      9266         1         0
      9269         1         0      9272         1         0      9275         1         0
      9278         1         0      9281         1         0      9285         1         0
      9288         1         0      9291         1         0      9294         1         0
      9297         1         0      9300         1         0      9303         1         0
      9305         1         0      9307         1         0      9310         1         0
      9313         1         0      9316         1         0      9319         1         0
      9322         1         0      9325         1         0      9328         1         0
      9332         2         0      9348         2         0      9359         1         0
      9367         1         0      9376         1         0      9379         1         0
      9382         1         0      9385         1         0      9388         1         0
      9391         1         0      9394         1         0      9396         1         0
      9398         1         0      9401         1         0      9404         1         0
      9407         1         0      9410         1         0      9413         1         0
      9416         1         0      9419         1         0      9423         1         0
      9426         1         0      9429         1         0      9432         1         0
      9435         1         0      9438         1         0      9441         1         0
      9443         1         0      9445         1         0      9448         1         0
      9451         1         0      9454         1         0      9457         1         0
      9460         1         0      9463         1         0      9466         1         0
      9470         2         0      9486         2         0      9497         1         0
      9505         1         0      9514         1         0      9517         1         0
      9520         1         0      9523         1         0      9526         1         0
      9529         1         0      9532         1         0      9534         1         0
      9536         1         0      9539         1         0      9542         1         0
      9545         1         0      9548         1         0      9551         1         0
      9554         1         0      9557         1         0      9561         1         0
      9564         1         0      9567         1         0      9570         1         0
      9573         1         0      9576         1         0      9579         1         0
      9581         1         0      9583         1         0      9586         1         0
      9589         1         0      9592         1         0      9595         1         0
      9598         1         0      9601         1         0      9604         1         0
      9608         2         0      9624         2         0      9635         1         0
      9643         1         0      9652         1         0      9655         1         0
      9658         1         0      9661         1         0      9664         1         0
      9667         1         0      9670         1         0      9672         1         0
      9674         1         0      9677         1         0      9680         1         0
      9683         1         0      9686         1         0      9689         1         0
      9692         1         0      9695         1         0      9699         1         0
      9702         1         0      9705         1         0      9708         1         0
      9711         1         0      9714         1         0      9717         1         0
      9719         1         0      9721         1         0      9724         1         0
      9727         1         0      9730         1         0      9733         1         0
      9736         1         0      9739         1         0      9742         1         0
      9746         2         0      9762         2         0      9773         1         0
      9781         1         0      9790         1         0      9793         1         0
      9796         1         0      9799         1         0      9802         1         0
      9805         1         0      9808         1         0      9810         1         0
      9812         1         0      9815         1         0      9818         1         0
      9821         1         0      9824         1         0      9827         1         0
      9830         1         0      9833         1         0      9837         1         0
      9840         1         0      9843         1         0      9846         1         0
      9849         1         0      9852         1         0      9855         1         0
      9857         1         0      9859         1         0      9862         1         0
      9865         1         0      9868         1         0      9871         1         0
      9874         1         0      9877         1         0      9880         1         0
      9884         2         0      9900         2         0      9911         1         0
      9919         1         0      9928         1         0      9931         1         0
      9934         1         0      9937         1         0      9940         1         0
      9943         1         0      9946         1         0      9948         1         0
      9950         1         0      9953         1         0      9956         1         0
      9959         1         0      9962         1         0      9965         1         0
      9968         1         0      9971         1         0      9975         1         0
      9978         1         0      9981         1         0      9984         1         0
      9987         1         0      9990         1         0      9993         1         0
      9995         1         0      9997         1         0     10000         1         0
     10003         1         0     10006         1         0     10009         1         0
     10012         1         0     10015         1         0     10018         1         0
     10022         2         0     10038         2         0     10049         1         0
     10057         1         0     10066         1         0     10069         1         0
     10072         1         0     10075         1         0     10078         1         0
     10081         1         0     10084         1         0     10086         1         0
     10088         1         0     10091         1         0     10094         1         0
     10097         1         0     10100         1         0     10103         1         0
     10106         1         0     10109         1         0     10113         1         0
     10116         1         0     10119         1         0     10122         1         0
     10125         1         0     10128         1         0     10131         1         0
     10133         1         0     10135         1         0     10138         1         0
     10141         1         0     10144         1         0     10147         1         0
     10150         1         0     10153         1         0     10156         1         0
     10160         2         0     10176         2         0     10187         1         0
     10195         1         0     10204         1         0     10207         1         0
     10210         1         0     10213         1         0     10216         1         0
     10219         1         0     10222         1         0     10224         1         0
     10226         1         0     10229         1         0     10232         1         0
     10235         1         0     10238         1         0     10241         1         0
     10244         1         0     10247         1         0     10251         1         0
     10254         1         0     10257         1         0     10260         1         0
     10263         1         0     10266         1         0     10269         1         0
     10271         1         0     10273         1         0     10276         1         0
     10279         1         0     10282         1         0     10285         1         0
     10288         1         0     10291         1         0     10294         1         0
     10298         2         0     10314         2         0     10325         1         0
     10333         1         0     10342         1         0     10345         1         0
     10348         1         0     10351         1         0     10354         1         0
     10357         1         0     10360         1         0     10362         1         0
     10364         1         0     10367         1         0     10370         1         0
     10373         1         0     10376         1         0     10379         1         0
     10382         1         0     10385         1         0     10389         1         0
     10392         1         0     10395         1         0     10398         1         0
     10401         1         0     10404         1         0     10407         1         0
     10409         1         0     10411         1         0     10414         1         0
     10417         1         0     10420         1         0     10423         1         0
     10426         1         0     10429         1         0     10432         1         0
     10436         2         0     10452         2         0     10463         1         0
     10471         1         0     10480         1         0     10483         1         0
     10486         1         0     10489         1         0     10492         1         0
     10495         1         0     10498         1         0     10500         1         0
     10502         1         0     10505         1         0     10508         1         0
     10511         1         0     10514         1         0     10517         1         0
     10520         1         0     10523         1         0     10527         1         0
     10530         1         0     10533         1         0     10536         1         0
     10539         1         0     10542         1         0     10545         1         0
     10547         1         0     10549         1         0     10552         1         0
     10555         1         0     10558         1         0     10561         1         0
     10564         1         0     10567         1         0     10570         1         0
     10574         2         0     10590         2         0     10601         1         0
     10609         1         0     10618         1         0     10621         1         0
     10624         1         0     10627         1         0     10630         1         0
     10633         1         0     10636         1         0     10638         1         0
     10640         1         0     10643         1         0     10646         1         0
     10649         1         0     10652         1         0     10655         1         0
     10658         1         0     10661         1         0     10665         1         0
     10668         1         0     10671         1         0     10674         1         0
     10677         1         0     10680         1         0     10683         1         0
     10685         1         0     10687         1         0     10690         1         0
     10693         1         0     10696         1         0     10699         1         0
     10702         1         0     10705         1         0     10708         1         0
     10712         2         0     10728         2         0     10739         1         0
     10747         1         0     10756         1         0     10759         1         0
     10762         1         0     10765         1         0     10768         1         0
     10771         1         0     10774         1         0     10776         1         0
     10778         1         0     10781         1         0     10784         1         0
     10787         1         0     10790         1         0     10793         1         0
     10796         1         0     10799         1         0     10803         1         0
     10806         1         0     10809         1         0     10812         1         0
     10815         1         0     10818         1         0     10821         1         0
     10823         1         0     10825         1         0     10828         1         0
     10831         1         0     10834         1         0     10837         1         0
     10840         1         0     10843         1         0     10846         1         0
     10850         2         0     10866         2         0     10877         1         0
     10885         1         0     10894         1         0     10897         1         0
     10900         1         0     10903         1         0     10906         1         0
     10909         1         0     10912         1         0     10914         1         0
     10916         1         0     10919         1         0     10922         1         0
     10925         1         0     10928         1         0     10931         1         0
     10934         1         0     10937         1         0     10941         1         0
     10944         1         0     10947         1         0     10950         1         0
     10953         1         0     10956         1         0     10959         1         0
     10961         1         0     10963         1         0     10966         1         0
     10969         1         0     10972         1         0     10975         1         0
     10978         1         0     10981         1         0     10984         1         0
     10988         2         0     11004         2         0     11015         1         0
     11023         1         0     11032         1         0     11035         1         0
     11038         1         0     11041         1         0     11044         1         0
     11047         1         0     11050         1         0     11052         1         0
     11054         1         0     11057         1         0     11060         1         0
     11063         1         0     11066         1         0     11069         1         0
     11072         1         0     11075         1         0     11079         1         0
     11082         1         0     11085         1         0     11088         1         0
     11091         1         0     11094         1         0     11097         1         0
     11099         1         0     11101         1         0     11104         1         0
     11107         1         0     11110         1         0     11113         1         0
     11116         1         0     11119         1         0     11122         1         0
     11126         2         0     11142         2         0     11153         1         0
     11161         1         0     11170         1         0     11173         1         0
     11176         1         0     11179         1         0     11182         1         0
     11185         1         0     11188         1         0     11190         1         0
     11192         1         0     11195         1         0     11198         1         0
     11201         1         0     11204         1         0     11207         1         0
     11210         1         0     11213         1         0     11217         1         0
     11220         1         0     11223         1         0     11226         1         0
     11229         1         0     11232         1         0     11235         1         0
     11237         1         0     11239         1         0     11242         1         0
     11245         1         0     11248         1         0     11251         1         0
     11254         1         0     11257         1         0     11260         1         0
     11264         2         0     11280         2         0     11291         1         0
     11299         1         0     11308         1         0     11311         1         0
     11314         1         0     11317         1         0     11320         1         0
     11323         1         0     11326         1         0     11328         1         0
     11330         1         0     11333         1         0     11336         1         0
     11339         1         0     11342         1         0     11345         1         0
     11348         1         0     11351         1         0     11355         1         0
     11358         1         0     11361         1         0     11364         1         0
     11367         1         0     11370         1         0     11373         1         0
     11375         1         0     11377         1         0     11380         1         0
     11383         1         0     11386         1         0     11389         1         0
     11392         1         0     11395         1         0     11398         1         0
     11402         2         0     11418         2         0     11429         1         0
     11437         1         0     11446         1         0     11449         1         0
     11452         1         0     11455         1         0     11458         1         0
     11461         1         0     11464         1         0     11466         1         0
     11468         1         0     11471         1         0     11474         1         0
     11477         1         0     11480         1         0     11483         1         0
     11486         1         0     11489         1         0     11493         1         0
     11496         1         0     11499         1         0     11502         1         0
     11505         1         0     11508         1         0     11511         1         0
     11513         1         0     11515         1         0     11518         1         0
     11521         1         0     11524         1         0     11527         1         0
     11530         1         0     11533         1         0     11536         1         0
     11540         2         0     11556         2         0     11567         1         0
     11575         1         0     11584         1         0     11587         1         0
     11590         1         0     11593         1         0     11596         1         0
     11599         1         0     11602         1         0     11604         1         0
     11606         1         0     11609         1         0     11612         1         0
     11615         1         0     11618         1         0     11621         1         0
     11624         1         0     11627         1         0     11631         1         0
     11634         1         0     11637         1         0     11640         1         0
     11643         1         0     11646         1         0     11649         1         0
     11651         1         0     11653         1         0     11656         1         0
     11659         1         0     11662         1         0     11665         1         0
     11668         1         0     11671         1         0     11674         1         0
     11678         2         0     11694         2         0     11705         1         0
     11713         1         0     11722         1         0     11725         1         0
     11728         1         0     11731         1         0     11734         1         0
     11737         1         0     11740         1         0     11742         1         0
     11744         1         0     11747         1         0     11750         1         0
     11753         1         0     11756         1         0     11759         1         0
     11762         1         0     11765         1         0     11769         1         0
     11772         1         0     11775         1         0     11778         1         0
     11781         1         0     11784         1         0     11787         1         0
     11789         1         0     11791         1         0     11794         1         0
     11797         1         0     11800         1         0     11803         1         0
     11806         1         0     11809         1         0     11812         1         0
     11816         2         0     11832         2         0     11843         1         0
     11851         1         0     11860         1         0     11863         1         0
     11866         1         0     11869         1         0     11872         1         0
     11875         1         0     11878         1         0     11880         1         0
     11882         1         0     11885         1         0     11888         1         0
     11891         1         0     11894         1         0     11897         1         0
     11900         1         0     11903         1         0     11907         1         0
     11910         1         0     11913         1         0     11916         1         0
     11919         1         0     11922         1         0     11925         1         0
     11927         1         0     11929         1         0     11932         1         0
     11935         1         0     11938         1         0     11941         1         0
     11944         1         0     11947         1         0     11950         1         0
     11954         2         0     11970         2         0     11981         1         0
     11989         1         0     11998         1         0     12001         1         0
     12004         1         0     12007         1         0     12010         1         0
     12013         1         0     12016         1         0     12018         1         0
     12020         1         0     12023         1         0     12026         1         0
     12029         1         0     12032         1         0     12035         1         0
     12038         1         0     12041         1         0     12045         1         0
     12048         1         0     12051         1         0     12054         1         0
     12057         1         0     12060         1         0     12063         1         0
     12065         1         0     12067         1         0     12070         1         0
     12073         1         0     12076         1         0     12079         1         0
     12082         1         0     12085         1         0     12088         1         0
     12092         2         0     12108         2         0     12119         1         0
     12127         1         0     12136         1         0     12139         1         0
     12142         1         0     12145         1         0     12148         1         0
     12151         1         0     12154         1         0     12156         1         0
     12158         1         0     12161         1         0     12164         1         0
     12167         1         0     12170         1         0     12173         1         0
     12176         1         0     12179         1         0     12183         1         0
     12186         1         0     12189         1         0     12192         1         0
     12195         1         0     12198         1         0     12201         1         0
     12203         1         0     12205         1         0     12208         1         0
     12211         1         0     12214         1         0     12217         1         0
     12220         1         0     12223         1         0     12226         1         0
     12230         2         0     12246         2         0     12257         1         0
     12265         1         0     12274         1         0     12277         1         0
     12280         1         0     12283         1         0     12286         1         0
     12289         1         0     12292         1         0     12294         1         0
     12296         1         0     12299         1         0     12302         1         0
     12305         1         0     12308         1         0     12311         1         0
     12314         1         0     12317         1         0     12321         1         0
     12324         1         0     12327         1         0     12330         1         0
     12333         1         0     12336         1         0     12339         1         0
     12341         1         0     12343         1         0     12346         1         0
     12349         1         0     12352         1         0     12355         1         0
     12358         1         0     12361         1         0     12364         1         0
     12368         2         0     12384         2         0     12395         1         0
     12403         1         0     12412         1         0     12415         1         0
     12418         1         0     12421         1         0     12424         1         0
     12427         1         0     12430         1         0     12432         1         0
     12434         1         0     12437         1         0     12440         1         0
     12443         1         0     12446         1         0     12449         1         0
     12452         1         0     12455         1         0     12459         1         0
     12462         1         0     12465         1         0     12468         1         0
     12471         1         0     12474         1         0     12477         1         0
     12479         1         0     12481         1         0     12484         1         0
     12487         1         0     12490         1         0     12493         1         0
     12496         1         0     12499         1         0     12502         1         0
     12506         2         0     12522         2         0     12533         1         0
     12541         1         0     12550         1         0     12553         1         0
     12556         1         0     12559         1         0     12562         1         0
     12565         1         0     12568         1         0     12570         1         0
     12572         1         0     12575         1         0     12578         1         0
     12581         1         0     12584         1         0     12587         1         0
     12590         1         0     12593         1         0     12597         1         0
     12600         1         0     12603         1         0     12606         1         0
     12609         1         0     12612         1         0     12615         1         0
     12617         1         0     12619         1         0     12622         1         0
     12625         1         0     12628         1         0     12631         1         0
     12634         1         0     12637         1         0     12640         1         0
     12644         2         0     12660         2         0     12671         1         0
     12679         1         0     12688         1         0     12691         1         0
     12694         1         0     12697         1         0     12700         1         0
     12703         1         0     12706         1         0     12708         1         0
     12710         1         0     12713         1         0     12716         1         0
     12719         1         0     12722         1         0     12725         1         0
     12728         1         0     12731         1         0     12735         1         0
     12738         1         0     12741         1         0     12744         1         0
     12747         1         0     12750         1         0     12753         1         0
     12755         1         0     12757         1         0     12760         1         0
     12763         1         0     12766         1         0     12769         1         0
     12772         1         0     12775         1         0     12778         1         0
     12782         2         0     12798         2         0     12809         1         0
     12817         1         0     12826         1         0     12829         1         0
     12832         1         0     12835         1         0     12838         1         0
     12841         1         0     12844         1         0     12846         1         0
     12848         1         0     12851         1         0     12854         1         0
     12857         1         0     12860         1         0     12863         1         0
     12866         1         0     12869         1         0     12873         1         0
     12876         1         0     12879         1         0     12882         1         0
     12885         1         0     12888         1         0     12891         1         0
     12893         1         0     12895         1         0     12898         1         0
     12901         1         0     12904         1         0     12907         1         0
     12910         1         0     12913         1         0     12916         1         0
     12920         2         0     12936         2         0     12947         1         0
     12955         1         0     12964         1         0     12967         1         0
     12970         1         0     12973         1         0     12976         1         0
     12979         1         0     12982         1         0     12984         1         0
     12986         1         0     12989         1         0     12992         1         0
     12995         1         0     12998         1         0     13001         1         0
     13004         1         0     13007         1         0     13011         1         0
     13014         1         0     13017         1         0     13020         1         0
     13023         1         0     13026         1         0     13029         1         0
     13031         1         0     13033         1         0     13036         1         0
     13039         1         0     13042         1         0     13045         1         0
     13048         1         0     13051         1         0     13054         1         0
     13058         2         0     13074         2         0     13085         1         0
     13093         1         0     13102         1         0     13105         1         0
     13108         1         0     13111         1         0     13114         1         0
     13117         1         0     13120         1         0     13122         1         0
     13124         1         0     13127         1         0     13130         1         0
     13133         1         0     13136         1         0     13139         1         0
     13142         1         0     13145         1         0     13149         1         0
     13152         1         0     13155         1         0     13158         1         0
     13161         1         0     13164         1         0     13167         1         0
     13169         1         0     13171         1         0     13174         1         0
     13177         1         0     13180         1         0     13183         1         0
     13186         1         0     13189         1         0     13192         1         0
     13196         2         0     13212         2         0     13223         1         0
     13231         1         0     13240         1         0     13243         1         0
     13246         1         0     13249         1         0     13252         1         0
     13255         1         0     13258         1         0     13260         1         0
     13262         1         0     13265         1         0     13268         1         0
     13271         1         0     13274         1         0     13277         1         0
     13280         1         0     13283         1         0     13287         1         0
     13290         1         0     13293         1         0     13296         1         0
     13299         1         0     13302         1         0     13305         1         0
     13307         1         0     13309         1         0     13312         1         0
     13315         1         0     13318         1         0     13321         1         0
     13324         1         0     13327         1         0     13330         1         0
     13334         2         0     13350         2         0     13361         1         0
     13369         1         0     13378         1         0     13381         1         0
     13384         1         0     13387         1         0     13390         1         0
     13393         1         0     13396         1         0     13398         1         0
     13400         1         0     13403         1         0     13406         1         0
     13409         1         0     13412         1         0     13415         1         0
     13418         1         0     13421         1         0     13425         1         0
     13428         1         0     13431         1         0     13434         1         0
     13437         1         0     13440         1         0     13443         1         0
     13445         1         0     13447         1         0     13450         1         0
     13453         1         0     13456         1         0     13459         1         0
     13462         1         0     13465         1         0     13468         1         0
     13472         2         0     13488         2         0     13499         1         0
     13507         1         0     13516         1         0     13519         1         0
     13522         1         0     13525         1         0     13528         1         0
     13531         1         0     13534         1         0     13536         1         0
     13538         1         0     13541         1         0     13544         1         0
     13547         1         0     13550         1         0     13553         1         0
     13556         1         0     13559         1         0     13563         1         0
     13566         1         0     13569         1         0     13572         1         0
     13575         1         0     13578         1         0     13581         1         0
     13583         1         0     13585         1         0     13588         1         0
     13591         1         0     13594         1         0     13597         1         0
     13600         1         0     13603         1         0     13606         1         0
     13610         2         0     13626         2         0     13637         1         0
     13645         1         0     13654         1         0     13657         1         0
     13660         1         0     13663         1         0     13666         1         0
     13669         1         0     13672         1         0     13674         1         0
     13676         1         0     13679         1         0     13682         1         0
     13685         1         0     13688         1         0     13691         1         0
     13694         1         0     13697         1         0     13701         1         0
     13704         1         0     13707         1         0     13710         1         0
     13713         1         0     13716         1         0     13719         1         0
     13721         1         0     13723         1         0     13726         1         0
     13729         1         0     13732         1         0     13735         1         0
     13738         1         0     13741         1         0     13744         1         0
     13748         2         0     13764         2         0     13775         1         0
     13783         1         0     13792         1         0     13795         1         0
     13798         1         0     13801         1         0     13804         1         0
     13807         1         0     13810         1         0     13812         1         0
     13814         1         0     13817         1         0     13820         1         0
     13823         1         0     13826         1         0     13829         1         0
     13832         1         0     13835         1         0     13839         1         0
     13842         1         0     13845         1         0     13848         1         0
     13851         1         0     13854         1         0     13857         1         0
     13859         1         0     13861         1         0     13864         1         0
     13867         1         0     13870         1         0     13873         1         0
     13876         1         0     13879         1         0     13882         1         0
     13886         2         0     13902         2         0     13913         1         0
     13921         1         0     13930         1         0     13933         1         0
     13936         1         0     13939         1         0     13942         1         0
     13945         1         0     13948         1         0     13950         1         0
     13952         1         0     13955         1         0     13958         1         0
     13961         1         0     13964         1         0     13967         1         0
     13970         1         0     13973         1         0     13977         1         0
     13980         1         0     13983         1         0     13986         1         0
     13989         1         0     13992         1         0     13995         1         0
     13997         1         0     13999         1         0     14002         1         0
     14005         1         0     14008         1         0     14011         1         0
     14014         1         0     14017         1         0     14020         1         0
     14024         2         0     14040         2         0     14051         1         0
     14059         1         0     14068         1         0     14071         1         0
     14074         1         0     14077         1         0     14080         1         0
     14083         1         0     14086         1         0     14088         1         0
     14090         1         0     14093         1         0     14096         1         0
     14099         1         0     14102         1         0     14105         1         0
     14108         1         0     14111         1         0     14115         1         0
     14118         1         0     14121         1         0     14124         1         0
     14127         1         0     14130         1         0     14133         1         0
     14135         1         0     14137         1         0     14140         1         0
     14143         1         0     14146         1         0     14149         1         0
     14152         1         0     14155         1         0     14158         1         0
     14162         2         0     14178         2         0     14189         1         0
     14197         1         0     14206         1         0     14209         1         0
     14212         1         0     14215         1         0     14218         1         0
     14221         1         0     14224         1         0     14226         1         0
     14228         1         0     14231         1         0     14234         1         0
     14237         1         0     14240         1         0     14243         1         0
     14246         1         0     14249         1         0     14253         1         0
     14256         1         0     14259         1         0     14262         1         0
     14265         1         0     14268         1         0     14271         1         0
     14273         1         0     14275         1         0     14278         1         0
     14281         1         0     14284         1         0     14287         1         0
     14290         1         0     14293         1         0     14296         1         0
     14300         2         0     14316         2         0     14327         1         0
     14335         1         0     14344         1         0     14347         1         0
     14350         1         0     14353         1         0     14356         1         0
     14359         1         0     14362         1         0     14364         1         0
     14366         1         0     14369         1         0     14372         1         0
     14375         1         0     14378         1         0     14381         1         0
     14384         1         0     14387         1         0     14391         1         0
     14394         1         0     14397         1         0     14400         1         0
     14403         1         0     14406         1         0     14409         1         0
     14411         1         0     14413         1         0     14416         1         0
     14419         1         0     14422         1         0     14425         1         0
     14428         1         0     14431         1         0     14434         1         0
     14438         2         0     14454         2         0     14465         1         0
     14473         1         0     14482         1         0     14485         1         0
     14488         1         0     14491         1         0     14494         1         0
     14497         1         0     14500         1         0     14502         1         0
     14504         1         0     14507         1         0     14510         1         0
     14513         1         0     14516         1         0     14519         1         0
     14522         1         0     14525         1         0     14529         1         0
     14532         1         0     14535         1         0     14538         1         0
     14541         1         0     14544         1         0     14547         1         0
     14549         1         0     14551         1         0     14554         1         0
     14557         1         0     14560         1         0     14563         1         0
     14566         1         0     14569         1         0     14572         1         0
     14576         2         0     14592         2         0     14603         1         0
     14611         1         0     14620         1         0     14623         1         0
     14626         1         0     14629         1         0     14632         1         0
     14635         1         0     14638         1         0     14640         1         0
     14642         1         0     14645         1         0     14648         1         0
     14651         1         0     14654         1         0     14657         1         0
     14660         1         0     14663         1         0     14667         1         0
     14670         1         0     14673         1         0     14676         1         0
     14679         1         0     14682         1         0     14685         1         0
     14687         1         0     14689         1         0     14692         1         0
     14695         1         0     14698         1         0     14701         1         0
     14704         1         0     14707         1         0     14710         1         0
     14714         2         0     14730         2         0     14741         1         0
     14749         1         0     14758         1         0     14761         1         0
     14764         1         0     14767         1         0     14770         1         0
     14773         1         0     14776         1         0     14778         1         0
     14780         1         0     14783         1         0     14786         1         0
     14789         1         0     14792         1         0     14795         1         0
     14798         1         0     14801         1         0     14805         1         0
     14808         1         0     14811         1         0     14814         1         0
     14817         1         0     14820         1         0     14823         1         0
     14825         1         0     14827         1         0     14830         1         0
     14833         1         0     14836         1         0     14839         1         0
     14842         1         0     14845         1         0     14848         1         0
     14852         2         0     14868         2         0     14879         1         0
     14887         1         0     14896         1         0     14899         1         0
     14902         1         0     14905         1         0     14908         1         0
     14911         1         0     14914         1         0     14916         1         0
     14918         1         0     14921         1         0     14924         1         0
     14927         1         0     14930         1         0     14933         1         0
     14936         1         0     14939         1         0     14943         1         0
     14946         1         0     14949         1         0     14952         1         0
     14955         1         0     14958         1         0     14961         1         0
     14963         1         0     14965         1         0     14968         1         0
     14971         1         0     14974         1         0     14977         1         0
     14980         1         0     14983         1         0     14986         1         0
     14990         2         0     15006         2         0     15017         1         0
     15025         1         0     15034         1         0     15037         1         0
     15040         1         0     15043         1         0     15046         1         0
     15049         1         0     15052         1         0     15054         1         0
     15056         1         0     15059         1         0     15062         1         0
     15065         1         0     15068         1         0     15071         1         0
     15074         1         0     15077         1         0     15081         1         0
     15084         1         0     15087         1         0     15090         1         0
     15093         1         0     15096         1         0     15099         1         0
     15101         1         0     15103         1         0     15106         1         0
     15109         1         0     15112         1         0     15115         1         0
     15118         1         0     15121         1         0     15124         1         0
     15128         2         0     15144         2         0     15155         1         0
     15163         1         0     15172         1         0     15175         1         0
     15178         1         0     15181         1         0     15184         1         0
     15187         1         0     15190         1         0     15192         1         0
     15194         1         0     15197         1         0     15200         1         0
     15203         1         0     15206         1         0     15209         1         0
     15212         1         0     15215         1         0     15219         1         0
     15222         1         0     15225         1         0     15228         1         0
     15231         1         0     15234         1         0     15237         1         0
     15239         1         0     15241         1         0     15244         1         0
     15247         1         0     15250         1         0     15253         1         0
     15256         1         0     15259         1         0     15262         1         0
     15266         2         0     15282         2         0     15293         1         0
     15301         1         0     15310         1         0     15313         1         0
     15316         1         0     15319         1         0     15322         1         0
     15325         1         0     15328         1         0     15330         1         0
     15332         1         0     15335         1         0     15338         1         0
     15341         1         0     15344         1         0     15347         1         0
     15350         1         0     15353         1         0     15357         1         0
     15360         1         0     15363         1         0     15366         1         0
     15369         1         0     15372         1         0     15375         1         0
     15377         1         0     15379         1         0     15382         1         0
     15385         1         0     15388         1         0     15391         1         0
     15394         1         0     15397         1         0     15400         1         0
     15404         2         0     15420         2         0     15431         1         0
     15439         1         0     15448         1         0     15451         1         0
     15454         1         0     15457         1         0     15460         1         0
     15463         1         0     15466         1         0     15468         1         0
     15470         1         0     15473         1         0     15476         1         0
     15479         1         0     15482         1         0     15485         1         0
     15488         1         0     15491         1         0     15495         1         0
     15498         1         0     15501         1         0     15504         1         0
     15507         1         0     15510         1         0     15513         1         0
     15515         1         0     15517         1         0     15520         1         0
     15523         1         0     15526         1         0     15529         1         0
     15532         1         0     15535         1         0     15538         1         0
     15542         2         0     15558         2         0     15569         1         0
     15577         1         0     15586         1         0     15589         1         0
     15592         1         0     15595         1         0     15598         1         0
     15601         1         0     15604         1         0     15606         1         0
     15608         1         0     15611         1         0     15614         1         0
     15617         1         0     15620         1         0     15623         1         0
     15626         1         0     15629         1         0     15633         1         0
     15636         1         0     15639         1         0     15642         1         0
     15645         1         0     15648         1         0     15651         1         0
     15653         1         0     15655         1         0     15658         1         0
     15661         1         0     15664         1         0     15667         1         0
     15670         1         0     15673         1         0     15676         1         0
     15680         2         0     15696         2         0     15707         1         0
     15715         1         0     15724         1         0     15727         1         0
     15730         1         0     15733         1         0     15736         1         0
     15739         1         0     15742         1         0     15744         1         0
     15746         1         0     15749         1         0     15752         1         0
     15755         1         0     15758         1         0     15761         1         0
     15764         1         0     15767         1         0     15771         1         0
     15774         1         0     15777         1         0     15780         1         0
     15783         1         0     15786         1         0     15789         1         0
     15791         1         0     15793         1         0     15796         1         0
     15799         1         0     15802         1         0     15805         1         0
     15808         1         0     15811         1         0     15814         1         0
     15818         2         0     15834         2         0     15845         1         0
     15853         1         0     15862         1         0     15865         1         0
     15868         1         0     15871         1         0     15874         1         0
     15877         1         0     15880         1         0     15882         1         0
     15884         1         0     15887         1         0     15890         1         0
     15893         1         0     15896         1         0     15899         1         0
     15902         1         0     15905         1         0     15909         1         0
     15912         1         0     15915         1         0     15918         1         0
     15921         1         0     15924         1         0     15927         1         0
     15929         1         0     15931         1         0     15934         1         0
     15937         1         0     15940         1         0     15943         1         0
     15946         1         0     15949         1         0     15952         1         0
     15956         2         0     15972         2         0     15983         1         0
     15991         1         0     16000         1         0     16003         1         0
     16006         1         0     16009         1         0     16012         1         0
     16015         1         0     16018         1         0     16020         1         0
     16022         1         0     16025         1         0     16028         1         0
     16031         1         0     16034         1         0     16037         1         0
     16040         1         0     16043         1         0     16047         1         0
     16050         1         0     16053         1         0     16056         1         0
     16059         1         0     16062         1         0     16065         1         0
     16067         1         0     16069         1         0     16072         1         0
     16075         1         0     16078         1         0     16081         1         0
     16084         1         0     16087         1         0     16090         1         0
     16094         2         0     16110         2         0     16121         1         0
     16129         1         0     16138         1         0     16141         1         0
     16144         1         0     16147         1         0     16150         1         0
     16153         1         0     16156         1         0     16158         1         0
     16160         1         0     16163         1         0     16166         1         0
     16169         1         0     16172         1         0     16175         1         0
     16178         1         0     16181         1         0     16185         1         0
     16188         1         0     16191         1         0     16194         1         0
     16197         1         0     16200         1         0     16203         1         0
     16205         1         0     16207         1         0     16210         1         0
     16213         1         0     16216         1         0     16219         1         0
     16222         1         0     16225         1         0     16228         1         0
     16232         2         0     16248         2         0     16259         1         0
     16267         1         0     16276         1         0     16279         1         0
     16282         1         0     16285         1         0     16288         1         0
     16291         1         0     16294         1         0     16296         1         0
     16298         1         0     16301         1         0     16304         1         0
     16307         1         0     16310         1         0     16313         1         0
     16316         1         0     16319         1         0     16323         1         0
     16326         1         0     16329         1         0     16332         1         0
     16335         1         0     16338         1         0     16341         1         0
     16343         1         0     16345         1         0     16348         1         0
     16351         1         0     16354         1         0     16357         1         0
     16360         1         0     16363         1         0     16366         1         0
     16370         2         0     16386         2         0     16397         1         0
     16405         1         0     16414         1         0     16417         1         0
     16420         1         0     16423         1         0     16426         1         0
     16429         1         0     16432         1         0     16434         1         0
     16436         1         0     16439         1         0     16442         1         0
     16445         1         0     16448         1         0     16451         1         0
     16454         1         0     16457         1         0     16461         1         0
     16464         1         0     16467         1         0     16470         1         0
     16473         1         0     16476         1         0     16479         1         0
     16481         1         0     16483         1         0     16486         1         0
     16489         1         0     16492         1         0     16495         1         0
     16498         1         0     16501         1         0     16504         1         0
     16508         2         0     16524         2         0     16535         1         0
     16543         1         0     16552         1         0     16555         1         0
     16558         1         0     16561         1         0     16564         1         0
     16567         1         0     16570         1         0     16572         1         0
     16574         1         0     16577         1         0     16580         1         0
     16583         1         0     16586         1         0     16589         1         0
     16592         1         0     16595         1         0     16599         1         0
     16602         1         0     16605         1         0     16608         1         0
     16611         1         0     16614         1         0     16617         1         0
     16619         1         0     16621         1         0     16624         1         0
     16627         1         0     16630         1         0     16633         1         0
     16636         1         0     16639         1         0     16642         1         0
     16646         2         0     16662         2         0     16673         1         0
     16681         1         0     16690         1         0     16693         1         0
     16696         1         0     16699         1         0     16702         1         0
     16705         1         0     16708         1         0     16710         1         0
     16712         1         0     16715         1         0     16718         1         0
     16721         1         0     16724         1         0     16727         1         0
     16730         1         0     16733         1         0     16737         1         0
     16740         1         0     16743         1         0     16746         1         0
     16749         1         0     16752         1         0     16755         1         0
     16757         1         0     16759         1         0     16762         1         0
     16765         1         0     16768         1         0     16771         1         0
     16774         1         0     16777         1         0     16780         1         0
     16784         2         0     16800         2         0     16811         1         0
     16819         1         0     16828         1         0     16831         1         0
     16834         1         0     16837         1         0     16840         1         0
     16843         1         0     16846         1         0     16848         1         0
     16850         1         0     16853         1         0     16856         1         0
     16859         1         0     16862         1         0     16865         1         0
     16868         1         0     16871         1         0     16875         1         0
     16878         1         0     16881         1         0     16884         1         0
     16887         1         0     16890         1         0     16893         1         0
     16895         1         0     16897         1         0     16900         1         0
     16903         1         0     16906         1         0     16909         1         0
     16912         1         0     16915         1         0     16918         1         0
     16922         2         0     16938         2         0     16949         1         0
     16957         1         0     16966         1         0     16969         1         0
     16972         1         0     16975         1         0     16978         1         0
     16981         1         0     16984         1         0     16986         1         0
     16988         1         0     16991         1         0     16994         1         0
     16997         1         0     17000         1         0     17003         1         0
     17006         1         0     17009         1         0     17013         1         0
     17016         1         0     17019         1         0     17022         1         0
     17025         1         0     17028         1         0     17031         1         0
     17033         1         0     17035         1         0     17038         1         0
     17041         1         0     17044         1         0     17047         1         0
     17050         1         0     17053         1         0     17056         1         0
     17060         2         0     17076         2         0     17087         1         0
     17095         1         0     17104         1         0     17107         1         0
     17110         1         0     17113         1         0     17116         1         0
     17119         1         0     17122         1         0     17124         1         0
     17126         1         0     17129         1         0     17132         1         0
     17135         1         0     17138         1         0     17141         1         0
     17144         1         0     17147         1         0     17151         1         0
     17154         1         0     17157         1         0     17160         1         0
     17163         1         0     17166         1         0     17169         1         0
     17171         1         0     17173         1         0     17176         1         0
     17179         1         0     17182         1         0     17185         1         0
     17188         1         0     17191         1         0     17194         1         0
     17198         2         0     17214         2         0     17225         1         0
     17233         1         0     17242         1         0     17245         1         0
     17248         1         0     17251         1         0     17254         1         0
     17257         1         0     17260         1         0     17262         1         0
     17264         1         0     17267         1         0     17270         1         0
     17273         1         0     17276         1         0     17279         1         0
     17282         1         0     17285         1         0     17289         1         0
     17292         1         0     17295         1         0     17298         1         0
     17301         1         0     17304         1         0     17307         1         0
     17309         1         0     17311         1         0     17314         1         0
     17317         1         0     17320         1         0     17323         1         0
     17326         1         0     17329         1         0     17332         1         0
     17336         2         0     17352         2         0     17363         1         0
     17371         1         0     17380         1         0     17383         1         0
     17386         1         0     17389         1         0     17392         1         0
     17395         1         0     17398         1         0     17400         1         0
     17402         1         0     17405         1         0     17408         1         0
     17411         1         0     17414         1         0     17417         1         0
     17420         1         0     17423         1         0     17427         1         0
     17430         1         0     17433         1         0     17436         1         0
     17439         1         0     17442         1         0     17445         1         0
     17447         1         0     17449         1         0     17452         1         0
     17455         1         0     17458         1         0     17461         1         0
     17464         1         0     17467         1         0     17470         1         0
     17474         2         0     17490         2         0     17501         1         0
     17509         1         0     17518         1         0     17521         1         0
     17524         1         0     17527         1         0     17530         1         0
     17533         1         0     17536         1         0     17538         1         0
     17540         1         0     17543         1         0     17546         1         0
     17549         1         0     17552         1         0     17555         1         0
     17558         1         0     17561         1         0     17565         1         0
     17568         1         0     17571         1         0     17574         1         0
     17577         1         0     17580         1         0     17583         1         0
     17585         1         0     17587         1         0     17590         1         0
     17593         1         0     17596         1         0     17599         1         0
     17602         1         0     17605         1         0     17608         1         0
     17612         2         0     17628         2         0     17639         1         0
     17647         1         0     17656         1         0     17659         1         0
     17662         1         0     17665         1         0     17668         1         0
     17671         1         0     17674         1         0     17676         1         0
     17678         1         0     17681         1         0     17684         1         0
     17687         1         0     17690         1         0     17693         1         0
     17696         1         0     17699         1         0     17703         1         0
     17706         1         0     17709         1         0     17712         1         0
     17715         1         0     17718         1         0     17721         1         0
     17723         1         0     17725         1         0     17728         1         0
     17731         1         0     17734         1         0     17737         1         0
     17740         1         0     17743         1         0     17746         1         0
     17750         2         0     17766         2         0     17777         1         0
     17785         1         0     17794         1         0     17797         1         0
     17800         1         0     17803         1         0     17806         1         0
     17809         1         0     17812         1         0     17814         1         0
     17816         1         0     17819         1         0     17822         1         0
     17825         1         0     17828         1         0     17831         1         0
     17834         1         0     17837         1         0     17841         1         0
     17844         1         0     17847         1         0     17850         1         0
     17853         1         0     17856         1         0     17859         1         0
     17861         1         0     17863         1         0     17866         1         0
     17869         1         0     17872         1         0     17875         1         0
     17878         1         0     17881         1         0     17884         1         0
     17888         2         0     17904         2         0     17915         1         0
     17923         1         0     17932         1         0     17935         1         0
     17938         1         0     17941         1         0     17944         1         0
     17947         1         0     17950         1         0     17952         1         0
     17954         1         0     17957         1         0     17960         1         0
     17963         1         0     17966         1         0     17969         1         0
     17972         1         0     17975         1         0     17979         1         0
     17982         1         0     17985         1         0     17988         1         0
     17991         1         0     17994         1         0     17997         1         0
     17999         1         0     18001         1         0     18004         1         0
     18007         1         0     18010         1         0     18013         1         0
     18016         1         0     18019         1         0     18022         1         0
     18026         2         0     18042         2         0     18053         1         0
     18061         1         0     18070         1         0     18073         1         0
     18076         1         0     18079         1         0     18082         1         0
     18085         1         0     18088         1         0     18090         1         0
     18092         1         0     18095         1         0     18098         1         0
     18101         1         0     18104         1         0     18107         1         0
     18110         1         0     18113         1         0     18117         1         0
     18120         1         0     18123         1         0     18126         1         0
     18129         1         0     18132         1         0     18135         1         0
     18137         1         0     18139         1         0     18142         1         0
     18145         1         0     18148         1         0     18151         1         0
     18154         1         0     18157         1         0     18160         1         0
     18164         2         0     18180         2         0     18191         1         0
     18199         1         0     18208         1         0     18211         1         0
     18214         1         0     18217         1         0     18220         1         0
     18223         1         0     18226         1         0     18228         1         0
     18230         1         0     18233         1         0     18236         1         0
     18239         1         0     18242         1         0     18245         1         0
     18248         1         0     18251         1         0     18255         1         0
     18258         1         0     18261         1         0     18264         1         0
     18267         1         0     18270         1         0     18273         1         0
     18275         1         0     18277         1         0     18280         1         0
     18283         1         0     18286         1         0     18289         1         0
     18292         1         0     18295         1         0     18298         1         0
     18302         2         0     18318         2         0     18329         1         0
     18337         1         0     18346         1         0     18349         1         0
     18352         1         0     18355         1         0     18358         1         0
     18361         1         0     18364         1         0     18366         1         0
     18368         1         0     18371         1         0     18374         1         0
     18377         1         0     18380         1         0     18383         1         0
     18386         1         0     18389         1         0     18393         1         0
     18396         1         0     18399         1         0     18402         1         0
     18405         1         0     18408         1         0     18411         1         0
     18413         1         0     18415         1         0     18418         1         0
     18421         1         0     18424         1         0     18427         1         0
     18430         1         0     18433         1         0     18436         1         0
     18440         2         0     18456         2         0     18467         1         0
     18475         1         0     18484         1         0     18487         1         0
     18490         1         0     18493         1         0     18496         1         0
     18499         1         0     18502         1         0     18504         1         0
     18506         1         0     18509         1         0     18512         1         0
     18515         1         0     18518         1         0     18521         1         0
     18524         1         0     18527         1         0     18531         1         0
     18534         1         0     18537         1         0     18540         1         0
     18543         1         0     18546         1         0     18549         1         0
     18551         1         0     18553         1         0     18556         1         0
     18559         1         0     18562         1         0     18565         1         0
     18568         1         0     18571         1         0     18574         1         0
     18578         2         0     18594         2         0     18605         1         0
     18613         1         0     18622         1         0     18625         1         0
     18628         1         0     18631         1         0     18634         1         0
     18637         1         0     18640         1         0     18642         1         0
     18644         1         0     18647         1         0     18650         1         0
     18653         1         0     18656         1         0     18659         1         0
     18662         1         0     18665         1         0     18669         1         0
     18672         1         0     18675         1         0     18678         1         0
     18681         1         0     18684         1         0     18687         1         0
     18689         1         0     18691         1         0     18694         1         0
     18697         1         0     18700         1         0     18703         1         0
     18706         1         0     18709         1         0     18712         1         0
     18716         1         0     18719         1         0     18722         1         0
     18725         1         0     18728         1         0     18731         1         0
     18734         1         0     18737         1         0     18740         1         0
     18743         1         0     18746         1         0     18749         1         0
     18752         1         0     18755         1         0     18758         1         0
     18761         1         0     18764         1         0     18767         1         0
     18770         1         0     18773         1         0     18776         1         0
     18779         1         0     18782         1         0     18785         1         0
     18788         1         0     18791         1         0     18794         1         0
     18797         1         0     18800         1         0     18803         1         0
     18806         1         0     18809         1         0     18812         1         0
     18815         1         0     18818         1         0     18821         1         0
     18824         1         0     18827         1         0     18830         1         0
     18833         1         0     18836         1         0     18839         1         0
     18842         1         0     18845         1         0     18848         1         0
     18851         1         0     18854         1         0     18857         1         0
     18860         1         0     18863         1         0     18866         1         0
     18869         1         0     18872         1         0     18875         1         0
     18878         1         0     18881         1         0     18884         1         0
     18887         1         0     18890         1         0     18893         1         0
     18896         1         0     18899         1         0     18902         1         0
     18905         1         0     18908         1         0     18911         1         0
     18914         1         0     18917         1         0     18920         1         0
     18923         1         0     18926         1         0     18929         1         0
     18932         1         0     18935         1         0     18938         1         0
     18941         1         0     18944         1         0     18947         1         0
     18950         1         0     18953         1         0     18956         1         0
     18959         1         0     18962         1         0     18965         1         0
     18968         1         0     18971         1         0     18974         1         0
     18977         1         0     18980         1         0     18983         1         0
     18986         1         0     18989         1         0     18992         1         0
     18995         1         0     18998         1         0     19001         1         0
     19004         1         0     19007         1         0     19010         1         0
     19013         1         0     19016         1         0     19019         1         0
     19022         1         0     19025         1         0     19028         1         0
     19031         1         0     19034         1         0     19037         1         0
     19040         1         0     19043         1         0     19046         1         0
     19049         1         0     19052         1         0     19055         1         0
     19058         1         0     19061         1         0     19064         1         0
     19067         1         0     19070         1         0     19073         1         0
     19076         1         0     19079         1         0     19082         1         0
     19085         1         0     19088         1         0     19091         1         0
     19094         1         0     19097         1         0     19100         1         0
     19103         1         0     19106         1         0     19109         1         0
     19112         1         0     19115         1         0     19118         1         0
     19121         1         0     19124         1         0     19127         1         0
     19130         1         0     19133         1         0     19136         1         0
     19139         1         0     19142         1         0     19145         1         0
     19148         1         0     19151         1         0     19154         1         0
     19157         1         0     19160         1         0     19163         1         0
     19166         1         0     19169         1         0     19172         1         0
     19175         1         0     19178         1         0     19181         1         0
     19184         1         0     19187         1         0     19190         1         0
     19193         1         0     19196         1         0     19199         1         0
     19202         1         0     19205         1         0     19208         1         0
     19211         1         0     19214         1         0     19217         1         0
     19220         1         0     19223         1         0     19226         1         0
     19229         1         0     19232         1         0     19235         1         0
     19238         1         0     19241         1         0     19244         1         0
     19247         1         0     19250         1         0     19253         1         0
     19256         1         0     19259         1         0     19262         1         0
     19265         1         0     19268         1         0     19271         1         0
     19274         1         0     19277         1         0     19280         1         0
     19283         1         0     19286         1         0     19289         1         0
     19292         1         0     19295         1         0     19298         1         0
     19301         1         0     19304         1         0     19307         1         0
     19310         1         0     19313         1         0     19316         1         0
     19319         1         0     19322         1         0     19325         1         0
     19328         1         0     19331         1         0     19334         1         0
     19337         1         0     19340         1         0     19343         1         0
     19346         1         0     19349         1         0     19352         1         0
     19355         1         0     19358         1         0     19361         1         0
     19364         1         0     19367         1         0     19370         1         0
     19373         1         0     19376         1         0     19379         1         0
     19382         1         0     19385         1         0     19388         1         0
     19391         1         0     19394         1         0     19397         1         0
     19400         1         0     19403         1         0     19406         1         0
     19409         1         0     19412         1         0     19415         1         0
     19418         1         0     19421         1         0     19424         1         0
     19427         1         0     19430         1         0     19433         1         0
     19436         1         0     19439         1         0     19442         1         0
     19445         1         0     19448         1         0     19451         1         0
     19454         1         0     19457         1         0     19460         1         0
     19463         1         0     19466         1         0     19469         1         0
     19472         1         0     19475         1         0     19478         1         0
     19481         1         0     19484         1         0     19487         1         0
     19490         1         0     19493         1         0     19496         1         0
     19499         1         0     19502         1         0     19505         1         0
     19508         1         0     19511         1         0     19514         1         0
     19517         1         0     19520         1         0     19523         1         0
     19526         1         0     19529         1         0     19532         1         0
     19535         1         0     19538         1         0     19541         1         0
     19544         1         0     19547         1         0     19550         1         0
     19553         1         0     19556         1         0     19559         1         0
     19562         1         0     19565         1         0     19568         1         0
     19571         1         0     19574         1         0     19577         1         0
     19580         1         0     19583         1         0     19586         1         0
     19589         1         0     19592         1         0     19595         1         0
     19598         1         0     19601         1         0     19604         1         0
     19607         1         0     19610         1         0     19613         1         0
     19616         1         0     19619         1         0     19622         1         0
     19625         1         0     19628         1         0     19631         1         0
     19634         1         0     19637         1         0     19640         1         0
     19643         1         0     19646         1         0     19649         1         0
     19652         1         0     19655         1         0     19658         1         0
     19661         1         0     19664         1         0     19667         1         0
     19670         1         0     19673         1         0     19676         1         0
     19679         1         0     19682         1         0     19685         1         0
     19688         1         0     19691         1         0     19694         1         0
     19697         1         0     19700         1         0     19703         1         0
     19706         1         0     19709         1         0     19712         1         0
     19715         1         0     19718         1         0     19721         1         0
     19724         1         0     19727         1         0     19730         1         0
     19733         1         0     19736         1         0     19739         1         0
     19742         1         0     19745         1         0     19748         1         0
     19751         1         0     19754         1         0     19757         1         0
     19760         1         0     19763         1         0     19766         1         0
     19769         1         0     19772         1         0     19775         1         0
     19778         1         0     19781         1         0     19784         1         0
     19787         1         0     19790         1         0     19793         1         0
     19796         1         0     19799         1         0     19802         1         0
     19805         1         0     19808         1         0     19811         1         0
     19814         1         0     19817         1         0     19820         1         0
     19823         1         0     19826         1         0     19829         1         0
     19832         1         0     19835         1         0     19838         1         0
     19841         1         0     19844         1         0     19847         1         0
     19850         1         0     19853         1         0     19856         1         0
     19859         1         0     19862         1         0     19865         1         0
     19868         1         0     19871         1         0     19874         1         0
     19877         1         0     19880         1         0     19883         1         0
     19886         1         0     19889         1         0     19892         1         0
     19895         1         0     19898         1         0     19901         1         0
     19904         1         0     19907         1         0     19910         1         0
     19913         1         0     19916         1         0     19919         1         0
     19922         1         0     19925         1         0     19928         1         0
     19931         1         0     19934         1         0     19937         1         0
     19940         1         0     19943         1         0     19946         1         0
     19949         1         0     19952         1         0     19955         1         0
     19958         1         0     19961         1         0     19964         1         0
     19967         1         0     19970         1         0     19973         1         0
     19976         1         0     19979         1         0     19982         1         0
     19985         1         0     19988         1         0     19991         1         0
     19994         1         0     19997         1         0     20000         1         0
     20003         1         0     20006         1         0     20009         1         0
     20012         1         0     20015         1         0     20018         1         0
     20021         1         0     20024         1         0     20027         1         0
     20030         1         0     20033         1         0     20036         1         0
     20039         1         0     20042         1         0     20045         1         0
     20048         1         0     20051         1         0     20054         1         0
     20057         1         0     20060         1         0     20063         1         0
     20066         1         0     20069         1         0     20072         1         0
     20075         1         0     20078         1         0     20081         1         0
     20084         1         0     20087         1         0     20090         1         0
     20093         1         0     20096         1         0     20099         1         0
     20102         1         0     20105         1         0     20108         1         0
     20111         1         0     20114         1         0     20117         1         0
     20120         1         0     20123         1         0     20126         1         0
     20129         1         0     20132         1         0     20135         1         0
     20138         1         0     20141         1         0     20144         1         0
     20147         1         0     20150         1         0     20153         1         0
     20156         1         0     20159         1         0     20162         1         0
     20165         1         0     20168         1         0     20171         1         0
     20174         1         0     20177         1         0     20180         1         0
     20183         1         0     20186         1         0     20189         1         0
     20192         1         0     20195         1         0     20198         1         0
     20201         1         0     20204         1         0     20207         1         0
     20210         1         0     20213         1         0     20216         1         0
     20219         1         0     20222         1         0     20225         1         0
     20228         1         0     20231         1         0     20234         1         0
     20237         1         0     20240         1         0     20243         1         0
     20246         1         0     20249         1         0     20252         1         0
     20255         1         0     20258         1         0     20261         1         0
     20264         1         0     20267         1         0     20270         1         0
     20273         1         0     20276         1         0     20279         1         0
     20282         1         0     20285         1         0     20288         1         0
     20291         1         0     20294         1         0     20297         1         0
     20300         1         0     20303         1         0     20306         1         0
     20309         1         0     20312         1         0     20315         1         0
     20318         1         0     20321         1         0     20324         1         0
     20327         1         0     20330         1         0     20333         1         0
     20336         1         0     20339         1         0     20342         1         0
     20345         1         0     20348         1         0     20351         1         0
     20354         1         0     20357         1         0     20360         1         0
     20363         1         0     20366         1         0     20369         1         0
     20372         1         0     20375         1         0     20378         1         0
     20381         1         0     20384         1         0     20387         1         0
     20390         1         0     20393         1         0     20396         1         0
     20399         1         0     20402         1         0     20405         1         0
     20408         1         0     20411         1         0     20414         1         0
     20417         1         0     20420         1         0     20423         1         0
     20426         1         0     20429         1         0     20432         1         0
     20435         1         0     20438         1         0     20441         1         0
     20444         1         0     20447         1         0     20450         1         0
     20453         1         0     20456         1         0     20459         1         0
     20462         1         0     20465         1         0     20468         1         0
     20471         1         0     20474         1         0     20477         1         0
     20480         1         0     20483         1         0     20486         1         0
     20489         1         0     20492         1         0     20495         1         0
     20498         1         0     20501         1         0     20504         1         0
     20507         1         0     20510         1         0     20513         1         0
     20516         1         0     20519         1         0     20522         1         0
     20525         1         0     20528         1         0     20531         1         0
     20534         1         0     20537         1         0     20540         1         0
     20543         1         0     20546         1         0     20549         1         0
     20552         1         0     20555         1         0     20558         1         0
     20561         1         0     20564         1         0     20567         1         0
     20570         1         0     20573         1         0     20576         1         0
     20579         1         0     20582         1         0     20585         1         0
     20588         1         0     20591         1         0     20594         1         0
     20597         1         0     20600         1         0     20603         1         0
     20606         1         0     20609         1         0     20612         1         0
     20615         1         0     20618         1         0     20621         1         0
     20624         1         0     20627         1         0     20630         1         0
     20633         1         0     20636         1         0     20639         1         0
     20642         1         0     20645         1         0     20648         1         0
     20651         1         0     20654         1         0     20657         1         0
     20660         1         0     20663         1         0     20666         1         0
     20669         1         0     20672         1         0     20675         1         0
     20678         1         0     20681         1         0     20684         1         0
     20687         1         0     20690         1         0     20693         1         0
     20696         1         0     20699         1         0     20702         1         0
     20705         1         0     20708         1         0     20711         1         0
     20714         1         0     20717         1         0     20720         1         0
     20723         1         0     20726         1         0     20729         1         0
     20732         1         0     20735         1         0     20738         1         0
     20741         1         0     20744         1         0     20747         1         0
     20750         1         0     20753         1         0     20756         1         0
     20759         1         0     20762         1         0     20765         1         0
     20768         1         0     20771         1         0     20774         1         0
     20777         1         0     20780         1         0     20783         1         0
     20786         1         0     20789         1         0     20792         1         0
     20795         1         0     20798         1         0     20801         1         0
     20804         1         0     20807         1         0     20810         1         0
     20813         1         0     20816         1         0     20819         1         0
     20822         1         0     20825         1         0     20828         1         0
     20831         1         0     20834         1         0     20837         1         0
     20840         1         0     20843         1         0     20846         1         0
     20849         1         0     20852         1         0     20855         1         0
     20858         1         0     20861         1         0     20864         1         0
     20867         1         0     20870         1         0     20873         1         0
     20876         1         0     20879         1         0     20882         1         0
     20885         1         0     20888         1         0     20891         1         0
     20894         1         0     20897         1         0     20900         1         0
     20903         1         0     20906         1         0     20909         1         0
     20912         1         0     20915         1         0     20918         1         0
     20921         1         0     20924         1         0     20927         1         0
     20930         1         0     20933         1         0     20936         1         0
     20939         1         0     20942         1         0     20945         1         0
     20948         1         0     20951         1         0     20954         1         0
     20957         1         0     20960         1         0     20963         1         0
     20966         1         0     20969         1         0     20972         1         0
     20975         1         0     20978         1         0     20981         1         0
     20984         1         0     20987         1         0     20990         1         0
     20993         1         0     20996         1         0     20999         1         0
     21002         1         0     21005         1         0     21008         1         0
     21011         1         0     21014         1         0     21017         1         0
     21020         1         0     21023         1         0     21026         1         0
     21029         1         0     21032         1         0     21035         1         0
     21038         1         0     21041         1         0     21044         1         0
     21047         1         0     21050         1         0     21053         1         0
     21056         1         0     21059         1         0     21062         1         0
     21065         1         0     21068         1         0     21071         1         0
     21074         1         0     21077         1         0     21080         1         0
     21083         1         0     21086         1         0     21089         1         0
     21092         1         0     21095         1         0     21098         1         0
     21101         1         0     21104         1         0     21107         1         0
     21110         1         0     21113         1         0     21116         1         0
     21119         1         0     21122         1         0     21125         1         0
     21128         1         0     21131         1         0     21134         1         0
     21137         1         0     21140         1         0     21143         1         0
     21146         1         0     21149         1         0     21152         1         0
     21155         1         0     21158         1         0     21161         1         0
     21164         1         0     21167         1         0     21170         1         0
     21173         1         0     21176         1         0     21179         1         0
     21182         1         0     21185         1         0     21188         1         0
     21191         1         0     21194         1         0     21197         1         0
     21200         1         0     21203         1         0     21206         1         0
     21209         1         0     21212         1         0     21215         1         0
     21218         1         0     21221         1         0     21224         1         0
     21227         1         0     21230         1         0     21233         1         0
     21236         1         0     21239         1         0     21242         1         0
     21245         1         0     21248         1         0     21251         1         0
     21254         1         0     21257         1         0     21260         1         0
     21263         1         0     21266         1         0     21269         1         0
     21272         1         0     21275         1         0     21278         1         0
     21281         1         0     21284         1         0     21287         1         0
     21290         1         0     21293         1         0     21296         1         0
     21299         1         0     21302         1         0     21305         1         0
     21308         1         0     21311         1         0     21314         1         0
     21317         1         0     21320         1         0     21323         1         0
     21326         1         0     21329         1         0     21332         1         0
     21335         1         0     21338         1         0     21341         1         0
     21344         1         0     21347         1         0     21350         1         0
     21353         1         0     21356         1         0     21359         1         0
     21362         1         0     21365         1         0     21368         1         0
     21371         1         0     21374         1         0     21377         1         0
     21380         1         0     21383         1         0     21386         1         0
     21389         1         0     21392         1         0     21395         1         0
     21398         1         0     21401         1         0     21404         1         0
     21407         1         0     21410         1         0     21413         1         0
     21416         1         0     21419         1         0     21422         1         0
     21425         1         0     21428         1         0     21431         1         0
     21434         1         0     21437         1         0     21440         1         0
     21443         1         0     21446         1         0     21449         1         0
     21452         1         0     21455         1         0     21458         1         0
     21461         1         0     21464         1         0     21467         1         0
     21470         1         0     21473         1         0     21476         1         0
     21479         1         0     21482         1         0     21485         1         0
     21488         1         0     21491         1         0     21494         1         0
     21497         1         0     21500         1         0     21503         1         0
     21506         1         0     21509         1         0     21512         1         0
     21515         1         0     21518         1         0     21521         1         0
     21524         1         0     21527         1         0     21530         1         0
     21533         1         0     21536         1         0     21539         1         0
     21542         1         0     21545         1         0     21548         1         0
     21551         1         0     21554         1         0     21557         1         0
     21560         1         0     21563         1         0     21566         1         0
     21569         1         0     21572         1         0     21575         1         0
     21578         1         0     21581         1         0     21584         1         0
     21587         1         0     21590         1         0     21593         1         0
     21596         1         0     21599         1         0     21602         1         0
     21605         1         0     21608         1         0     21611         1         0
     21614         1         0     21617         1         0     21620         1         0
     21623         1         0     21626         1         0     21629         1         0
     21632         1         0     21635         1         0     21638         1         0
     21641         1         0     21644         1         0     21647         1         0
     21650         1         0     21653         1         0     21656         1         0
     21659         1         0     21662         1         0     21665         1         0
     21668         1         0     21671         1         0     21674         1         0
     21677         1         0     21680         1         0     21683         1         0
     21686         1         0     21689         1         0     21692         1         0
     21695         1         0     21698         1         0     21701         1         0
     21704         1         0     21707         1         0     21710         1         0
     21713         1         0     21716         1         0     21719         1         0
     21722         1         0     21725         1         0     21728         1         0
     21731         1         0     21734         1         0     21737         1         0
     21740         1         0     21743         1         0     21746         1         0
     21749         1         0     21752         1         0     21755         1         0
     21758         1         0     21761         1         0     21764         1         0
     21767         1         0     21770         1         0     21773         1         0
     21776         1         0     21779         1         0     21782         1         0
     21785         1         0     21788         1         0     21791         1         0
     21794         1         0     21797         1         0     21800         1         0
     21803         1         0     21806         1         0     21809         1         0
     21812         1         0     21815         1         0     21818         1         0
     21821         1         0     21824         1         0     21827         1         0
     21830         1         0     21833         1         0     21836         1         0
     21839         1         0     21842         1         0     21845         1         0
     21848         1         0     21851         1         0     21854         1         0
     21857         1         0     21860         1         0     21863         1         0
     21866         1         0     21869         1         0     21872         1         0
     21875         1         0     21878         1         0     21881         1         0
     21884         1         0     21887         1         0     21890         1         0
     21893         1         0     21896         1         0     21899         1         0
     21902         1         0     21905         1         0     21908         1         0
     21911         1         0     21914         1         0     21917         1         0
     21920         1         0     21923         1         0     21926         1         0
     21929         1         0     21932         1         0     21935         1         0
     21938         1         0     21941         1         0     21944         1         0
     21947         1         0     21950         1         0     21953         1         0
     21956         1         0     21959         1         0     21962         1         0
     21965         1         0     21968         1         0     21971         1         0
     21974         1         0     21977         1         0     21980         1         0
     21983         1         0     21986         1         0     21989         1         0
     21992         1         0     21995         1         0     21998         1         0
     22001         1         0     22004         1         0     22007         1         0
     22010         1         0     22013         1         0     22016         1         0
     22019         1         0     22022         1         0     22025         1         0
     22028         1         0     22031         1         0     22034         1         0
     22037         1         0     22040         1         0     22043         1         0
     22046         1         0     22049         1         0     22052         1         0
     22055         1         0     22058         1         0     22061         1         0
     22064         1         0     22067         1         0     22070         1         0
     22073         1         0     22076         1         0     22079         1         0
     22082         1         0     22085         1         0     22088         1         0
     22091         1         0     22094         1         0     22097         1         0
     22100         1         0     22103         1         0     22106         1         0
     22109         1         0     22112         1         0     22115         1         0
     22118         1         0     22121         1         0     22124         1         0
     22127         1         0     22130         1         0     22133         1         0
     22136         1         0     22139         1         0     22142         1         0
     22145         1         0     22148         1         0     22151         1         0
     22154         1         0     22157         1         0     22160         1         0
     22163         1         0     22166         1         0     22169         1         0
     22172         1         0     22175         1         0     22178         1         0
     22181         1         0     22184         1         0     22187         1         0
     22190         1         0     22193         1         0     22196         1         0
     22199         1         0     22202         1         0     22205         1         0
     22208         1         0     22211         1         0     22214         1         0
     22217         1         0     22220         1         0     22223         1         0
     22226         1         0     22229         1         0     22232         1         0
     22235         1         0     22238         1         0     22241         1         0
     22244         1         0     22247         1         0     22250         1         0
     22253         1         0     22256         1         0     22259         1         0
     22262         1         0     22265         1         0     22268         1         0
     22271         1         0     22274         1         0     22277         1         0
     22280         1         0     22283         1         0     22286         1         0
     22289         1         0     22292         1         0     22295         1         0
     22298         1         0     22301         1         0     22304         1         0
     22307         1         0     22310         1         0     22313         1         0
     22316         1         0     22319         1         0     22322         1         0
     22325         1         0     22328         1         0     22331         1         0
     22334         1         0     22337         1         0     22340         1         0
     22343         1         0     22346         1         0     22349         1         0
     22352         1         0     22355         1         0     22358         1         0
     22361         1         0     22364         1         0     22367         1         0
     22370         1         0     22373         1         0     22376         1         0
     22379         1         0     22382         1         0     22385         1         0
     22388         1         0     22391         1         0     22394         1         0
     22397         1         0     22400         1         0     22403         1         0
     22406         1         0     22409         1         0     22412         1         0
     22415         1         0     22418         1         0     22421         1         0
     22424         1         0     22427         1         0     22430         1         0
     22433         1         0     22436         1         0     22439         1         0
     22442         1         0     22445         1         0     22448         1         0
     22451         1         0     22454         1         0     22457         1         0
     22460         1         0     22463         1         0     22466         1         0
     22469         1         0     22472         1         0     22475         1         0
     22478         1         0     22481         1         0     22484         1         0
     22487         1         0     22490         1         0     22493         1         0
     22496         1         0     22499         1         0     22502         1         0
     22505         1         0     22508         1         0     22511         1         0
     22514         1         0     22517         1         0     22520         1         0
     22523         1         0     22526         1         0     22529         1         0
     22532         1         0     22535         1         0     22538         1         0
     22541         1         0     22544         1         0     22547         1         0
     22550         1         0     22553         1         0     22556         1         0
     22559         1         0     22562         1         0     22565         1         0
     22568         1         0     22571         1         0     22574         1         0
     22577         1         0     22580         1         0     22583         1         0
     22586         1         0     22589         1         0     22592         1         0
     22595         1         0     22598         1         0     22601         1         0
     22604         1         0     22607         1         0     22610         1         0
     22613         1         0     22616         1         0     22619         1         0
     22622         1         0     22625         1         0     22628         1         0
     22631         1         0     22634         1         0     22637         1         0
     22640         1         0     22643         1         0     22646         1         0
     22649         1         0     22652         1         0     22655         1         0
     22658         1         0     22661         1         0     22664         1         0
     22667         1         0     22670         1         0     22673         1         0
     22676         1         0     22679         1         0     22682         1         0
     22685         1         0     22688         1         0     22691         1         0
     22694         1         0     22697         1         0     22700         1         0
     22703         1         0     22706         1         0     22709         1         0
     22712         1         0     22715         1         0     22718         1         0
     22721         1         0     22724         1         0     22727         1         0
     22730         1         0     22733         1         0     22736         1         0
     22739         1         0     22742         1         0     22745         1         0
     22748         1         0     22751         1         0     22754         1         0
     22757         1         0     22760         1         0     22763         1         0
     22766         1         0     22769         1         0     22772         1         0
     22775         1         0     22778         1         0     22781         1         0
     22784         1         0     22787         1         0     22790         1         0
     22793         1         0     22796         1         0     22799         1         0
     22802         1         0     22805         1         0     22808         1         0
     22811         1         0     22814         1         0     22817         1         0
     22820         1         0     22823         1         0     22826         1         0
     22829         1         0     22832         1         0     22835         1         0
     22838         1         0     22841         1         0     22844         1         0
     22847         1         0     22850         1         0     22853         1         0
     22856         1         0     22859         1         0     22862         1         0
     22865         1         0     22868         1         0     22871         1         0
     22874         1         0     22877         1         0     22880         1         0
     22883         1         0     22886         1         0     22889         1         0
     22892         1         0     22895         1         0     22898         1         0
     22901         1         0     22904         1         0     22907         1         0
     22910         1         0     22913         1         0     22916         1         0
     22919         1         0     22922         1         0     22925         1         0
     22928         1         0     22931         1         0     22934         1         0
     22937         1         0     22940         1         0     22943         1         0
     22946         1         0     22949         1         0     22952         1         0
     22955         1         0     22958         1         0     22961         1         0
     22964         1         0     22967         1         0     22970         1         0
     22973         1         0     22976         1         0     22979         1         0
     22982         1         0     22985         1         0     22988         1         0
     22991         1         0     22994         1         0     22997         1         0
     23000         1         0     23003         1         0     23006         1         0
     23009         1         0     23012         1         0     23015         1         0
     23018         1         0     23021         1         0     23024         1         0
     23027         1         0     23030         1         0     23033         1         0
     23036         1         0     23039         1         0     23042         1         0
     23045         1         0     23048         1         0     23051         1         0
     23054         1         0     23057         1         0     23060         1         0
     23063         1         0     23066         1         0     23069         1         0
     23072         1         0     23075         1         0     23078         1         0
     23081         1         0     23084         1         0     23087         1         0
     23090         1         0     23093         1         0     23096         1         0
     23099         1         0     23102         1         0     23105         1         0
     23108         1         0     23111         1         0     23114         1         0
     23117         1         0     23120         1         0     23123         1         0
     23126         1         0     23129         1         0     23132         1         0
     23135         1         0     23138         1         0     23141         1         0
     23144         1         0     23147         1         0     23150         1         0
     23153         1         0     23156         1         0     23159         1         0
     23162         1         0     23165         1         0     23168         1         0
     23171         1         0     23174         1         0     23177         1         0
     23180         1         0     23183         1         0     23186         1         0
     23189         1         0     23192         1         0     23195         1         0
     23198         1         0     23201         1         0     23204         1         0
     23207         1         0     23210         1         0     23213         1         0
     23216         1         0     23219         1         0     23222         1         0
     23225         1         0     23228         1         0     23231         1         0
     23234         1         0     23237         1         0     23240         1         0
     23243         1         0     23246         1         0     23249         1         0
     23252         1         0     23255         1         0     23258         1         0
     23261         1         0     23264         1         0     23267         1         0
     23270         1         0     23273         1         0     23276         1         0
     23279         1         0     23282         1         0     23285         1         0
     23288         1         0     23291         1         0     23294         1         0
     23297         1         0     23300         1         0     23303         1         0
     23306         1         0     23309         1         0     23312         1         0
     23315         1         0     23318         1         0     23321         1         0
     23324         1         0     23327         1         0     23330         1         0
     23333         1         0     23336         1         0     23339         1         0
     23342         1         0     23345         1         0     23348         1         0
     23351         1         0     23354         1         0     23357         1         0
     23360         1         0     23363         1         0     23366         1         0
     23369         1         0     23372         1         0     23375         1         0
     23378         1         0     23381         1         0     23384         1         0
     23387         1         0     23390         1         0     23393         1         0
     23396         1         0     23399         1         0     23402         1         0
     23405         1         0     23408         1         0     23411         1         0
     23414         1         0     23417         1         0     23420         1         0
     23423         1         0     23426         1         0     23429         1         0
     23432         1         0     23435         1         0     23438         1         0
     23441         1         0     23444         1         0     23447         1         0
     23450         1         0     23453         1         0     23456         1         0
     23459         1         0     23462         1         0     23465         1         0
     23468         1         0     23471         1         0     23474         1         0
     23477         1         0     23480         1         0     23483         1         0
     23486         1         0     23489         1         0     23492         1         0
     23495         1         0     23498         1         0     23501         1         0
     23504         1         0     23507         1         0     23510         1         0
     23513         1         0     23516         1         0     23519         1         0
     23522         1         0     23525         1         0     23528         1         0
     23531         1         0     23534         1         0     23537         1         0
     23540         1         0     23543         1         0     23546         1         0
     23549         1         0     23552         1         0     23555         1         0
     23558         1         0     23561         1         0     23564         1         0
     23567         1         0     23570         1         0     23573         1         0
     23576         1         0     23579         1         0     23582         1         0
     23585         1         0     23588         1         0     23591         1         0
     23594         1         0     23597         1         0     23600         1         0
     23603         1         0     23606         1         0     23609         1         0
     23612         1         0     23615         1         0     23618         1         0
     23621         1         0     23624         1         0     23627         1         0
     23630         1         0     23633         1         0     23636         1         0
     23639         1         0     23642         1         0     23645         1         0
     23648         1         0     23651         1         0     23654         1         0
     23657         1         0     23660         1         0     23663         1         0
     23666         1         0     23669         1         0     23672         1         0
     23675         1         0     23678         1         0     23681         1         0
     23684         1         0     23687         1         0     23690         1         0
     23693         1         0     23696         1         0     23699         1         0
     23702         1         0     23705         1         0     23708         1         0
     23711         1         0     23714         1         0     23717         1         0
     23720         1         0     23723         1         0     23726         1         0
     23729         1         0     23732         1         0     23735         1         0
     23738         1         0     23741         1         0     23744         1         0
     23747         1         0     23750         1         0     23753         1         0
     23756         1         0     23759         1         0     23762         1         0
     23765         1         0     23768         1         0     23771         1         0
     23774         1         0     23777         1         0     23780         1         0
     23783         1         0     23786         1         0     23789         1         0
     23792         1         0     23795         1         0     23798         1         0
     23801         1         0     23804         1         0     23807         1         0
     23810         1         0     23813         1         0     23816         1         0
     23819         1         0     23822         1         0     23825         1         0
     23828         1         0     23831         1         0     23834         1         0
     23837         1         0     23840         1         0     23843         1         0
     23846         1         0     23849         1         0     23852         1         0
     23855         1         0     23858         1         0     23861         1         0
     23864         1         0     23867         1         0     23870         1         0
     23873         1         0     23876         1         0     23879         1         0
     23882         1         0     23885         1         0     23888         1         0
     23891         1         0     23894         1         0     23897         1         0
     23900         1         0     23903         1         0     23906         1         0
     23909         1         0     23912         1         0     23915         1         0
     23918         1         0     23921         1         0     23924         1         0
     23927         1         0     23930         1         0     23933         1         0
     23936         1         0     23939         1         0     23942         1         0
     23945         1         0     23948         1         0     23951         1         0
     23954         1         0     23957         1         0     23960         1         0
     23963         1         0     23966         1         0     23969         1         0
     23972         1         0     23975         1         0     23978         1         0
     23981         1         0     23984         1         0     23987         1         0
     23990         1         0     23993         1         0     23996         1         0
     23999         1         0     24002         1         0     24005         1         0
     24008         1         0     24011         1         0     24014         1         0
     24017         1         0     24020         1         0     24023         1         0
     24026         1         0     24029         1         0     24032         1         0
     24035         1         0     24038         1         0     24041         1         0
     24044         1         0     24047         1         0     24050         1         0
     24053         1         0     24056         1         0     24059         1         0
     24062         1         0     24065         1         0     24068         1         0
     24071         1         0     24074         1         0     24077         1         0
     24080         1         0     24083         1         0     24086         1         0
     24089         1         0     24092         1         0     24095         1         0
     24098         1         0     24101         1         0     24104         1         0
     24107         1         0     24110         1         0     24113         1         0
     24116         1         0     24119         1         0     24122         1         0
     24125         1         0     24128         1         0     24131         1         0
     24134         1         0     24137         1         0     24140         1         0
     24143         1         0     24146         1         0     24149         1         0
     24152         1         0     24155         1         0     24158         1         0
     24161         1         0     24164         1         0     24167         1         0
     24170         1         0     24173         1         0     24176         1         0
     24179         1         0     24182         1         0     24185         1         0
     24188         1         0     24191         1         0     24194         1         0
     24197         1         0     24200         1         0     24203         1         0
     24206         1         0     24209         1         0     24212         1         0
     24215         1         0     24218         1         0     24221         1         0
     24224         1         0     24227         1         0     24230         1         0
     24233         1         0     24236         1         0     24239         1         0
     24242         1         0     24245         1         0     24248         1         0
     24251         1         0     24254         1         0     24257         1         0
     24260         1         0     24263         1         0     24266         1         0
     24269         1         0     24272         1         0     24275         1         0
     24278         1         0     24281         1         0     24284         1         0
     24287         1         0     24290         1         0     24293         1         0
     24296         1         0     24299         1         0     24302         1         0
     24305         1         0     24308         1         0     24311         1         0
     24314         1         0     24317         1         0     24320         1         0
     24323         1         0     24326         1         0     24329         1         0
     24332         1         0     24335         1         0     24338         1         0
     24341         1         0     24344         1         0     24347         1         0
     24350         1         0     24353         1         0     24356         1         0
     24359         1         0     24362         1         0     24365         1         0
     24368         1         0     24371         1         0     24374         1         0
     24377         1         0     24380         1         0     24383         1         0
     24386         1         0     24389         1         0     24392         1         0
     24395         1         0     24398         1         0     24401         1         0
     24404         1         0     24407         1         0     24410         1         0
     24413         1         0     24416         1         0     24419         1         0
     24422         1         0     24425         1         0     24428         1         0
     24431         1         0     24434         1         0     24437         1         0
     24440         1         0     24443         1         0     24446         1         0
     24449         1         0     24452         1         0     24455         1         0
     24458         1         0     24461         1         0     24464         1         0
     24467         1         0     24470         1         0     24473         1         0
     24476         1         0     24479         1         0     24482         1         0
     24485         1         0     24488         1         0     24491         1         0
     24494         1         0     24497         1         0     24500         1         0
     24503         1         0     24506         1         0     24509         1         0
     24512         1         0     24515         1         0     24518         1         0
     24521         1         0     24524         1         0     24527         1         0
     24530         1         0     24533         1         0     24536         1         0
     24539         1         0     24542         1         0     24545         1         0
     24548         1         0     24551         1         0     24554         1         0
     24557         1         0     24560         1         0     24563         1         0
     24566         1         0     24569         1         0     24572         1         0
     24575         1         0     24578         1         0     24581         1         0
     24584         1         0     24587         1         0     24590         1         0
     24593         1         0     24596         1         0     24599         1         0
     24602         1         0     24605         1         0     24608         1         0
     24611         1         0     24614         1         0     24617         1         0
     24620         1         0     24623         1         0     24626         1         0
     24629         1         0     24632         1         0     24635         1         0
     24638         1         0     24641         1         0     24644         1         0
     24647         1         0     24650         1         0     24653         1         0
     24656         1         0     24659         1         0     24662         1         0
     24665         1         0     24668         1         0     24671         1         0
     24674         1         0     24677         1         0     24680         1         0
     24683         1         0     24686         1         0     24689         1         0
     24692         1         0     24695         1         0     24698         1         0
     24701         1         0     24704         1         0     24707         1         0
     24710         1         0     24713         1         0     24716         1         0
     24719         1         0     24722         1         0     24725         1         0
     24728         1         0     24731         1         0     24734         1         0
     24737         1         0     24740         1         0     24743         1         0
     24746         1         0     24749         1         0     24752         1         0
     24755         1         0     24758         1         0     24761         1         0
     24764         1         0     24767         1         0     24770         1         0
     24773         1         0     24776         1         0     24779         1         0
     24782         1         0     24785         1         0     24788         1         0
     24791         1         0     24794         1         0     24797         1         0
     24800         1         0     24803         1         0     24806         1         0
     24809         1         0     24812         1         0     24815         1         0
     24818         1         0     24821         1         0     24824         1         0
     24827         1         0     24830         1         0     24833         1         0
     24836         1         0     24839         1         0     24842         1         0
     24845         1         0     24848         1         0     24851         1         0
     24854         1         0     24857         1         0     24860         1         0
     24863         1         0     24866         1         0     24869         1         0
     24872         1         0     24875         1         0     24878         1         0
     24881         1         0     24884         1         0     24887         1         0
     24890         1         0     24893         1         0     24896         1         0
     24899         1         0     24902         1         0     24905         1         0
     24908         1         0     24911         1         0     24914         1         0
     24917         1         0     24920         1         0     24923         1         0
     24926         1         0     24929         1         0     24932         1         0
     24935         1         0     24938         1         0     24941         1         0
     24944         1         0     24947         1         0     24950         1         0
     24953         1         0     24956         1         0     24959         1         0
     24962         1         0     24965         1         0     24968         1         0
     24971         1         0     24974         1         0     24977         1         0
     24980         1         0     24983         1         0     24986         1         0
     24989         1         0     24992         1         0     24995         1         0
     24998         1         0     25001         1         0     25004         1         0
     25007         1         0     25010         1         0     25013         1         0
     25016         1         0     25019         1         0     25022         1         0
     25025         1         0     25028         1         0     25031         1         0
     25034         1         0     25037         1         0     25040         1         0
     25043         1         0     25046         1         0     25049         1         0
     25052         1         0     25055         1         0     25058         1         0
     25061         1         0     25064         1         0     25067         1         0
     25070         1         0     25073         1         0     25076         1         0
     25079         1         0     25082         1         0     25085         1         0
     25088         1         0     25091         1         0     25094         1         0
     25097         1         0     25100         1         0     25103         1         0
     25106         1         0     25109         1         0     25112         1         0
     25115         1         0     25118         1         0     25121         1         0
     25124         1         0     25127         1         0     25130         1         0
     25133         1         0     25136         1         0     25139         1         0
     25142         1         0     25145         1         0     25148         1         0
     25151         1         0     25154         1         0     25157         1         0
     25160         1         0     25163         1         0     25166         1         0
     25169         1         0     25172         1         0     25175         1         0
     25178         1         0     25181         1         0     25184         1         0
     25187         1         0     25190         1         0     25193         1         0
     25196         1         0     25199         1         0     25202         1         0
     25205         1         0     25208         1         0     25211         1         0
     25214         1         0     25217         1         0     25220         1         0
     25223         1         0     25226         1         0     25229         1         0
     25232         1         0     25235         1         0     25238         1         0
     25241         1         0     25244         1         0     25247         1         0
     25250         1         0     25253         1         0     25256         1         0
     25259         1         0     25262         1         0     25265         1         0
     25268         1         0     25271         1         0     25274         1         0
     25277         1         0     25280         1         0     25283         1         0
     25286         1         0     25289         1         0     25292         1         0
     25295         1         0     25298         1         0     25301         1         0
     25304         1         0     25307         1         0     25310         1         0
     25313         1         0     25316         1         0     25319         1         0
     25322         1         0     25325         1         0     25328         1         0
     25331         1         0     25334         1         0     25337         1         0
     25340         1         0     25343         1         0     25346         1         0
     25349         1         0     25352         1         0     25355         1         0
     25358         1         0     25361         1         0     25364         1         0
     25367         1         0     25370         1         0     25373         1         0
     25376         1         0     25379         1         0     25382         1         0
     25385         1         0     25388         1         0     25391         1         0
     25394         1         0     25397         1         0     25400         1         0
     25403         1         0     25406         1         0     25409         1         0
     25412         1         0     25415         1         0     25418         1         0
     25421         1         0     25424         1         0     25427         1         0
     25430         1         0     25433         1         0     25436         1         0
     25439         1         0     25442         1         0     25445         1         0
     25448         1         0     25451         1         0     25454         1         0
     25457         1         0     25460         1         0     25463         1         0
     25466         1         0     25469         1         0     25472         1         0
     25475         1         0     25478         1         0     25481         1         0
     25484         1         0     25487         1         0     25490         1         0
     25493         1         0     25496         1         0     25499         1         0
     25502         1         0     25505         1         0     25508         1         0
     25511         1         0     25514         1         0     25517         1         0
     25520         1         0     25523         1         0     25526         1         0
     25529         1         0     25532         1         0     25535         1         0
     25538         1         0     25541         1         0     25544         1         0
     25547         1         0     25550         1         0     25553         1         0
     25556         1         0     25559         1         0     25562         1         0
     25565         1         0     25568         1         0     25571         1         0
     25574         1         0     25577         1         0     25580         1         0
     25583         1         0     25586         1         0     25589         1         0
     25592         1         0     25595         1         0     25598         1         0
     25601         1         0     25604         1         0     25607         1         0
     25610         1         0     25613         1         0     25616         1         0
     25619         1         0     25622         1         0     25625         1         0
     25628         1         0     25631         1         0     25634         1         0
     25637         1         0     25640         1         0     25643         1         0
     25646         1         0     25649         1         0     25652         1         0
     25655         1         0     25658         1         0     25661         1         0
     25664         1         0     25667         1         0     25670         1         0
     25673         1         0     25676         1         0     25679         1         0
     25682         1         0     25685         1         0     25688         1         0
     25691         1         0     25694         1         0     25697         1         0
     25700         1         0     25703         1         0     25706         1         0
     25709         1         0     25712         1         0     25715         1         0
     25718         1         0     25721         1         0     25724         1         0
     25727         1         0     25730         1         0     25733         1         0
     25736         1         0     25739         1         0     25742         1         0
     25745         1         0     25748         1         0     25751         1         0
     25754         1         0     25757         1         0     25760         1         0
     25763         1         0     25766         1         0     25769         1         0
     25772         1         0     25775         1         0     25778         1         0
     25781         1         0     25784         1         0     25787         1         0
     25790         1         0     25793         1         0     25796         1         0
     25799         1         0     25802         1         0     25805         1         0
     25808         1         0     25811         1         0     25814         1         0
     25817         1         0     25820         1         0     25823         1         0
     25826         1         0     25829         1         0     25832         1         0
     25835         1         0     25838         1         0     25841         1         0
     25844         1         0     25847         1         0     25850         1         0
     25853         1         0     25856         1         0     25859         1         0
     25862         1         0     25865         1         0     25868         1         0
     25871         1         0     25874         1         0     25877         1         0
     25880         1         0     25883         1         0     25886         1         0
     25889         1         0     25892         1         0     25895         1         0
     25898         1         0     25901         1         0     25904         1         0
     25907         1         0     25910         1         0     25913         1         0
     25916         1         0     25919         1         0     25922         1         0
     25925         1         0     25928         1         0     25931         1         0
     25934         1         0     25937         1         0     25940         1         0
     25943         1         0     25946         1         0     25949         1         0
     25952         1         0     25955         1         0     25958         1         0
     25961         1         0     25964         1         0     25967         1         0
     25970         1         0     25973         1         0     25976         1         0
     25979         1         0     25982         1         0     25985         1         0
     25988         1         0     25991         1         0     25994         1         0
     25997         1         0     26000         1         0     26003         1         0
     26006         1         0     26009         1         0     26012         1         0
     26015         1         0     26018         1         0     26021         1         0
     26024         1         0     26027         1         0     26030         1         0
     26033         1         0     26036         1         0     26039         1         0
     26042         1         0     26045         1         0     26048         1         0
     26051         1         0     26054         1         0     26057         1         0
     26060         1         0     26063         1         0     26066         1         0
     26069         1         0     26072         1         0     26075         1         0
     26078         1         0     26081         1         0     26084         1         0
     26087         1         0     26090         1         0     26093         1         0
     26096         1         0     26099         1         0     26102         1         0
     26105         1         0     26108         1         0     26111         1         0
     26114         1         0     26117         1         0     26120         1         0
     26123         1         0     26126         1         0     26129         1         0
     26132         1         0     26135         1         0     26138         1         0
     26141         1         0     26144         1         0     26147         1         0
     26150         1         0     26153         1         0     26156         1         0
     26159         1         0     26162         1         0     26165         1         0
     26168         1         0     26171         1         0     26174         1         0
     26177         1         0     26180         1         0     26183         1         0
     26186         1         0     26189         1         0     26192         1         0
     26195         1         0     26198         1         0     26201         1         0
     26204         1         0     26207         1         0     26210         1         0
     26213         1         0     26216         1         0     26219         1         0
     26222         1         0     26225         1         0     26228         1         0
     26231         1         0     26234         1         0     26237         1         0
     26240         1         0     26243         1         0     26246         1         0
     26249         1         0     26252         1         0     26255         1         0
     26258         1         0     26261         1         0     26264         1         0
     26267         1         0     26270         1         0     26273         1         0
     26276         1         0     26279         1         0     26282         1         0
     26285         1         0     26288         1         0     26291         1         0
     26294         1         0     26297         1         0     26300         1         0
     26303         1         0     26306         1         0     26309         1         0
     26312         1         0     26315         1         0     26318         1         0
     26321         1         0     26324         1         0     26327         1         0
     26330         1         0     26333         1         0     26336         1         0
     26339         1         0     26342         1         0     26345         1         0
     26348         1         0     26351         1         0     26354         1         0
     26357         1         0     26360         1         0     26363         1         0
     26366         1         0     26369         1         0     26372         1         0
     26375         1         0     26378         1         0     26381         1         0
     26384         1         0     26387         1         0     26390         1         0
     26393         1         0     26396         1         0     26399         1         0
     26402         1         0     26405         1         0     26408         1         0
     26411         1         0     26414         1         0     26417         1         0
     26420         1         0     26423         1         0     26426         1         0
     26429         1         0     26432         1         0     26435         1         0
     26438         1         0     26441         1         0     26444         1         0
     26447         1         0     26450         1         0     26453         1         0
     26456         1         0     26459         1         0     26462         1         0
     26465         1         0     26468         1         0     26471         1         0
     26474         1         0     26477         1         0     26480         1         0
     26483         1         0     26486         1         0     26489         1         0
     26492         1         0     26495         1         0     26498         1         0
     26501         1         0     26504         1         0     26507         1         0
     26510         1         0     26513         1         0     26516         1         0
     26519         1         0     26522         1         0     26525         1         0
     26528         1         0     26531         1         0     26534         1         0
     26537         1         0     26540         1         0     26543         1         0
     26546         1         0     26549         1         0     26552         1         0
     26555         1         0     26558         1         0     26561         1         0
     26564         1         0     26567         1         0     26570         1         0
     26573         1         0     26576         1         0     26579         1         0
     26582         1         0     26585         1         0     26588         1         0
     26591         1         0     26594         1         0     26597         1         0
     26600         1         0     26603         1         0     26606         1         0
     26609         1         0     26612         1         0     26615         1         0
     26618         1         0     26621         1         0     26624         1         0
     26627         1         0     26630         1         0     26633         1         0
     26636         1         0     26639         1         0     26642         1         0
     26645         1         0     26648         1         0     26651         1         0
     26654         1         0     26657         1         0     26660         1         0
     26663         1         0     26666         1         0     26669         1         0
     26672         1         0     26675         1         0     26678         1         0
     26681         1         0     26684         1         0     26687         1         0
     26690         1         0     26693         1         0     26696         1         0
     26699         1         0     26702         1         0     26705         1         0
     26708         1         0     26711         1         0     26714         1         0
     26717         1         0     26720         1         0     26723         1         0
     26726         1         0     26729         1         0     26732         1         0
     26735         1         0     26738         1         0     26741         1         0
     26744         1         0     26747         1         0     26750         1         0
     26753         1         0     26756         1         0     26759         1         0
     26762         1         0     26765         1         0     26768         1         0
     26771         1         0     26774         1         0     26777         1         0
     26780         1         0     26783         1         0     26786         1         0
     26789         1         0     26792         1         0     26795         1         0
     26798         1         0     26801         1         0     26804         1         0
     26807         1         0     26810         1         0     26813         1         0
     26816         1         0     26819         1         0     26822         1         0
     26825         1         0     26828         1         0     26831         1         0
     26834         1         0     26837         1         0     26840         1         0
     26843         1         0     26846         1         0     26849         1         0
     26852         1         0     26855         1         0     26858         1         0
     26861         1         0     26864         1         0     26867         1         0
     26870         1         0     26873         1         0     26876         1         0
     26879         1         0     26882         1         0     26885         1         0
     26888         1         0     26891         1         0     26894         1         0
     26897         1         0     26900         1         0     26903         1         0
     26906         1         0     26909         1         0     26912         1         0
     26915         1         0     26918         1         0     26921         1         0
     26924         1         0     26927         1         0     26930         1         0
     26933         1         0     26936         1         0     26939         1         0
     26942         1         0     26945         1         0     26948         1         0
     26951         1         0     26954         1         0     26957         1         0
     26960         1         0     26963         1         0     26966         1         0
     26969         1         0     26972         1         0     26975         1         0
     26978         1         0     26981         1         0     26984         1         0
     26987         1         0     26990         1         0     26993         1         0
     26996         1         0     26999         1         0     27002         1         0
     27005         1         0     27008         1         0     27011         1         0
     27014         1         0     27017         1         0     27020         1         0
     27023         1         0     27026         1         0     27029         1         0
     27032         1         0     27035         1         0     27038         1         0
     27041         1         0     27044         1         0     27047         1         0
     27050         1         0     27053         1         0     27056         1         0
     27059         1         0     27062         1         0     27065         1         0
     27068         1         0     27071         1         0     27074         1         0
     27077         1         0     27080         1         0     27083         1         0
     27086         1         0     27089         1         0     27092         1         0
     27095         1         0     27098         1         0     27101         1         0
     27104         1         0     27107         1         0     27110         1         0
     27113         1         0     27116         1         0     27119         1         0
     27122         1         0     27125         1         0     27128         1         0
     27131         1         0     27134         1         0     27137         1         0
     27140         1         0     27143         1         0     27146         1         0
     27149         1         0     27152         1         0     27155         1         0
     27158         1         0     27161         1         0     27164         1         0
     27167         1         0     27170         1         0     27173         1         0
     27176         1         0     27179         1         0     27182         1         0
     27185         1         0     27188         1         0     27191         1         0
     27194         1         0     27197         1         0     27200         1         0
     27203         1         0     27206         1         0     27209         1         0
     27212         1         0     27215         1         0     27218         1         0
     27221         1         0     27224         1         0     27227         1         0
     27230         1         0     27233         1         0     27236         1         0
     27239         1         0     27242         1         0     27245         1         0
     27248         1         0     27251         1         0     27254         1         0
     27257         1         0     27260         1         0     27263         1         0
     27266         1         0     27269         1         0     27272         1         0
     27275         1         0     27278         1         0     27281         1         0
     27284         1         0     27287         1         0     27290         1         0
     27293         1         0     27296         1         0     27299         1         0
     27302         1         0     27305         1         0     27308         1         0
     27311         1         0     27314         1         0     27317         1         0
     27320         1         0     27323         1         0     27326         1         0
     27329         1         0     27332         1         0     27335         1         0
     27338         1         0     27341         1         0     27344         1         0
     27347         1         0     27350         1         0     27353         1         0
     27356         1         0     27359         1         0     27362         1         0
     27365         1         0     27368         1         0     27371         1         0
     27374         1         0     27377         1         0     27380         1         0
     27383         1         0     27386         1         0     27389         1         0
     27392         1         0     27395         1         0     27398         1         0
     27401         1         0     27404         1         0     27407         1         0
     27410         1         0     27413         1         0     27416         1         0
     27419         1         0     27422         1         0     27425         1         0
     27428         1         0     27431         1         0     27434         1         0
     27437         1         0     27440         1         0     27443         1         0
     27446         1         0     27449         1         0     27452         1         0
     27455         1         0     27458         1         0     27461         1         0
     27464         1         0     27467         1         0     27470         1         0
     27473         1         0     27476         1         0     27479         1         0
     27482         1         0     27485         1         0     27488         1         0
     27491         1         0     27494         1         0     27497         1         0
     27500         1         0     27503         1         0     27506         1         0
     27509         1         0     27512         1         0     27515         1         0
     27518         1         0     27521         1         0     27524         1         0
     27527         1         0     27530         1         0     27533         1         0
     27536         1         0     27539         1         0     27542         1         0
     27545         1         0     27548         1         0     27551         1         0
     27554         1         0     27557         1         0     27560         1         0
     27563         1         0     27566         1         0     27569         1         0
     27572         1         0     27575         1         0     27578         1         0
     27581         1         0     27584         1         0     27587         1         0
     27590         1         0     27593         1         0     27596         1         0
     27599         1         0     27602         1         0     27605         1         0
     27608         1         0     27611         1         0     27614         1         0
     27617         1         0     27620         1         0     27623         1         0
     27626         1         0     27629         1         0     27632         1         0
     27635         1         0     27638         1         0     27641         1         0
     27644         1         0     27647         1         0     27650         1         0
     27653         1         0     27656         1         0     27659         1         0
     27662         1         0     27665         1         0     27668         1         0
     27671         1         0     27674         1         0     27677         1         0
     27680         1         0     27683         1         0     27686         1         0
     27689         1         0     27692         1         0     27695         1         0
     27698         1         0     27701         1         0     27704         1         0
     27707         1         0     27710         1         0     27713         1         0
     27716         1         0     27719         1         0     27722         1         0
     27725         1         0     27728         1         0     27731         1         0
     27734         1         0     27737         1         0     27740         1         0
     27743         1         0     27746         1         0     27749         1         0
     27752         1         0     27755         1         0     27758         1         0
     27761         1         0     27764         1         0     27767         1         0
     27770         1         0     27773         1         0     27776         1         0
     27779         1         0     27782         1         0     27785         1         0
     27788         1         0     27791         1         0     27794         1         0
     27797         1         0     27800         1         0     27803         1         0
     27806         1         0     27809         1         0     27812         1         0
     27815         1         0     27818         1         0     27821         1         0
     27824         1         0     27827         1         0     27830         1         0
     27833         1         0     27836         1         0     27839         1         0
     27842         1         0     27845         1         0     27848         1         0
     27851         1         0     27854         1         0     27857         1         0
     27860         1         0     27863         1         0     27866         1         0
     27869         1         0     27872         1         0     27875         1         0
     27878         1         0     27881         1         0     27884         1         0
     27887         1         0     27890         1         0     27893         1         0
     27896         1         0     27899         1         0     27902         1         0
     27905         1         0     27908         1         0     27911         1         0
     27914         1         0     27917         1         0     27920         1         0
     27923         1         0     27926         1         0     27929         1         0
     27932         1         0     27935         1         0     27938         1         0
     27941         1         0     27944         1         0     27947         1         0
     27950         1         0     27953         1         0     27956         1         0
     27959         1         0     27962         1         0     27965         1         0
     27968         1         0     27971         1         0     27974         1         0
     27977         1         0     27980         1         0     27983         1         0
     27986         1         0     27989         1         0     27992         1         0
     27995         1         0     27998         1         0     28001         1         0
     28004         1         0     28007         1         0     28010         1         0
     28013         1         0     28016         1         0     28019         1         0
     28022         1         0     28025         1         0     28028         1         0
     28031         1         0     28034         1         0     28037         1         0
     28040         1         0     28043         1         0     28046         1         0
     28049         1         0     28052         1         0     28055         1         0
     28058         1         0     28061         1         0     28064         1         0
     28067         1         0     28070         1         0     28073         1         0
     28076         1         0     28079         1         0     28082         1         0
     28085         1         0     28088         1         0     28091         1         0
     28094         1         0     28097         1         0     28100         1         0
     28103         1         0     28106         1         0     28109         1         0
     28112         1         0     28115         1         0     28118         1         0
     28121         1         0     28124         1         0     28127         1         0
     28130         1         0     28133         1         0     28136         1         0
     28139         1         0     28142         1         0     28145         1         0
     28148         1         0     28151         1         0     28154         1         0
     28157         1         0     28160         1         0     28163         1         0
     28166         1         0     28169         1         0     28172         1         0
     28175         1         0     28178         1         0     28181         1         0
     28184         1         0     28187         1         0     28190         1         0
     28193         1         0     28196         1         0     28199         1         0
     28202         1         0     28205         1         0     28208         1         0
     28211         1         0     28214         1         0     28217         1         0
     28220         1         0     28223         1         0     28226         1         0
     28229         1         0     28232         1         0     28235         1         0
     28238         1         0     28241         1         0     28244         1         0
     28247         1         0     28250         1         0     28253         1         0
     28256         1         0     28259         1         0     28262         1         0
     28265         1         0     28268         1         0     28271         1         0
     28274         1         0     28277         1         0     28280         1         0
     28283         1         0     28286         1         0     28289         1         0
     28292         1         0     28295         1         0     28298         1         0
     28301         1         0     28304         1         0     28307         1         0
     28310         1         0     28313         1         0     28316         1         0
     28319         1         0     28322         1         0     28325         1         0
     28328         1         0     28331         1         0     28334         1         0
     28337         1         0     28340         1         0     28343         1         0
     28346         1         0     28349         1         0     28352         1         0
     28355         1         0     28358         1         0     28361         1         0
     28364         1         0     28367         1         0     28370         1         0
     28373         1         0     28376         1         0     28379         1         0
     28382         1         0     28385         1         0     28388         1         0
     28391         1         0     28394         1         0     28397         1         0
     28400         1         0     28403         1         0     28406         1         0
     28409         1         0     28412         1         0     28415         1         0
     28418         1         0     28421         1         0     28424         1         0
     28427         1         0     28430         1         0     28433         1         0
     28436         1         0     28439         1         0     28442         1         0
     28445         1         0     28448         1         0     28451         1         0
     28454         1         0     28457         1         0     28460         1         0
     28463         1         0     28466         1         0     28469         1         0
     28472         1         0     28475         1         0     28478         1         0
     28481         1         0     28484         1         0     28487         1         0
     28490         1         0     28493         1         0     28496         1         0
     28499         1         0     28502         1         0     28505         1         0
     28508         1         0     28511         1         0     28514         1         0
     28517         1         0     28520         1         0     28523         1         0
     28526         1         0     28529         1         0     28532         1         0
     28535         1         0     28538         1         0     28541         1         0
     28544         1         0     28547         1         0     28550         1         0
     28553         1         0     28556         1         0     28559         1         0
     28562         1         0     28565         1         0     28568         1         0
     28571         1         0     28574         1         0     28577         1         0
     28580         1         0     28583         1         0     28586         1         0
     28589         1         0     28592         1         0     28595         1         0
     28598         1         0     28601         1         0     28604         1         0
     28607         1         0     28610         1         0     28613         1         0
     28616         1         0     28619         1         0     28622         1         0
     28625         1         0     28628         1         0     28631         1         0
     28634         1         0     28637         1         0     28640         1         0
     28643         1         0     28646         1         0     28649         1         0
     28652         1         0     28655         1         0     28658         1         0
     28661         1         0     28664         1         0     28667         1         0
     28670         1         0     28673         1         0     28676         1         0
     28679         1         0     28682         1         0     28685         1         0
     28688         1         0     28691         1         0     28694         1         0
     28697         1         0     28700         1         0     28703         1         0
     28706         1         0     28709         1         0     28712         1         0
     28715         1         0     28718         1         0     28721         1         0
     28724         1         0     28727         1         0     28730         1         0
     28733         1         0     28736         1         0     28739         1         0
     28742         1         0     28745         1         0     28748         1         0
     28751         1         0     28754         1         0     28757         1         0
     28760         1         0     28763         1         0     28766         1         0
     28769         1         0     28772         1         0     28775         1         0
     28778         1         0     28781         1         0     28784         1         0
     28787         1         0     28790         1         0     28793         1         0
     28796         1         0     28799         1         0     28802         1         0
     28805         1         0     28808         1         0     28811         1         0
     28814         1         0     28817         1         0     28820         1         0
     28823         1         0     28826         1         0     28829         1         0
     28832         1         0     28835         1         0     28838         1         0
     28841         1         0     28844         1         0     28847         1         0
     28850         1         0     28853         1         0     28856         1         0
     28859         1         0     28862         1         0     28865         1         0
     28868         1         0     28871         1         0     28874         1         0
     28877         1         0     28880         1         0     28883         1         0
     28886         1         0     28889         1         0     28892         1         0
     28895         1         0     28898         1         0     28901         1         0
     28904         1         0     28907         1         0     28910         1         0
     28913         1         0     28916         1         0     28919         1         0
     28922         1         0     28925         1         0     28928         1         0
     28931         1         0     28934         1         0     28937         1         0
     28940         1         0     28943         1         0     28946         1         0
     28949         1         0     28952         1         0     28955         1         0
     28958         1         0     28961         1         0     28964         1         0
     28967         1         0     28970         1         0     28973         1         0
     28976         1         0     28979         1         0     28982         1         0
     28985         1         0     28988         1         0     28991         1         0
     28994         1         0     28997         1         0     29000         1         0
     29003         1         0     29006         1         0     29009         1         0
     29012         1         0     29015         1         0     29018         1         0
     29021         1         0     29024         1         0     29027         1         0
     29030         1         0     29033         1         0     29036         1         0
     29039         1         0     29042         1         0     29045         1         0
     29048         1         0     29051         1         0     29054         1         0
     29057         1         0     29060         1         0     29063         1         0
     29066         1         0     29069         1         0     29072         1         0
     29075         1         0     29078         1         0     29081         1         0
     29084         1         0     29087         1         0     29090         1         0
     29093         1         0     29096         1         0     29099         1         0
     29102         1         0     29105         1         0     29108         1         0
     29111         1         0     29114         1         0     29117         1         0
     29120         1         0     29123         1         0     29126         1         0
     29129         1         0     29132         1         0     29135         1         0
     29138         1         0     29141         1         0     29144         1         0
     29147         1         0     29150         1         0     29153         1         0
     29156         1         0     29159         1         0     29162         1         0
     29165         1         0     29168         1         0     29171         1         0
     29174         1         0     29177         1         0     29180         1         0
     29183         1         0     29186         1         0     29189         1         0
     29192         1         0     29195         1         0     29198         1         0
     29201         1         0     29204         1         0     29207         1         0
     29210         1         0     29213         1         0     29216         1         0
     29219         1         0     29222         1         0     29225         1         0
     29228         1         0     29231         1         0     29234         1         0
     29237         1         0     29240         1         0     29243         1         0
     29246         1         0     29249         1         0     29252         1         0
     29255         1         0     29258         1         0     29261         1         0
     29264         1         0     29267         1         0     29270         1         0
     29273         1         0     29276         1         0     29279         1         0
     29282         1         0     29285         1         0     29288         1         0
     29291         1         0     29294         1         0     29297         1         0
     29300         1         0     29303         1         0     29306         1         0
     29309         1         0     29312         1         0     29315         1         0
     29318         1         0     29321         1         0     29324         1         0
     29327         1         0     29330         1         0     29333         1         0
     29336         1         0     29339         1         0     29342         1         0
     29345         1         0     29348         1         0     29351         1         0
     29354         1         0     29357         1         0     29360         1         0
     29363         1         0     29366         1         0     29369         1         0
     29372         1         0     29375         1         0     29378         1         0
     29381         1         0     29384         1         0     29387         1         0
     29390         1         0     29393         1         0     29396         1         0
     29399         1         0     29402         1         0     29405         1         0
     29408         1         0     29411         1         0     29414         1         0
     29417         1         0     29420         1         0     29423         1         0
     29426         1         0     29429         1         0     29432         1         0
     29435         1         0     29438         1         0     29441         1         0
     29444         1         0     29447         1         0     29450         1         0
     29453         1         0     29456         1         0     29459         1         0
     29462         1         0     29465         1         0     29468         1         0
     29471         1         0     29474         1         0     29477         1         0
     29480         1         0     29483         1         0     29486         1         0
     29489         1         0     29492         1         0     29495         1         0
     29498         1         0     29501         1         0     29504         1         0
     29507         1         0     29510         1         0     29513         1         0
     29516         1         0     29519         1         0     29522         1         0
     29525         1         0     29528         1         0     29531         1         0
     29534         1         0     29537         1         0     29540         1         0
     29543         1         0     29546         1         0     29549         1         0
     29552         1         0     29555         1         0     29558         1         0
     29561         1         0     29564         1         0     29567         1         0
     29570         1         0     29573         1         0     29576         1         0
     29579         1         0     29582         1         0     29585         1         0
     29588         1         0     29591         1         0     29594         1         0
     29597         1         0     29600         1         0     29603         1         0
     29606         1         0     29609         1         0     29612         1         0
     29615         1         0     29618         1         0     29621         1         0
     29624         1         0     29627         1         0     29630         1         0
     29633         1         0     29636         1         0     29639         1         0
     29642         1         0     29645         1         0     29648         1         0
     29651         1         0     29654         1         0     29657         1         0
     29660         1         0     29663         1         0     29666         1         0
     29669         1         0     29672         1         0     29675         1         0
     29678         1         0     29681         1         0     29684         1         0
     29687         1         0     29690         1         0     29693         1         0
     29696         1         0     29699         1         0     29702         1         0
     29705         1         0     29708         1         0     29711         1         0
     29714         1         0     29717         1         0     29720         1         0
     29723         1         0     29726         1         0     29729         1         0
     29732         1         0     29735         1         0     29738         1         0
     29741         1         0     29744         1         0     29747         1         0
     29750         1         0     29753         1         0     29756         1         0
     29759         1         0     29762         1         0     29765         1         0
     29768         1         0     29771         1         0     29774         1         0
     29777         1         0     29780         1         0     29783         1         0
     29786         1         0     29789         1         0     29792         1         0
     29795         1         0     29798         1         0     29801         1         0
     29804         1         0     29807         1         0     29810         1         0
     29813         1         0     29816         1         0     29819         1         0
     29822         1         0     29825         1         0     29828         1         0
     29831         1         0     29834         1         0     29837         1         0
     29840         1         0     29843         1         0     29846         1         0
     29849         1         0     29852         1         0     29855         1         0
     29858         1         0     29861         1         0     29864         1         0
     29867         1         0     29870         1         0     29873         1         0
     29876         1         0     29879         1         0     29882         1         0
     29885         1         0     29888         1         0     29891         1         0
     29894         1         0     29897         1         0     29900         1         0
     29903         1         0     29906         1         0     29909         1         0
     29912         1         0     29915         1         0     29918         1         0
     29921         1         0     29924         1         0     29927         1         0
     29930         1         0     29933         1         0     29936         1         0
     29939         1         0     29942         1         0     29945         1         0
     29948         1         0     29951         1         0     29954         1         0
     29957         1         0     29960         1         0     29963         1         0
     29966         1         0     29969         1         0     29972         1         0
     29975         1         0     29978         1         0     29981         1         0
     29984         1         0     29987         1         0     29990         1         0
     29993         1         0     29996         1         0     29999         1         0
     30002         1         0     30005         1         0     30008         1         0
     30011         1         0     30014         1         0     30017         1         0
     30020         1         0     30023         1         0     30026         1         0
     30029         1         0     30032         1         0     30035         1         0
     30038         1         0     30041         1         0     30044         1         0
     30047         1         0     30050         1         0     30053         1         0
     30056         1         0     30059         1         0     30062         1         0
     30065         1         0     30068         1         0     30071         1         0
     30074         1         0     30077         1         0     30080         1         0
     30083         1         0     30086         1         0     30089         1         0
     30092         1         0     30095         1         0     30098         1         0
     30101         1         0     30104         1         0     30107         1         0
     30110         1         0     30113         1         0     30116         1         0
     30119         1         0     30122         1         0     30125         1         0
     30128         1         0     30131         1         0     30134         1         0
     30137         1         0     30140         1         0     30143         1         0
     30146         1         0     30149         1         0     30152         1         0
     30155         1         0     30158         1         0     30161         1         0
     30164         1         0     30167         1         0     30170         1         0
     30173         1         0     30176         1         0     30179         1         0
     30182         1         0     30185         1         0     30188         1         0
     30191         1         0     30194         1         0     30197         1         0
     30200         1         0     30203         1         0     30206         1         0
     30209         1         0     30212         1         0     30215         1         0
     30218         1         0     30221         1         0     30224         1         0
     30227         1         0     30230         1         0     30233         1         0
     30236         1         0     30239         1         0     30242         1         0
     30245         1         0     30248         1         0     30251         1         0
     30254         1         0     30257         1         0     30260         1         0
     30263         1         0     30266         1         0     30269         1         0
     30272         1         0     30275         1         0     30278         1         0
     30281         1         0     30284         1         0     30287         1         0
     30290         1         0     30293         1         0     30296         1         0
     30299         1         0     30302         1         0     30305         1         0
     30308         1         0     30311         1         0     30314         1         0
     30317         1         0     30320         1         0     30323         1         0
     30326         1         0     30329         1         0     30332         1         0
     30335         1         0     30338         1         0     30341         1         0
     30344         1         0     30347         1         0     30350         1         0
     30353         1         0     30356         1         0     30359         1         0
     30362         1         0     30365         1         0     30368         1         0
     30371         1         0     30374         1         0     30377         1         0
     30380         1         0     30383         1         0     30386         1         0
     30389         1         0     30392         1         0     30395         1         0
     30398         1         0     30401         1         0     30404         1         0
     30407         1         0     30410         1         0     30413         1         0
     30416         1         0     30419         1         0     30422         1         0
     30425         1         0     30428         1         0     30431         1         0
     30434         1         0     30437         1         0     30440         1         0
     30443         1         0     30446         1         0     30449         1         0
     30452         1         0     30455         1         0     30458         1         0
     30461         1         0     30464         1         0     30467         1         0
     30470         1         0     30473         1         0     30476         1         0
     30479         1         0     30482         1         0     30485         1         0
     30488         1         0     30491         1         0     30494         1         0
     30497         1         0     30500         1         0     30503         1         0
     30506         1         0     30509         1         0     30512         1         0
     30515         1         0     30518         1         0     30521         1         0
     30524         1         0     30527         1         0     30530         1         0
     30533         1         0     30536         1         0     30539         1         0
     30542         1         0     30545         1         0     30548         1         0
     30551         1         0     30554         1         0     30557         1         0
     30560         1         0     30563         1         0     30566         1         0
     30569         1         0     30572         1         0     30575         1         0
     30578         1         0     30581         1         0     30584         1         0
     30587         1         0     30590         1         0     30593         1         0
     30596         1         0     30599         1         0     30602         1         0
     30605         1         0     30608         1         0     30611         1         0
     30614         1         0     30617         1         0     30620         1         0
     30623         1         0     30626         1         0     30629         1         0
     30632         1         0     30635         1         0     30638         1         0
     30641         1         0     30644         1         0     30647         1         0
     30650         1         0     30653         1         0     30656         1         0
     30659         1         0     30662         1         0     30665         1         0
     30668         1         0     30671         1         0     30674         1         0
     30677         1         0     30680         1         0     30683         1         0
     30686         1         0     30689         1         0     30692         1         0
     30695         1         0     30698         1         0     30701         1         0
     30704         1         0     30707         1         0     30710         1         0
     30713         1         0     30716         1         0     30719         1         0
     30722         1         0     30725         1         0     30728         1         0
     30731         1         0     30734         1         0     30737         1         0
     30740         1         0     30743         1         0     30746         1         0
     30749         1         0     30752         1         0     30755         1         0
     30758         1         0     30761         1         0     30764         1         0
     30767         1         0     30770         1         0     30773         1         0
     30776         1         0     30779         1         0     30782         1         0
     30785         1         0     30788         1         0     30791         1         0
     30794         1         0     30797         1         0     30800         1         0
     30803         1         0     30806         1         0     30809         1         0
     30812         1         0     30815         1         0     30818         1         0
     30821         1         0     30824         1         0     30827         1         0
     30830         1         0     30833         1         0     30836         1         0
     30839         1         0     30842         1         0     30845         1         0
     30848         1         0     30851         1         0     30854         1         0
     30857         1         0     30860         1         0     30863         1         0
     30866         1         0     30869         1         0     30872         1         0
     30875         1         0     30878         1         0     30881         1         0
     30884         1         0     30887         1         0     30890         1         0
     30893         1         0     30896         1         0     30899         1         0
     30902         1         0     30905         1         0     30908         1         0
     30911         1         0     30914         1         0     30917         1         0
     30920         1         0     30923         1         0     30926         1         0
     30929         1         0     30932         1         0     30935         1         0
     30938         1         0     30941         1         0     30944         1         0
     30947         1         0     30950         1         0     30953         1         0
     30956         1         0     30959         1         0     30962         1         0
     30965         1         0     30968         1         0     30971         1         0
     30974         1         0     30977         1         0     30980         1         0
     30983         1         0     30986         1         0     30989         1         0
     30992         1         0     30995         1         0     30998         1         0
     31001         1         0     31004         1         0     31007         1         0
     31010         1         0     31013         1         0     31016         1         0
     31019         1         0     31022         1         0     31025         1         0
     31028         1         0     31031         1         0     31034         1         0
     31037         1         0     31040         1         0     31043         1         0
     31046         1         0     31049         1         0     31052         1         0
     31055         1         0     31058         1         0     31061         1         0
     31064         1         0     31067         1         0     31070         1         0
     31073         1         0     31076         1         0     31079         1         0
     31082         1         0     31085         1         0     31088         1         0
     31091         1         0     31094         1         0     31097         1         0
     31100         1         0     31103         1         0     31106         1         0
     31109         1         0     31112         1         0     31115         1         0
     31118         1         0     31121         1         0     31124         1         0
     31127         1         0     31130         1         0     31133         1         0
     31136         1         0     31139         1         0     31142         1         0
     31145         1         0     31148         1         0     31151         1         0
     31154         1         0     31157         1         0     31160         1         0
     31163         1         0     31166         1         0     31169         1         0
     31172         1         0     31175         1         0     31178         1         0
     31181         1         0     31184         1         0     31187         1         0
     31190         1         0     31193         1         0     31196         1         0
     31199         1         0     31202         1         0     31205         1         0
     31208         1         0     31211         1         0     31214         1         0
     31217         1         0     31220         1         0     31223         1         0
     31226         1         0     31229         1         0     31232         1         0
     31235         1         0     31238         1         0     31241         1         0
     31244         1         0     31247         1         0     31250         1         0
     31253         1         0     31256         1         0     31259         1         0
     31262         1         0     31265         1         0     31268         1         0
     31271         1         0     31274         1         0     31277         1         0
     31280         1         0     31283         1         0     31286         1         0
     31289         1         0     31292         1         0     31295         1         0
     31298         1         0     31301         1         0     31304         1         0
     31307         1         0     31310         1         0     31313         1         0
     31316         1         0     31319         1         0     31322         1         0
     31325         1         0     31328         1         0     31331         1         0
     31334         1         0     31337         1         0     31340         1         0
     31343         1         0     31346         1         0     31349         1         0
     31352         1         0     31355         1         0     31358         1         0
     31361         1         0     31364         1         0     31367         1         0
     31370         1         0     31373         1         0     31376         1         0
     31379         1         0     31382         1         0     31385         1         0
     31388         1         0     31391         1         0     31394         1         0
     31397         1         0     31400         1         0     31403         1         0
     31406         1         0     31409         1         0     31412         1         0
     31415         1         0     31418         1         0     31421         1         0
     31424         1         0     31427         1         0     31430         1         0
     31433         1         0     31436         1         0     31439         1         0
     31442         1         0     31445         1         0     31448         1         0
     31451         1         0     31454         1         0     31457         1         0
     31460         1         0     31463         1         0     31466         1         0
     31469         1         0     31472         1         0     31475         1         0
     31478         1         0     31481         1         0     31484         1         0
     31487         1         0     31490         1         0     31493         1         0
     31496         1         0     31499         1         0     31502         1         0
     31505         1         0     31508         1         0     31511         1         0
     31514         1         0     31517         1         0     31520         1         0
     31523         1         0     31526         1         0     31529         1         0
     31532         1         0     31535         1         0     31538         1         0
     31541         1         0     31544         1         0     31547         1         0
     31550         1         0     31553         1         0     31556         1         0
     31559         1         0     31562         1         0     31565         1         0
     31568         1         0     31571         1         0     31574         1         0
     31577         1         0     31580         1         0     31583         1         0
     31586         1         0     31589         1         0     31592         1         0
     31595         1         0     31598         1         0     31601         1         0
     31604         1         0     31607         1         0     31610         1         0
     31613         1         0     31616         1         0     31619         1         0
     31622         1         0     31625         1         0     31628         1         0
     31631         1         0     31634         1         0     31637         1         0
     31640         1         0     31643         1         0     31646         1         0
     31649         1         0     31652         1         0     31655         1         0
     31658         1         0     31661         1         0     31664         1         0
     31667         1         0     31670         1         0     31673         1         0
     31676         1         0     31679         1         0     31682         1         0
     31685         1         0     31688         1         0     31691         1         0
     31694         1         0     31697         1         0     31700         1         0
     31703         1         0     31706         1         0     31709         1         0
     31712         1         0     31715         1         0     31718         1         0
     31721         1         0     31724         1         0     31727         1         0
     31730         1         0     31733         1         0     31736         1         0
     31739         1         0     31742         1         0     31745         1         0
     31748         1         0     31751         1         0     31754         1         0
     31757         1         0     31760         1         0     31763         1         0
     31766         1         0     31769         1         0     31772         1         0
     31775         1         0     31778         1         0     31781         1         0
     31784         1         0     31787         1         0     31790         1         0
     31793         1         0     31796         1         0     31799         1         0
     31802         1         0     31805         1         0     31808         1         0
     31811         1         0     31814         1         0     31817         1         0
     31820         1         0     31823         1         0     31826         1         0
     31829         1         0     31832         1         0     31835         1         0
     31838         1         0     31841         1         0     31844         1         0
     31847         1         0     31850         1         0     31853         1         0
     31856         1         0     31859         1         0     31862         1         0
     31865         1         0     31868         1         0     31871         1         0
     31874         1         0     31877         1         0     31880         1         0
     31883         1         0     31886         1         0     31889         1         0
     31892         1         0     31895         1         0     31898         1         0
     31901         1         0     31904         1         0     31907         1         0
     31910         1         0     31913         1         0     31916         1         0
     31919         1         0     31922         1         0     31925         1         0
     31928         1         0     31931         1         0     31934         1         0
     31937         1         0     31940         1         0     31943         1         0
     31946         1         0     31949         1         0     31952         1         0
     31955         1         0     31958         1         0     31961         1         0
     31964         1         0     31967         1         0     31970         1         0
     31973         1         0     31976         1         0     31979         1         0
     31982         1         0     31985         1         0     31988         1         0
     31991         1         0     31994         1         0     31997         1         0
     32000         1         0     32003         1         0     32006         1         0
     32009         1         0     32012         1         0     32015         1         0
     32018         1         0     32021         1         0     32024         1         0
     32027         1         0     32030         1         0     32033         1         0
     32036         1         0     32039         1         0     32042         1         0
     32045         1         0     32048         1         0     32051         1         0
     32054         1         0     32057         1         0     32060         1         0
     32063         1         0     32066         1         0     32069         1         0
     32072         1         0     32075         1         0     32078         1         0
     32081         1         0     32084         1         0     32087         1         0
     32090         1         0     32093         1         0     32096         1         0
     32099         1         0     32102         1         0     32105         1         0
     32108         1         0     32111         1         0     32114         1         0
     32117         1         0     32120         1         0     32123         1         0
     32126         1         0     32129         1         0     32132         1         0
     32135         1         0     32138         1         0     32141         1         0
     32144         1         0     32147         1         0     32150         1         0
     32153         1         0     32156         1         0     32159         1         0
     32162         1         0     32165         1         0     32168         1         0
     32171         1         0     32174         1         0     32177         1         0
     32180         1         0     32183         1         0     32186         1         0
     32189         1         0     32192         1         0     32195         1         0
     32198         1         0     32201         1         0     32204         1         0
     32207         1         0     32210         1         0     32213         1         0
     32216         1         0     32219         1         0     32222         1         0
     32225         1         0     32228         1         0     32231         1         0
     32234         1         0     32237         1         0     32240         1         0
     32243         1         0     32246         1         0     32249         1         0
     32252         1         0     32255         1         0     32258         1         0
     32261         1         0     32264         1         0     32267         1         0
     32270         1         0     32273         1         0     32276         1         0
     32279         1         0     32282         1         0     32285         1         0
     32288         1         0     32291         1         0     32294         1         0
     32297         1         0     32300         1         0     32303         1         0
     32306         1         0     32309         1         0     32312         1         0
     32315         1         0     32318         1         0     32321         1         0
     32324         1         0     32327         1         0     32330         1         0
     32333         1         0     32336         1         0     32339         1         0
     32342         1         0     32345         1         0     32348         1         0
     32351         1         0     32354         1         0     32357         1         0
     32360         1         0     32363         1         0     32366         1         0
     32369         1         0     32372         1         0     32375         1         0
     32378         1         0     32381         1         0     32384         1         0
     32387         1         0     32390         1         0     32393         1         0
     32396         1         0     32399         1         0     32402         1         0
     32405         1         0     32408         1         0     32411         1         0
     32414         1         0     32417         1         0     32420         1         0
     32423         1         0     32426         1         0     32429         1         0
     32432         1         0     32435         1         0     32438         1         0
     32441         1         0     32444         1         0     32447         1         0
     32450         1         0     32453         1         0     32456         1         0
     32459         1         0     32462         1         0     32465         1         0
     32468         1         0     32471         1         0     32474         1         0
     32477         1         0     32480         1         0     32483         1         0
     32486         1         0     32489         1         0     32492         1         0
     32495         1         0     32498         1         0     32501         1         0
     32504         1         0     32507         1         0     32510         1         0
     32513         1         0     32516         1         0     32519         1         0
     32522         1         0     32525         1         0     32528         1         0
     32531         1         0     32534         1         0     32537         1         0
     32540         1         0     32543         1         0     32546         1         0
     32549         1         0     32552         1         0     32555         1         0
     32558         1         0     32561         1         0     32564         1         0
     32567         1         0     32570         1         0     32573         1         0
     32576         1         0     32579         1         0     32582         1         0
     32585         1         0     32588         1         0     32591         1         0
     32594         1         0     32597         1         0     32600         1         0
     32603         1         0     32606         1         0     32609         1         0
     32612         1         0     32615         1         0     32618         1         0
     32621         1         0     32624         1         0     32627         1         0
     32630         1         0     32633         1         0     32636         1         0
     32639         1         0     32642         1         0     32645         1         0
     32648         1         0     32651         1         0     32654         1         0
     32657         1         0     32660         1         0     32663         1         0
     32666         1         0     32669         1         0     32672         1         0
     32675         1         0     32678         1         0     32681         1         0
     32684         1         0     32687         1         0     32690         1         0
     32693         1         0     32696         1         0     32699         1         0
     32702         1         0     32705         1         0     32708         1         0
     32711         1         0     32714         1         0     32717         1         0
     32720         1         0     32723         1         0     32726         1         0
     32729         1         0     32732         1         0     32735         1         0
     32738         1         0     32741         1         0     32744         1         0
     32747         1         0     32750         1         0     32753         1         0
     32756         1         0     32759         1         0     32762         1         0
     32765         1         0     32768         1         0     32771         1         0
     32774         1         0     32777         1         0     32780         1         0
     32783         1         0     32786         1         0     32789         1         0
     32792         1         0     32795         1         0     32798         1         0
     32801         1         0     32804         1         0     32807         1         0
     32810         1         0     32813         1         0     32816         1         0
     32819         1         0     32822         1         0     32825         1         0
     32828         1         0     32831         1         0     32834         1         0
     32837         1         0     32840         1         0     32843         1         0
     32846         1         0     32849         1         0     32852         1         0
     32855         1         0     32858         1         0     32861         1         0
     32864         1         0     32867         1         0     32870         1         0
     32873         1         0     32876         1         0     32879         1         0
     32882         1         0     32885         1         0     32888         1         0
     32891         1         0     32894         1         0     32897         1         0
     32900         1         0     32903         1         0     32906         1         0
     32909         1         0     32912         1         0     32915         1         0
     32918         1         0     32921         1         0     32924         1         0
     32927         1         0     32930         1         0     32933         1         0
     32936         1         0     32939         1         0     32942         1         0
     32945         1         0     32948         1         0     32951         1         0
     32954         1         0     32957         1         0     32960         1         0
     32963         1         0     32966         1         0     32969         1         0
     32972         1         0     32975         1         0     32978         1         0
     32981         1         0     32984         1         0     32987         1         0
     32990         1         0     32993         1         0     32996         1         0
     32999         1         0     33002         1         0     33005         1         0
     33008         1         0     33011         1         0     33014         1         0
     33017         1         0     33020         1         0     33023         1         0
     33026         1         0     33029         1         0     33032         1         0
     33035         1         0     33038         1         0     33041         1         0
     33044         1         0     33047         1         0     33050         1         0
     33053         1         0     33056         1         0     33059         1         0
     33062         1         0     33065         1         0     33068         1         0
     33071         1         0     33074         1         0     33077         1         0
     33080         1         0     33083         1         0     33086         1         0
     33089         1         0     33092         1         0     33095         1         0
     33098         1         0     33101         1         0     33104         1         0
     33107         1         0     33110         1         0     33113         1         0
     33116         1         0     33119         1         0     33122         1         0
     33125         1         0     33128         1         0     33131         1         0
     33134         1         0     33137         1         0     33140         1         0
     33143         1         0     33146         1         0     33149         1         0
     33152         1         0     33155         1         0     33158         1         0
     33161         1         0     33164         1         0     33167         1         0
     33170         1         0     33173         1         0     33176         1         0
     33179         1         0     33182         1         0     33185         1         0
     33188         1         0     33191         1         0     33194         1         0
     33197         1         0     33200         1         0     33203         1         0
     33206         1         0     33209         1         0     33212         1         0
     33215         1         0     33218         1         0     33221         1         0
     33224         1         0     33227         1         0     33230         1         0
     33233         1         0     33236         1         0     33239         1         0
     33242         1         0     33245         1         0     33248         1         0
     33251         1         0     33254         1         0     33257         1         0
     33260         1         0     33263         1         0     33266         1         0
     33269         1         0     33272         1         0     33275         1         0
     33278         1         0     33281         1         0     33284         1         0
     33287         1         0     33290         1         0     33293         1         0
     33296         1         0     33299         1         0     33302         1         0
     33305         1         0     33308         1         0     33311         1         0
     33314         1         0     33317         1         0     33320         1         0
     33323         1         0     33326         1         0     33329         1         0
     33332         1         0     33335         1         0     33338         1         0
     33341         1         0     33344         1         0     33347         1         0
     33350         1         0     33353         1         0     33356         1         0
     33359         1         0     33362         1         0     33365         1         0
     33368         1         0     33371         1         0     33374         1         0
     33377         1         0     33380         1         0     33383         1         0
     33386         1         0     33389         1         0     33392         1         0
     33395         1         0     33398         1         0     33401         1         0
     33404         1         0     33407         1         0     33410         1         0
     33413         1         0     33416         1         0     33419         1         0
     33422         1         0     33425         1         0     33428         1         0
     33431         1         0     33434         1         0     33437         1         0
     33440         1         0     33443         1         0     33446         1         0
     33449         1         0     33452         1         0     33455         1         0
     33458         1         0     33461         1         0     33464         1         0
     33467         1         0     33470         1         0     33473         1         0
     33476         1         0     33479         1         0     33482         1         0
     33485         1         0     33488         1         0     33491         1         0
     33494         1         0     33497         1         0     33500         1         0
     33503         1         0     33506         1         0     33509         1         0
     33512         1         0     33515         1         0     33518         1         0
     33521         1         0     33524         1         0     33527         1         0
     33530         1         0     33533         1         0     33536         1         0
     33539         1         0     33542         1         0     33545         1         0
     33548         1         0     33551         1         0     33554         1         0
     33557         1         0     33560         1         0     33563         1         0
     33566         1         0     33569         1         0     33572         1         0
     33575         1         0     33578         1         0     33581         1         0
     33584         1         0     33587         1         0     33590         1         0
     33593         1         0     33596         1         0     33599         1         0
     33602         1         0     33605         1         0     33608         1         0
     33611         1         0     33614         1         0     33617         1         0
     33620         1         0     33623         1         0     33626         1         0
     33629         1         0     33632         1         0     33635         1         0
     33638         1         0     33641         1         0     33644         1         0
     33647         1         0     33650         1         0     33653         1         0
     33656         1         0     33659         1         0     33662         1         0
     33665         1         0     33668         1         0     33671         1         0
     33674         1         0     33677         1         0     33680         1         0
     33683         1         0     33686         1         0     33689         1         0
     33692         1         0     33695         1         0     33698         1         0
     33701         1         0     33704         1         0     33707         1         0
     33710         1         0     33713         1         0     33716         1         0
     33719         1         0     33722         1         0     33725         1         0
     33728         1         0     33731         1         0     33734         1         0
     33737         1         0     33740         1         0     33743         1         0
     33746         1         0     33749         1         0     33752         1         0
     33755         1         0     33758         1         0     33761         1         0
     33764         1         0     33767         1         0     33770         1         0
     33773         1         0     33776         1         0     33779         1         0
     33782         1         0     33785         1         0     33788         1         0
     33791         1         0     33794         1         0     33797         1         0
     33800         1         0     33803         1         0     33806         1         0
     33809         1         0     33812         1         0     33815         1         0
     33818         1         0     33821         1         0     33824         1         0
     33827         1         0     33830         1         0     33833         1         0
     33836         1         0     33839         1         0     33842         1         0
     33845         1         0     33848         1         0     33851         1         0
     33854         1         0     33857         1         0     33860         1         0
     33863         1         0     33866         1         0     33869         1         0
     33872         1         0     33875         1         0     33878         1         0
     33881         1         0     33884         1         0     33887         1         0
     33890         1         0     33893         1         0     33896         1         0
     33899         1         0     33902         1         0     33905         1         0
     33908         1         0     33911         1         0     33914         1         0
     33917         1         0     33920         1         0     33923         1         0
     33926         1         0     33929         1         0     33932         1         0
     33935         1         0     33938         1         0     33941         1         0
     33944         1         0     33947         1         0     33950         1         0
     33953         1         0     33956         1         0     33959         1         0
     33962         1         0     33965         1         0     33968         1         0
     33971         1         0     33974         1         0     33977         1         0
     33980         1         0     33983         1         0     33986         1         0
     33989         1         0     33992         1         0     33995         1         0
     33998         1         0     34001         1         0     34004         1         0
     34007         1         0     34010         1         0     34013         1         0
     34016         1         0     34019         1         0     34022         1         0
     34025         1         0     34028         1         0     34031         1         0
     34034         1         0     34037         1         0     34040         1         0
     34043         1         0     34046         1         0     34049         1         0
     34052         1         0     34055         1         0     34058         1         0
     34061         1         0     34064         1         0     34067         1         0
     34070         1         0     34073         1         0     34076         1         0
     34079         1         0     34082         1         0     34085         1         0
     34088         1         0     34091         1         0     34094         1         0
     34097         1         0     34100         1         0     34103         1         0
     34106         1         0     34109         1         0     34112         1         0
     34115         1         0     34118         1         0     34121         1         0
     34124         1         0     34127         1         0     34130         1         0
     34133         1         0     34136         1         0     34139         1         0
     34142         1         0     34145         1         0     34148         1         0
     34151         1         0     34154         1         0     34157         1         0
     34160         1         0     34163         1         0     34166         1         0
     34169         1         0     34172         1         0     34175         1         0
     34178         1         0     34181         1         0     34184         1         0
     34187         1         0     34190         1         0     34193         1         0
     34196         1         0     34199         1         0     34202         1         0
     34205         1         0     34208         1         0     34211         1         0
     34214         1         0     34217         1         0     34220         1         0
     34223         1         0     34226         1         0     34229         1         0
     34232         1         0     34235         1         0     34238         1         0
     34241         1         0     34244         1         0     34247         1         0
     34250         1         0     34253         1         0     34256         1         0
     34259         1         0     34262         1         0     34265         1         0
     34268         1         0     34271         1         0     34274         1         0
     34277         1         0     34280         1         0     34283         1         0
     34286         1         0     34289         1         0     34292         1         0
     34295         1         0     34298         1         0     34301         1         0
     34304         1         0     34307         1         0     34310         1         0
     34313         1         0     34316         1         0     34319         1         0
     34322         1         0     34325         1         0     34328         1         0
     34331         1         0     34334         1         0     34337         1         0
     34340         1         0     34343         1         0     34346         1         0
     34349         1         0     34352         1         0     34355         1         0
     34358         1         0     34361         1         0     34364         1         0
     34367         1         0     34370         1         0     34373         1         0
     34376         1         0     34379         1         0     34382         1         0
     34385         1         0     34388         1         0     34391         1         0
     34394         1         0     34397         1         0     34400         1         0
     34403         1         0     34406         1         0     34409         1         0
     34412         1         0     34415         1         0     34418         1         0
     34421         1         0     34424         1         0     34427         1         0
     34430         1         0     34433         1         0     34436         1         0
     34439         1         0     34442         1         0     34445         1         0
     34448         1         0     34451         1         0     34454         1         0
     34457         1         0     34460         1         0     34463         1         0
     34466         1         0     34469         1         0     34472         1         0
     34475         1         0     34478         1         0     34481         1         0
     34484         1         0     34487         1         0     34490         1         0
     34493         1         0     34496         1         0     34499         1         0
     34502         1         0     34505         1         0     34508         1         0
     34511         1         0     34514         1         0     34517         1         0
     34520         1         0     34523         1         0     34526         1         0
     34529         1         0     34532         1         0     34535         1         0
     34538         1         0     34541         1         0     34544         1         0
     34547         1         0     34550         1         0     34553         1         0
     34556         1         0     34559         1         0     34562         1         0
     34565         1         0     34568         1         0     34571         1         0
     34574         1         0     34577         1         0     34580         1         0
     34583         1         0     34586         1         0     34589         1         0
     34592         1         0     34595         1         0     34598         1         0
     34601         1         0     34604         1         0     34607         1         0
     34610         1         0     34613         1         0     34616         1         0
     34619         1         0     34622         1         0     34625         1         0
     34628         1         0     34631         1         0     34634         1         0
     34637         1         0     34640         1         0     34643         1         0
     34646         1         0     34649         1         0     34652         1         0
     34655         1         0     34658         1         0     34661         1         0
     34664         1         0     34667         1         0     34670         1         0
     34673         1         0     34676         1         0     34679         1         0
     34682         1         0     34685         1         0     34688         1         0
     34691         1         0     34694         1         0     34697         1         0
     34700         1         0     34703         1         0     34706         1         0
     34709         1         0     34712         1         0     34715         1         0
     34718         1         0     34721         1         0     34724         1         0
     34727         1         0     34730         1         0     34733         1         0
     34736         1         0     34739         1         0     34742         1         0
     34745         1         0     34748         1         0     34751         1         0
     34754         1         0     34757         1         0     34760         1         0
     34763         1         0     34766         1         0     34769         1         0
     34772         1         0     34775         1         0     34778         1         0
     34781         1         0     34784         1         0     34787         1         0
     34790         1         0     34793         1         0     34796         1         0
     34799         1         0     34802         1         0     34805         1         0
     34808         1         0     34811         1         0     34814         1         0
     34817         1         0     34820         1         0     34823         1         0
     34826         1         0     34829         1         0     34832         1         0
     34835         1         0     34838         1         0     34841         1         0
     34844         1         0     34847         1         0     34850         1         0
     34853         1         0     34856         1         0     34859         1         0
     34862         1         0     34865         1         0     34868         1         0
     34871         1         0     34874         1         0     34877         1         0
     34880         1         0     34883         1         0     34886         1         0
     34889         1         0     34892         1         0     34895         1         0
     34898         1         0     34901         1         0     34904         1         0
     34907         1         0     34910         1         0     34913         1         0
     34916         1         0     34919         1         0     34922         1         0
     34925         1         0     34928         1         0     34931         1         0
     34934         1         0     34937         1         0     34940         1         0
     34943         1         0     34946         1         0     34949         1         0
     34952         1         0     34955         1         0     34958         1         0
     34961         1         0     34964         1         0     34967         1         0
     34970         1         0     34973         1         0     34976         1         0
     34979         1         0     34982         1         0     34985         1         0
     34988         1         0     34991         1         0     34994         1         0
     34997         1         0     35000         1         0     35003         1         0
     35006         1         0     35009         1         0     35012         1         0
     35015         1         0     35018         1         0     35021         1         0
     35024         1         0     35027         1         0     35030         1         0
     35033         1         0     35036         1         0     35039         1         0
     35042         1         0     35045         1         0     35048         1         0
     35051         1         0     35054         1         0     35057         1         0
     35060         1         0     35063         1         0     35066         1         0
     35069         1         0     35072         1         0     35075         1         0
     35078         1         0     35081         1         0     35084         1         0
     35087         1         0     35090         1         0     35093         1         0
     35096         1         0     35099         1         0     35102         1         0
     35105         1         0     35108         1         0     35111         1         0
     35114         1         0     35117         1         0     35120         1         0
     35123         1         0     35126         1         0     35129         1         0
     35132         1         0     35135         1         0     35138         1         0
     35141         1         0     35144         1         0     35147         1         0
     35150         1         0     35153         1         0     35156         1         0
     35159         1         0     35162         1         0     35165         1         0
     35168         1         0     35171         1         0     35174         1         0
     35177         1         0     35180         1         0     35183         1         0
     35186         1         0     35189         1         0     35192         1         0
     35195         1         0     35198         1         0     35201         1         0
     35204         1         0     35207         1         0     35210         1         0
     35213         1         0     35216         1         0     35219         1         0
     35222         1         0     35225         1         0     35228         1         0
     35231         1         0     35234         1         0     35237         1         0
     35240         1         0     35243         1         0     35246         1         0
     35249         1         0     35252         1         0     35255         1         0
     35258         1         0     35261         1         0     35264         1         0
     35267         1         0     35270         1         0     35273         1         0
     35276         1         0     35279         1         0     35282         1         0
     35285         1         0     35288         1         0     35291         1         0
     35294         1         0     35297         1         0     35300         1         0
     35303         1         0     35306         1         0     35309         1         0
     35312         1         0     35315         1         0     35318         1         0
     35321         1         0     35324         1         0     35327         1         0
     35330         1         0     35333         1         0     35336         1         0
     35339         1         0     35342         1         0     35345         1         0
     35348         1         0     35351         1         0     35354         1         0
     35357         1         0     35360         1         0     35363         1         0
     35366         1         0     35369         1         0     35372         1         0
     35375         1         0     35378         1         0     35381         1         0
     35384         1         0     35387         1         0     35390         1         0
     35393         1         0     35396         1         0     35399         1         0
     35402         1         0     35405         1         0     35408         1         0
     35411         1         0     35414         1         0     35417         1         0
     35420         1         0     35423         1         0     35426         1         0
     35429         1         0     35432         1         0     35435         1         0
     35438         1         0     35441         1         0     35444         1         0
     35447         1         0     35450         1         0     35453         1         0
     35456         1         0     35459         1         0     35462         1         0
     35465         1         0     35468         1         0     35471         1         0
     35474         1         0     35477         1         0     35480         1         0
     35483         1         0     35486         1         0     35489         1         0
     35492         1         0     35495         1         0     35498         1         0
     35501         1         0     35504         1         0     35507         1         0
     35510         1         0     35513         1         0     35516         1         0
     35519         1         0     35522         1         0     35525         1         0
     35528         1         0     35531         1         0     35534         1         0
     35537         1         0     35540         1         0     35543         1         0
     35546         1         0     35549         1         0     35552         1         0
     35555         1         0     35558         1         0     35561         1         0
     35564         1         0     35567         1         0     35570         1         0
     35573         1         0     35576         1         0     35579         1         0
     35582         1         0     35585         1         0     35588         1         0
     35591         1         0     35594         1         0     35597         1         0
     35600         1         0     35603         1         0     35606         1         0
     35609         1         0     35612         1         0     35615         1         0
     35618         1         0     35621         1         0     35624         1         0
     35627         1         0     35630         1         0     35633         1         0
     35636         1         0     35639         1         0     35642         1         0
     35645         1         0     35648         1         0     35651         1         0
     35654         1         0     35657         1         0     35660         1         0
     35663         1         0     35666         1         0     35669         1         0
     35672         1         0     35675         1         0     35678         1         0
     35681         1         0     35684         1         0     35687         1         0
     35690         1         0     35693         1         0     35696         1         0
     35699         1         0     35702         1         0     35705         1         0
     35708         1         0     35711         1         0     35714         1         0
     35717         1         0     35720         1         0     35723         1         0
     35726         1         0     35729         1         0     35732         1         0
     35735         1         0     35738         1         0     35741         1         0
     35744         1         0     35747         1         0     35750         1         0
     35753         1         0     35756         1         0     35759         1         0
     35762         1         0     35765         1         0     35768         1         0
     35771         1         0     35774         1         0     35777         1         0
     35780         1         0     35783         1         0     35786         1         0
     35789         1         0     35792         1         0     35795         1         0
     35798         1         0     35801         1         0     35804         1         0
     35807         1         0     35810         1         0     35813         1         0
     35816         1         0     35819         1         0     35822         1         0
     35825         1         0     35828         1         0     35831         1         0
     35834         1         0     35837         1         0     35840         1         0
     35843         1         0     35846         1         0     35849         1         0
     35852         1         0     35855         1         0     35858         1         0
     35861         1         0     35864         1         0     35867         1         0
     35870         1         0     35873         1         0     35876         1         0
     35879         1         0     35882         1         0     35885         1         0
     35888         1         0     35891         1         0     35894         1         0
     35897         1         0     35900         1         0     35903         1         0
     35906         1         0     35909         1         0     35912         1         0
     35915         1         0     35918         1         0     35921         1         0
     35924         1         0     35927         1         0     35930         1         0
     35933         1         0     35936         1         0     35939         1         0
     35942         1         0     35945         1         0     35948         1         0
     35951         1         0     35954         1         0     35957         1         0
     35960         1         0     35963         1         0     35966         1         0
     35969         1         0     35972         1         0     35975         1         0
     35978         1         0     35981         1         0     35984         1         0
     35987         1         0     35990         1         0     35993         1         0
     35996         1         0     35999         1         0     36002         1         0
     36005         1         0     36008         1         0     36011         1         0
     36014         1         0     36017         1         0     36020         1         0
     36023         1         0     36026         1         0     36029         1         0
     36032         1         0     36035         1         0     36038         1         0
     36041         1         0     36044         1         0     36047         1         0
     36050         1         0     36053         1         0     36056         1         0
     36059         1         0     36062         1         0     36065         1         0
     36068         1         0     36071         1         0     36074         1         0
     36077         1         0     36080         1         0     36083         1         0
     36086         1         0     36089         1         0     36092         1         0
     36095         1         0     36098         1         0     36101         1         0
     36104         1         0     36107         1         0     36110         1         0
     36113         1         0     36116         1         0     36119         1         0
     36122         1         0     36125         1         0     36128         1         0
     36131         1         0     36134         1         0     36137         1         0
     36140         1         0     36143         1         0     36146         1         0
     36149         1         0     36152         1         0     36155         1         0
     36158         1         0     36161         1         0     36164         1         0
     36167         1         0     36170         1         0     36173         1         0
     36176         1         0     36179         1         0     36182         1         0
     36185         1         0     36188         1         0     36191         1         0
     36194         1         0     36197         1         0     36200         1         0
     36203         1         0     36206         1         0     36209         1         0
     36212         1         0     36215         1         0     36218         1         0
     36221         1         0     36224         1         0     36227         1         0
     36230         1         0     36233         1         0     36236         1         0
     36239         1         0     36242         1         0     36245         1         0
     36248         1         0     36251         1         0     36254         1         0
     36257         1         0     36260         1         0     36263         1         0
     36266         1         0     36269         1         0     36272         1         0
     36275         1         0     36278         1         0     36281         1         0
     36284         1         0     36287         1         0     36290         1         0
     36293         1         0     36296         1         0     36299         1         0
     36302         1         0     36305         1         0     36308         1         0
     36311         1         0     36314         1         0     36317         1         0
     36320         1         0     36323         1         0     36326         1         0
     36329         1         0     36332         1         0     36335         1         0
     36338         1         0     36341         1         0     36344         1         0
     36347         1         0     36350         1         0     36353         1         0
     36356         1         0     36359         1         0     36362         1         0
     36365         1         0     36368         1         0     36371         1         0
     36374         1         0     36377         1         0     36380         1         0
     36383         1         0     36386         1         0     36389         1         0
     36392         1         0     36395         1         0     36398         1         0
     36401         1         0     36404         1         0     36407         1         0
     36410         1         0     36413         1         0     36416         1         0
     36419         1         0     36422         1         0     36425         1         0
     36428         1         0     36431         1         0     36434         1         0
     36437         1         0     36440         1         0     36443         1         0
     36446         1         0     36449         1         0     36452         1         0
     36455         1         0     36458         1         0     36461         1         0
     36464         1         0     36467         1         0     36470         1         0
     36473         1         0     36476         1         0     36479         1         0
     36482         1         0     36485         1         0     36488         1         0
     36491         1         0     36494         1         0     36497         1         0
     36500         1         0     36503         1         0     36506         1         0
     36509         1         0     36512         1         0     36515         1         0
     36518         1         0     36521         1         0     36524         1         0
     36527         1         0     36530         1         0     36533         1         0
     36536         1         0     36539         1         0     36542         1         0
     36545         1         0     36548         1         0     36551         1         0
     36554         1         0     36557         1         0     36560         1         0
     36563         1         0     36566         1         0     36569         1         0
     36572         1         0     36575         1         0     36578         1         0
     36581         1         0     36584         1         0     36587         1         0
     36590         1         0     36593         1         0     36596         1         0
     36599         1         0     36602         1         0     36605         1         0
     36608         1         0     36611         1         0     36614         1         0
     36617         1         0     36620         1         0     36623         1         0
     36626         1         0     36629         1         0     36632         1         0
     36635         1         0     36638         1         0     36641         1         0
     36644         1         0     36647         1         0     36650         1         0
     36653         1         0     36656         1         0     36659         1         0
     36662         1         0     36665         1         0     36668         1         0
     36671         1         0     36674         1         0     36677         1         0
     36680         1         0     36683         1         0     36686         1         0
     36689         1         0     36692         1         0     36695         1         0
     36698         1         0     36701         1         0     36704         1         0
     36707         1         0     36710         1         0     36713         1         0
     36716         1         0     36719         1         0     36722         1         0
     36725         1         0     36728         1         0     36731         1         0
     36734         1         0     36737         1         0     36740         1         0
     36743         1         0     36746         1         0     36749         1         0
     36752         1         0     36755         1         0     36758         1         0
     36761         1         0     36764         1         0     36767         1         0
     36770         1         0     36773         1         0     36776         1         0
     36779         1         0     36782         1         0     36785         1         0
     36788         1         0     36791         1         0     36794         1         0
     36797         1         0     36800         1         0     36803         1         0
     36806         1         0     36809         1         0     36812         1         0
     36815         1         0     36818         1         0     36821         1         0
     36824         1         0     36827         1         0     36830         1         0
     36833         1         0     36836         1         0     36839         1         0
     36842         1         0     36845         1         0     36848         1         0
     36851         1         0     36854         1         0     36857         1         0
     36860         1         0     36863         1         0     36866         1         0
     36869         1         0     36872         1         0     36875         1         0
     36878         1         0     36881         1         0     36884         1         0
     36887         1         0     36890         1         0     36893         1         0
     36896         1         0     36899         1         0     36902         1         0
     36905         1         0     36908         1         0     36911         1         0
     36914         1         0     36917         1         0     36920         1         0
     36923         1         0     36926         1         0     36929         1         0
     36932         1         0     36935         1         0     36938         1         0
     36941         1         0     36944         1         0     36947         1         0
     36950         1         0     36953         1         0     36956         1         0
     36959         1         0     36962         1         0     36965         1         0
     36968         1         0     36971         1         0     36974         1         0
     36977         1         0     36980         1         0     36983         1         0
     36986         1         0     36989         1         0     36992         1         0
     36995         1         0     36998         1         0     37001         1         0
     37004         1         0     37007         1         0     37010         1         0
     37013         1         0     37016         1         0     37019         1         0
     37022         1         0     37025         1         0     37028         1         0
     37031         1         0     37034         1         0     37037         1         0
     37040         1         0     37043         1         0     37046         1         0
     37049         1         0     37052         1         0     37055         1         0
     37058         1         0     37061         1         0     37064         1         0
     37067         1         0     37070         1         0     37073         1         0
     37076         1         0     37079         1         0     37082         1         0
     37085         1         0     37088         1         0     37091         1         0
     37094         1         0     37097         1         0     37100         1         0
     37103         1         0     37106         1         0     37109         1         0
     37112         1         0     37115         1         0     37118         1         0
     37121         1         0     37124         1         0     37127         1         0
     37130         1         0     37133         1         0     37136         1         0
     37139         1         0     37142         1         0     37145         1         0
     37148         1         0     37151         1         0     37154         1         0
     37157         1         0     37160         1         0     37163         1         0
     37166         1         0     37169         1         0     37172         1         0
     37175         1         0     37178         1         0     37181         1         0
     37184         1         0     37187         1         0     37190         1         0
     37193         1         0     37196         1         0     37199         1         0
     37202         1         0     37205         1         0     37208         1         0
     37211         1         0     37214         1         0     37217         1         0
     37220         1         0     37223         1         0     37226         1         0
     37229         1         0     37232         1         0     37235         1         0
     37238         1         0     37241         1         0     37244         1         0
     37247         1         0     37250         1         0     37253         1         0
     37256         1         0     37259         1         0     37262         1         0
     37265         1         0     37268         1         0     37271         1         0
     37274         1         0     37277         1         0     37280         1         0
     37283         1         0     37286         1         0     37289         1         0
     37292         1         0     37295         1         0     37298         1         0
     37301         1         0     37304         1         0     37307         1         0
     37310         1         0     37313         1         0     37316         1         0
     37319         1         0     37322         1         0     37325         1         0
     37328         1         0     37331         1         0     37334         1         0
     37337         1         0     37340         1         0     37343         1         0
     37346         1         0     37349         1         0     37352         1         0
     37355         1         0     37358         1         0     37361         1         0
     37364         1         0     37367         1         0     37370         1         0
     37373         1         0     37376         1         0     37379         1         0
     37382         1         0     37385         1         0     37388         1         0
     37391         1         0     37394         1         0     37397         1         0
     37400         1         0     37403         1         0     37406         1         0
     37409         1         0     37412         1         0     37415         1         0
     37418         1         0     37421         1         0     37424         1         0
     37427         1         0     37430         1         0     37433         1         0
     37436         1         0     37439         1         0     37442         1         0
     37445         1         0     37448         1         0     37451         1         0
     37454         1         0     37457         1         0     37460         1         0
     37463         1         0     37466         1         0     37469         1         0
     37472         1         0     37475         1         0     37478         1         0
     37481         1         0     37484         1         0     37487         1         0
     37490         1         0     37493         1         0     37496         1         0
     37499         1         0     37502         1         0     37505         1         0
     37508         1         0     37511         1         0     37514         1         0
     37517         1         0     37520         1         0     37523         1         0
     37526         1         0     37529         1         0     37532         1         0
     37535         1         0     37538         1         0     37541         1         0
     37544         1         0     37547         1         0     37550         1         0
     37553         1         0     37556         1         0     37559         1         0
     37562         1         0     37565         1         0     37568         1         0
     37571         1         0     37574         1         0     37577         1         0
     37580         1         0     37583         1         0     37586         1         0
     37589         1         0     37592         1         0     37595         1         0
     37598         1         0     37601         1         0     37604         1         0
     37607         1         0     37610         1         0     37613         1         0
     37616         1         0     37619         1         0     37622         1         0
     37625         1         0     37628         1         0     37631         1         0
     37634         1         0     37637         1         0     37640         1         0
     37643         1         0     37646         1         0     37649         1         0
     37652         1         0     37655         1         0     37658         1         0
     37661         1         0     37664         1         0     37667         1         0
     37670         1         0     37673         1         0     37676         1         0
     37679         1         0     37682         1         0     37685         1         0
     37688         1         0     37691         1         0     37694         1         0
     37697         1         0     37700         1         0     37703         1         0
     37706         1         0     37709         1         0     37712         1         0
     37715         1         0     37718         1         0     37721         1         0
     37724         1         0     37727         1         0     37730         1         0
     37733         1         0     37736         1         0     37739         1         0
     37742         1         0     37745         1         0     37748         1         0
     37751         1         0     37754         1         0     37757         1         0
     37760         1         0     37763         1         0     37766         1         0
     37769         1         0     37772         1         0     37775         1         0
     37778         1         0     37781         1         0     37784         1         0
     37787         1         0     37790         1         0     37793         1         0
     37796         1         0     37799         1         0     37802         1         0
     37805         1         0     37808         1         0     37811         1         0
     37814         1         0     37817         1         0     37820         1         0
     37823         1         0     37826         1         0     37829         1         0
     37832         1         0     37835         1         0     37838         1         0
     37841         1         0     37844         1         0     37847         1         0
     37850         1         0     37853         1         0     37856         1         0
     37859         1         0     37862         1         0     37865         1         0
     37868         1         0     37871         1         0     37874         1         0
     37877         1         0     37880         1         0     37883         1         0
     37886         1         0     37889         1         0     37892         1         0
     37895         1         0     37898         1         0     37901         1         0
     37904         1         0     37907         1         0     37910         1         0
     37913         1         0     37916         1         0     37919         1         0
     37922         1         0     37925         1         0     37928         1         0
     37931         1         0     37934         1         0     37937         1         0
     37940         1         0     37943         1         0     37946         1         0
     37949         1         0     37952         1         0     37955         1         0
     37958         1         0     37961         1         0     37964         1         0
     37967         1         0     37970         1         0     37973         1         0
     37976         1         0     37979         1         0     37982         1         0
     37985         1         0     37988         1         0     37991         1         0
     37994         1         0     37997         1         0     38000         1         0
     38003         1         0     38006         1         0     38009         1         0
     38012         1         0     38015         1         0     38018         1         0
     38021         1         0     38024         1         0     38027         1         0
     38030         1         0     38033         1         0     38036         1         0
     38039         1         0     38042         1         0     38045         1         0
     38048         1         0     38051         1         0     38054         1         0
     38057         1         0     38060         1         0     38063         1         0
     38066         1         0     38069         1         0     38072         1         0
     38075         1         0     38078         1         0     38081         1         0
     38084         1         0     38087         1         0     38090         1         0
     38093         1         0     38096         1         0     38099         1         0
     38102         1         0     38105         1         0     38108         1         0
     38111         1         0     38114         1         0     38117         1         0
     38120         1         0     38123         1         0     38126         1         0
     38129         1         0     38132         1         0     38135         1         0
     38138         1         0     38141         1         0     38144         1         0
     38147         1         0     38150         1         0     38153         1         0
     38156         1         0     38159         1         0     38162         1         0
     38165         1         0     38168         1         0     38171         1         0
     38174         1         0     38177         1         0     38180         1         0
     38183         1         0     38186         1         0     38189         1         0
     38192         1         0     38195         1         0     38198         1         0
     38201         1         0     38204         1         0     38207         1         0
     38210         1         0     38213         1         0     38216         1         0
     38219         1         0     38222         1         0     38225         1         0
     38228         1         0     38231         1         0     38234         1         0
     38237         1         0     38240         1         0     38243         1         0
     38246         1         0     38249         1         0     38252         1         0
     38255         1         0     38258         1         0     38261         1         0
     38264         1         0     38267         1         0     38270         1         0
     38273         1         0     38276         1         0     38279         1         0
     38282         1         0     38285         1         0     38288         1         0
     38291         1         0     38294         1         0     38297         1         0
     38300         1         0     38303         1         0     38306         1         0
     38309         1         0     38312         1         0     38315         1         0
     38318         1         0     38321         1         0     38324         1         0
     38327         1         0     38330         2         0     38331         2         0
     38332         2         0     38333         2         0     38334         2         0
     38335         2         0     38336         2         0     38337         2         0
     38338         2         0     38339         2         0     38340         2         0
     38341         2         0     38342         2         0     38343         2         0
     38344         2         0     38345         2         0     38346         2         0
     38347         2         0     38348         2         0     38349         2         0
     38350         2         0     38351         2         0     38352         2         0
     38353         2         0     38354         2         0     38355         2         0
     38356         2         0     38357         2         0     38358         2         0
     38359         2         0     38360         2         0     38361         2         0
     38362         2         0     38363         2         0     38364         2         0
     38365         2         0     38366         2         0     38367         2         0
     38368         2         0     38369         2         0     38370         2         0
     38371         2         0     38372         2         0     38373         2         0
     38374         2         0     38375         2         0     38376         2         0
     38377         2         0     38378         2         0     38379         2         0
     38380         2         0     38381         2         0     38382         2         0
     38383         2         0     38384         2         0     38385         2         0
     38386         2         0     38387         2         0     38388         2         0
     38389         2         0     38390         2         0     38391         2         0
     38392         2         0     38393         2         0     38394         2         0
     38395         2         0     38396         2         0     38397         2         0
     38398         2         0     38399         2         0     38400         2         0
     38401         2         0     38402         2         0     38403         2         0
     38404         2         0     38405         2         0     38406         2         0
     38407         2         0     38408         2         0     38409         2         0
     38410         2         0     38411         2         0     38412         2         0
     38413         2         0     38414         2         0     38415         2         0
     38416         2         0     38417         2         0     38418         2         0
     38419         2         0     38420         2         0     38421         2         0
     38422         2         0     38423         2         0     38424         2         0
     38425         2         0     38426         2         0     38427         2         0
     38428         2         0     38429         2         0     38430         2         0
     38431         2         0     38432         2         0     38433         2         0
     38434         2         0     38435         2         0     38436         2         0
     38437         2         0     38438         2         0     38439         2         0
     38440         2         0     38441         2         0     38442         2         0
     38443         2         0     38444         2         0     38445         2         0
     38446         2         0     38447         2         0     38448         2         0
     38449         2         0     38450         2         0     38451         2         0
     38452         2         0     38453         2         0     38454         2         0
     38455         2         0     38456         2         0     38457         2         0
     38458         2         0     38459         2         0     38460         2         0
     38461         2         0     38462         2         0     38463         2         0
     38464         2         0     38465         2         0     38466         2         0
     38467         2         0     38468         2         0     38469         2         0
     38470         2         0     38471         2         0     38472         2         0
     38473         2         0     38474         2         0     38475         2         0
     38476         2         0     38477         2         0     38478         2         0
     38479         2         0     38480         2         0     38481         2         0
     38482         2         0     38483         2         0     38484         2         0
     38485         2         0     38486         2         0     38487         2         0
     38488         2         0     38489         2         0     38490         2         0
     38491         2         0     38492         2         0     38493         2         0
     38494         2         0     38495         2         0     38496         2         0
     38497         2         0     38498         2         0     38499         2         0
     38500         2         0     38501         2         0     38502         2         0
     38503         2         0     38504         2         0     38505         2         0
     38506         2         0     38507         2         0     38508         2         0
     38509         2         0     38510         2         0     38511         2         0
     38512         2         0     38513         2         0     38514         2         0
     38515         2         0     38516         2         0     38517         2         0
     38518         2         0     38519         2         0     38520         2         0
     38521         2         0     38522         2         0     38523         2         0
     38524         2         0     38525         2         0     38526         2         0
     38527         2         0     38528         2         0     38529         2         0
     38530         2         0     38531         2         0     38532         2         0
     38533         2         0     38534         2         0     38535         2         0
     38536         2         0     38537         2         0     38538         2         0
     38539         2         0     38540         2         0     38541         2         0
     38542         2         0     38543         2         0     38544         2         0
     38545         2         0     38546         2         0     38547         2         0
     38548         2         0     38549         2         0     38550         2         0
     38551         2         0     38552         2         0     38553         2         0
     38554         2         0     38555         2         0     38556         2         0
     38557         2         0     38558         2         0     38559         2         0
     38560         2         0     38561         2         0     38562         2         0
     38563         2         0     38564         2         0     38565         2         0
     38566         2         0     38567         2         0     38568         2         0
     38569         2         0     38570         2         0     38571         2         0
     38572         2         0     38573         2         0     38574         2         0
     38575         2         0     38576         2         0     38577         2         0
     38578         2         0     38579         2         0     38580         2         0
     38581         2         0     38582         2         0     38583         2         0
     38584         2         0     38585         2         0     38586         2         0
     38587         2         0     38588         2         0     38589         2         0
     38590         2         0     38591         2         0     38592         2         0
     38593         2         0     38594         2         0     38595         2         0
     38596         2         0     38597         2         0     38598         2         0
     38599         2         0     38600         2         0     38601         2         0
     38602         2         0     38603         2         0     38604         2         0
     38605         2         0     38606         2         0     38607         2         0
     38608         2         0     38609         2         0     38610         2         0
     38611         2         0     38612         2         0     38613         2         0
     38614         2         0     38615         2         0     38616         2         0
     38617         2         0     38618         2         0     38619         2         0
     38620         2         0     38621         2         0     38622         2         0
     38623         2         0     38624         2         0     38625         2         0
     38626         2         0     38627         2         0     38628         2         0
     38629         2         0     38630         2         0     38631         2         0
     38632         2         0     38633         2         0     38634         2         0
     38635         2         0     38636         2         0     38637         2         0
     38638         2         0     38639         2         0     38640         2         0
     38641         2         0     38642         2         0     38643         2         0
     38644         2         0     38645         2         0     38646         2         0
     38647         2         0     38648         2         0     38649         2         0
     38650         2         0     38651         2         0     38652         2         0
     38653         2         0     38654         2         0     38655         2         0
     38656         2         0     38657         2         0     38658         2         0
     38659         2         0     38660         2         0     38661         2         0
     38662         2         0     38663         2         0     38664         2         0
     38665         2         0     38666         2         0     38667         2         0
     38668         2         0     38669         2         0     38670         2         0
     38671         2         0     38672         2         0     38673         2         0
     38674         2         0     38675         2         0     38676         2         0
     38677         2         0     38678         2         0     38679         2         0
     38680         2         0     38681         2         0     38682         2         0
     38683         2         0     38684         2         0     38685         2         0
     38686         2         0     38687         2         0     38688         2         0
     38689         2         0     38690         2         0     38691         2         0
     38692         2         0     38693         2         0     38694         2         0
     38695         2         0     38696         2         0     38697         2         0
     38698         2         0     38699         2         0     38700         2         0
     38701         2         0     38702         2         0     38703         2         0
     38704         2         0     38705         2         0     38706         2         0
     38707         2         0     38708         2         0     38709         2         0
     38710         2         0     38711         2         0     38712         2         0
     38713         2         0     38714         2         0     38715         2         0
     38716         2         0     38717         2         0     38718         2         0
     38719         2         0     38720         2         0     38721         2         0
     38722         2         0     38723         2         0     38724         2         0
     38725         2         0     38726         2         0     38727         2         0
     38728         2         0     38729         2         0     38730         2         0
     38731         2         0     38732         2         0     38733         2         0
     38734         2         0     38735         2         0     38736         2         0
     38737         2         0     38738         2         0     38739         2         0
     38740         2         0     38741         2         0     38742         2         0
     38743         2         0     38744         2         0     38745         2         0
     38746         2         0     38747         2         0     38748         2         0
     38749         2         0     38750         2         0     38751         2         0
     38752         2         0     38753         2         0     38754         2         0
     38755         2         0     38756         2         0     38757         2         0
     38758         2         0     38759         2         0     38760         2         0
     38761         2         0     38762         2         0     38763         2         0
     38764         2         0     38765         2         0     38766         2         0
     38767         2         0     38768         2         0     38769         2         0
     38770         2         0     38771         2         0     38772         2         0
     38773         2         0     38774         2         0     38775         2         0
     38776         2         0     38777         2         0     38778         2         0
     38779         2         0

         0         0 !NUMLP NUMLPH

        24 !NCRTERM: cross-terms
         8        10        12        18        10        12        18        20
        18        20        22        37        20        22        37        39
        37        39        41        47        39        41        47        49
        47        49        51        63        49        51        63        65
        63        65        67        79        65        67        79        81
        79        81        83        95        81        83        95        97
        95        97        99       119        97        99       119       121
       119       121       123       138       121       123       138       140
       138       140       142       162       140       142       162       164
       162       164       166       181       164       166       181       183
       181       183       185       205       183       185       205       207
       205       207       209       224       207       209       224       226
       258       260       262       268       260       262       268       270
       268       270       272       287       270       272       287       289
       287       289       291       297       289       291       297       299
       297       299       301       313       299       301       313       315
       313       315       317       329       315       317       329       331
       329       331       333       345       331       333       345       347
       345       347       349       369       347       349       369       371
       369       371       373       388       371       373       388       390
       388       390       392       412       390       392       412       414
       412       414       416       431       414       416       431       433
       431       433       435       455       433       435       455       457
       455       457       459       474       457       459       474       476

      6538 !AUTOGEN
         0         0         0         0         0         0         0         0
         0         0         0         0         0         0         0         0
         0         0         0         0         0         0         0         0
         0         0         0         0         0         0         0         0
         0         0         0         0         0         0         0         0
         0         0         0         0         0         0         0         0
         0         0         0         0         0         0         0         0
         0         0         0         0         0         0         0         0
         0         0         0         0         0         0         0         0
         0         0         0         0         0         0         0         0
         0         0         0         0         0         0         0         0
         0         0         0         0         0         0         0         0
         0         0         0         0         0         0         0         0
         0         0         0         0         0         0         0         0
         0         0         0         0         0         0         0         0
         0         0         0         0         0         0         0         0
         0         0         0         0         0         0         0         0
         0         0         0         0         0         0         0         0
         0         0         0         0         0         0         0         0
         0         0         0         0         0         0         0         0
         0         0         0         0         0         0         0         0
         0         0         0         0         0         0         0         0
         0         0         0         0         0         0         0         0
         0         0         0         0         0         0         0         0
         0         0         0         0         0         0         0         0
         0         0         0         0         0         0         0         0
         0         0         0         0         0         0         0         0
         0         0         0         0         0         0         0         0
         0         0         0         0         0         0         0         0
         0         0         0         0         0         0         0         0
         0         0         0         0         0         0         0         0
         0         0         0         0         0         0         0         0
         0         0         0         0         0         0         0         0
         0         0         0         0         0         0         0         0
         0         0         0         0         0         0         0         0
         0         0         0         0         0         0         0         0
         0         0         0         0         0         0         0         0
         0         0         0         0         0         0         0         0
         0         0         0         0         0         0         0         0
         0         0         0         0         0         0         0         0
         0         0         0         0         0         0         0         0
         0         0         0         0         0         0         0         0
         0         0         0         0         0         0         0         0
         0         0         0         0         0         0         0         0
         0         0         0         0         0         0         0         0
         0         0         0         0         0         0         0         0
         0         0         0         0         0         0         0         0
         0         0         0         0         0         0         0         0
         0         0         0         0         0         0         0         0
         0         0         0         0         0         0         0         0
         0         0         0         0         0         0         0         0
         0         0         0         0         0         0         0         0
         0         0         0         0         0         0         0         0
         0         0         0         0         0         0         0         0
         0         0         0         0         0         0         0         0
         0         0         0         0         0         0         0         0
         0         0         0         0         0         0         0         0
         0         0         0         0         0         0         0         0
         0         0         0         0         0         0         0         0
         0         0         0         0         0         0         0         0
         0         0         0         0         0         0         0         0
         0         0         0         0         0         0         0         0
         0         0         0         0         0         0         0         0
         0         0         0         0         0         0         0         0
         0         0         0         0         0         0         0         0
         0         0         0         0         0         0         0         0
         0         0         0         0         0         0         0         0
         0         0         0         0         0         0         0         0
         0         0         0         0         0         0         0         0
         0         0         0         0         0         0         0         0
         0         0         0         0         0         0         0         0
         0         0         0         0         0         0         0         0
         0         0         0         0         0         0         0         0
         0         0         0         0         0         0         0         0
         0         0         0         0         0         0         0         0
         0         0         0         0         0         0         0         0
         0         0         0         0         0         0         0         0
         0         0         0         0         0         0         0         0
         0         0         0         0         0         0         0         0
         0         0         0         0         0         0         0         0
         0         0         0         0         0         0         0         0
         0         0         0         0         0         0         0         0
         0         0         0         0         0         0         0         0
         0         0         0         0         0         0         0         0
         0         0         0         0         0         0         0         0
         0         0         0         0         0         0         0         0
         0         0         0         0         0         0         0         0
         0         0         0         0         0         0         0         0
         0         0         0         0         0         0         0         0
         0         0         0         0         0         0         0         0
         0         0         0         0         0         0         0         0
         0         0         0         0         0         0         0         0
         0         0         0         0         0         0         0         0
         0         0         0         0         0         0         0         0
         0         0         0         0         0         0         0         0
         0         0         0         0         0         0         0         0
         0         0         0         0         0         0         0         0
         0         0         0         0         0         0         0         0
         0         0         0         0         0         0         0         0
         0         0         0         0         0         0         0         0
         0         0         0         0         0         0         0         0
         0         0         0         0         0         0         0         0
         0         0         0         0         0         0         0         0
         0         0         0         0         0         0         0         0
         0         0         0         0         0         0         0         0
         0         0         0         0         0         0         0         0
         0         0         0         0         0         0         0         0
         0         0         0         0         0         0         0         0
         0         0         0         0         0         0         0         0
         0         0         0         0         0         0         0         0
         0         0         0         0         0         0         0         0
         0         0         0         0         0         0         0         0
         0         0         0         0         0         0         0         0
         0         0         0         0         0         0         0         0
         0         0         0         0         0         0         0         0
         0         0         0         0         0         0         0         0
         0         0         0         0         0         0         0         0
         0         0         0         0         0         0         0         0
         0         0         0         0         0         0         0         0
         0         0         0         0         0         0         0         0
         0         0         0         0         0         0         0         0
         0         0         0         0         0         0         0         0
         0         0         0         0         0         0         0         0
         0         0         0         0         0         0         0         0
         0         0         0         0         0         0         0         0
         0         0         0         0         0         0         0         0
         0         0         0         0         0         0         0         0
         0         0         0         0         0         0         0         0
         0         0         0         0         0         0         0         0
         0         0         0         0         0         0         0         0
         0         0         0         0         0         0         0         0
         0         0         0         0         0         0         0         0
         0         0         0         0         0         0         0         0
         0         0         0         0         0         0         0         0
         0         0         0         0         0         0         0         0
         0         0         0         0         0         0         0         0
         0         0         0         0         0         0         0         0
         0         0         0         0         0         0         0         0
         0         0         0         0         0         0         0         0
         0         0         0         0         0         0         0         0
         0         0         0         0         0         0         0         0
         0         0         0         0         0         0         0         0
         0         0         0         0         0         0         0         0
         0         0         0         0         0         0         0         0
         0         0         0         0         0         0         0         0
         0         0         0         0         0         0         0         0
         0         0         0         0         0         0         0         0
         0         0         0         0         0         0         0         0
         0         0         0         0         0         0         0         0
         0         0         0         0         0         0         0         0
         0         0         0         0         0         0         0         0
         0         0         0         0         0         0         0         0
         0         0         0         0         0         0         0         0
         0         0         0         0         0         0         0         0
         0         0         0         0         0         0         0         0
         0         0         0         0         0         0         0         0
         0         0         0         0         0         0         0         0
         0         0         0         0         0         0         0         0
         0         0         0         0         0         0         0         0
         0         0         0         0         0         0         0         0
         0         0         0         0         0         0         0         0
         0         0         0         0         0         0         0         0
         0         0         0         0         0         0         0         0
         0         0         0         0         0         0         0         0
         0         0         0         0         0         0         0         0
         0         0         0         0         0         0         0         0
         0         0         0         0         0         0         0         0
         0         0         0         0         0         0         0         0
         0         0         0         0         0         0         0         0
         0         0         0         0         0         0         0         0
         0         0         0         0         0         0         0         0
         0         0         0         0         0         0         0         0
         0         0         0         0         0         0         0         0
         0         0         0         0         0         0         0         0
         0         0         0         0         0         0         0         0
         0         0         0         0         0         0         0         0
         0         0         0         0         0         0         0         0
         0         0         0         0         0         0         0         0
         0         0         0         0         0         0         0         0
         0         0         0         0         0         0         0         0
         0         0         0         0         0         0         0         0
         0         0         0         0         0         0         0         0
         0         0         0         0         0         0         0         0
         0         0         0         0         0         0         0         0
         0         0         0         0         0         0         0         0
         0         0         0         0         0         0         0         0
         0         0         0         0         0         0         0         0
         0         0         0         0         0         0         0         0
         0         0         0         0         0         0         0         0
         0         0         0         0         0         0         0         0
         0         0         0         0         0         0         0         0
         0         0         0         0         0         0         0         0
         0         0         0         0         0         0         0         0
         0         0         0         0         0         0         0         0
         0         0         0         0         0         0         0         0
         0         0         0         0         0         0         0         0
         0         0         0         0         0         0         0         0
         0         0         0         0         0         0         0         0
         0         0         0         0         0         0         0         0
         0         0         0         0         0         0         0         0
         0         0         0         0         0         0         0         0
         0         0         0         0         0         0         0         0
         0         0         0         0         0         0         0         0
         0         0         0         0         0         0         0         0
         0         0         0         0         0         0         0         0
         0         0         0         0         0         0         0         0
         0         0         0         0         0         0         0         0
         0         0         0         0         0         0         0         0
         0         0         0         0         0         0         0         0
         0         0         0         0         0         0         0         0
         0         0         0         0         0         0         0         0
         0         0         0         0         0         0         0         0
         0         0         0         0         0         0         0         0
         0         0         0         0         0         0         0         0
         0         0         0         0         0         0         0         0
         0         0         0         0         0         0         0         0
         0         0         0         0         0         0         0         0
         0         0         0         0         0         0         0         0
         0         0         0         0         0         0         0         0
         0         0         0         0         0         0         0         0
         0         0         0         0         0         0         0         0
         0         0         0         0         0         0         0         0
         0         0         0         0         0         0         0         0
         0         0         0         0         0         0         0         0
         0         0         0         0         0         0         0         0
         0         0         0         0         0         0         0         0
         0         0         0         0         0         0         0         0
         0         0         0         0         0         0         0         0
         0         0         0         0         0         0         0         0
         0         0         0         0         0         0         0         0
         0         0         0         0         0         0         0         0
         0         0         0         0         0         0         0         0
         0         0         0         0         0         0         0         0
         0         0         0         0         0         0         0         0
         0         0         0         0         0         0         0         0
         0         0         0         0         0         0         0         0
         0         0         0         0         0         0         0         0
         0         0         0         0         0         0         0         0
         0         0         0         0         0         0         0         0
         0         0         0         0         0         0         0         0
         0         0         0         0         0         0         0         0
         0         0         0         0         0         0         0         0
         0         0         0         0         0         0         0         0
         0         0         0         0         0         0         0         0
         0         0         0         0         0         0         0         0
         0         0         0         0         0         0         0         0
         0         0         0         0         0         0         0         0
         0         0         0         0         0         0         0         0
         0         0         0         0         0         0         0         0
         0         0         0         0         0         0         0         0
         0         0         0         0         0         0         0         0
         0         0         0         0         0         0         0         0
         0         0         0         0         0         0         0         0
         0         0         0         0         0         0         0         0
         0         0         0         0         0         0         0         0
         0         0         0         0         0         0         0         0
         0         0         0         0         0         0         0         0
         0         0         0         0         0         0         0         0
         0         0         0         0         0         0         0         0
         0         0         0         0         0         0         0         0
         0         0         0         0         0         0         0         0
         0         0         0         0         0         0         0         0
         0         0         0         0         0         0         0         0
         0         0         0         0         0         0         0         0
         0         0         0         0         0         0         0         0
         0         0         0         0         0         0         0         0
         0         0         0         0         0         0         0         0
         0         0         0         0         0         0         0         0
         0         0         0         0         0         0         0         0
         0         0         0         0         0         0         0         0
         0         0         0         0         0         0         0         0
         0         0         0         0         0         0         0         0
         0         0         0         0         0         0         0         0
         0         0         0         0         0         0         0         0
         0         0         0         0         0         0         0         0
         0         0         0         0         0         0         0         0
         0         0         0         0         0         0         0         0
         0         0         0         0         0         0         0         0
         0         0         0         0         0         0         0         0
         0         0         0         0         0         0         0         0
         0         0         0         0         0         0         0         0
         0         0         0         0         0         0         0         0
         0         0         0         0         0         0         0         0
         0         0         0         0         0         0         0         0
         0         0         0         0         0         0         0         0
         0         0         0         0         0         0         0         0
         0         0         0         0         0         0         0         0
         0         0         0         0         0         0         0         0
         0         0         0         0         0         0         0         0
         0         0         0         0         0         0         0         0
         0         0         0         0         0         0         0         0
         0         0         0         0         0         0         0         0
         0         0         0         0         0         0         0         0
         0         0         0         0         0         0         0         0
         0         0         0         0         0         0         0         0
         0         0         0         0         0         0         0         0
         0         0         0         0         0         0         0         0
         0         0         0         0         0         0         0         0
         0         0         0         0         0         0         0         0
         0         0         0         0         0         0         0         0
         0         0         0         0         0         0         0         0
         0         0         0         0         0         0         0         0
         0         0         0         0         0         0         0         0
         0         0         0         0         0         0         0         0
         0         0         0         0         0         0         0         0
         0         0         0         0         0         0         0         0
         0         0         0         0         0         0         0         0
         0         0         0         0         0         0         0         0
         0         0         0         0         0         0         0         0
         0         0         0         0         0         0         0         0
         0         0         0         0         0         0         0         0
         0         0         0         0         0         0         0         0
         0         0         0         0         0         0         0         0
         0         0         0         0         0         0         0         0
         0         0         0         0         0         0         0         0
         0         0         0         0         0         0         0         0
         0         0         0         0         0         0         0         0
         0         0         0         0         0         0         0         0
         0         0         0         0         0         0         0         0
         0         0         0         0         0         0         0         0
         0         0         0         0         0         0         0         0
         0         0         0         0         0         0         0         0
         0         0         0         0         0         0         0         0
         0         0         0         0         0         0         0         0
         0         0         0         0         0         0         0         0
         0         0         0         0         0         0         0         0
         0         0         0         0         0         0         0         0
         0         0         0         0         0         0         0         0
         0         0         0         0         0         0         0         0
         0         0         0         0         0         0         0         0
         0         0         0         0         0         0         0         0
         0         0         0         0         0         0         0         0
         0         0         0         0         0         0         0         0
         0         0         0         0         0         0         0         0
         0         0         0         0         0         0         0         0
         0         0         0         0         0         0         0         0
         0         0         0         0         0         0         0         0
         0         0         0         0         0         0         0         0
         0         0         0         0         0         0         0         0
         0         0         0         0         0         0         0         0
         0         0         0         0         0         0         0         0
         0         0         0         0         0         0         0         0
         0         0         0         0         0         0         0         0
         0         0         0         0         0         0         0         0
         0         0         0         0         0         0         0         0
         0         0         0         0         0         0         0         0
         0         0         0         0         0         0         0         0
         0         0         0         0         0         0         0         0
         0         0         0         0         0         0         0         0
         0         0         0         0         0         0         0         0
         0         0         0         0         0         0         0         0
         0         0         0         0         0         0         0         0
         0         0         0         0         0         0         0         0
         0         0         0         0         0         0         0         0
         0         0         0         0         0         0         0         0
         0         0         0         0         0         0         0         0
         0         0         0         0         0         0         0         0
         0         0         0         0         0         0         0         0
         0         0         0         0         0         0         0         0
         0         0         0         0         0         0         0         0
         0         0         0         0         0         0         0         0
         0         0         0         0         0         0         0         0
         0         0         0         0         0         0         0         0
         0         0         0         0         0         0         0         0
         0         0         0         0         0         0         0         0
         0         0         0         0         0         0         0         0
         0         0         0         0         0         0         0         0
         0         0         0         0         0         0         0         0
         0         0         0         0         0         0         0         0
         0         0         0         0         0         0         0         0
         0         0         0         0         0         0         0         0
         0         0         0         0         0         0         0         0
         0         0         0         0         0         0         0         0
         0         0         0         0         0         0         0         0
         0         0         0         0         0         0         0         0
         0         0         0         0         0         0         0         0
         0         0         0         0         0         0         0         0
         0         0         0         0         0         0         0         0
         0         0         0         0         0         0         0         0
         0         0         0         0         0         0         0         0
         0         0         0         0         0         0         0         0
         0         0         0         0         0         0         0         0
         0         0         0         0         0         0         0         0
         0         0         0         0         0         0         0         0
         0         0         0         0         0         0         0         0
         0         0         0         0         0         0         0         0
         0         0         0         0         0         0         0         0
         0         0         0         0         0         0         0         0
         0         0         0         0         0         0         0         0
         0         0         0         0         0         0         0         0
         0         0         0         0         0         0         0         0
         0         0         0         0         0         0         0         0
         0         0         0         0         0         0         0         0
         0         0         0         0         0         0         0         0
         0         0         0         0         0         0         0         0
         0         0         0         0         0         0         0         0
         0         0         0         0         0         0         0         0
         0         0         0         0         0         0         0         0
         0         0         0         0         0         0         0         0
         0         0         0         0         0         0         0         0
         0         0         0         0         0         0         0         0
         0         0         0         0         0         0         0         0
         0         0         0         0         0         0         0         0
         0         0         0         0         0         0         0         0
         0         0         0         0         0         0         0         0
         0         0         0         0         0         0         0         0
         0         0         0         0         0         0         0         0
         0         0         0         0         0         0         0         0
         0         0         0         0         0         0         0         0
         0         0         0         0         0         0         0         0
         0         0         0         0         0         0         0         0
         0         0         0         0         0         0         0         0
         0         0         0         0         0         0         0         0
         0         0         0         0         0         0         0         0
         0         0         0         0         0         0         0         0
         0         0         0         0         0         0         0         0
         0         0         0         0         0         0         0         0
         0         0         0         0         0         0         0         0
         0         0         0         0         0         0         0         0
         0         0         0         0         0         0         0         0
         0         0         0         0         0         0         0         0
         0         0         0         0         0         0         0         0
         0         0         0         0         0         0         0         0
         0         0         0         0         0         0         0         0
         0         0         0         0         0         0         0         0
         0         0         0         0         0         0         0         0
         0         0         0         0         0         0         0         0
         0         0         0         0         0         0         0         0
         0         0         0         0         0         0         0         0
         0         0         0         0         0         0         0         0
         0         0         0         0         0         0         0         0
         0         0         0         0         0         0         0         0
         0         0         0         0         0         0         0         0
         0         0         0         0         0         0         0         0
         0         0         0         0         0         0         0         0
         0         0         0         0         0         0         0         0
         0         0         0         0         0         0         0         0
         0         0         0         0         0         0         0         0
         0         0         0         0         0         0         0         0
         0         0         0         0         0         0         0         0
         0         0         0         0         0         0         0         0
         0         0         0         0         0         0         0         0
         0         0         0         0         0         0         0         0
         0         0         0         0         0         0         0         0
         0         0         0         0         0         0         0         0
         0         0         0         0         0         0         0         0
         0         0         0         0         0         0         0         0
         0         0         0         0         0         0         0         0
         0         0         0         0         0         0         0         0
         0         0         0         0         0         0         0         0
         0         0         0         0         0         0         0         0
         0         0         0         0         0         0         0         0
         0         0         0         0         0         0         0         0
         0         0         0         0         0         0         0         0
         0         0         0         0         0         0         0         0
         0         0         0         0         0         0         0         0
         0         0         0         0         0         0         0         0
         0         0         0         0         0         0         0         0
         0         0         0         0         0         0         0         0
         0         0         0         0         0         0         0         0
         0         0         0         0         0         0         0         0
         0         0         0         0         0         0         0         0
         0         0         0         0         0         0         0         0
         0         0         0         0         0         0         0         0
         0         0         0         0         0         0         0         0
         0         0         0         0         0         0         0         0
         0         0         0         0         0         0         0         0
         0         0         0         0         0         0         0         0
         0         0         0         0         0         0         0         0
         0         0         0         0         0         0         0         0
         0         0         0         0         0         0         0         0
         0         0         0         0         0         0         0         0
         0         0         0         0         0         0         0         0
         0         0         0         0         0         0         0         0
         0         0         0         0         0         0         0         0
         0         0         0         0         0         0         0         0
         0         0         0         0         0         0         0         0
         0         0         0         0         0         0         0         0
         0         0         0         0         0         0         0         0
         0         0         0         0         0         0         0         0
         0         0         0         0         0         0         0         0
         0         0         0         0         0         0         0         0
         0         0         0         0         0         0         0         0
         0         0         0         0         0         0         0         0
         0         0         0         0         0         0         0         0
         0         0         0         0         0         0         0         0
         0         0         0         0         0         0         0         0
         0         0         0         0         0         0         0         0
         0         0         0         0         0         0         0         0
         0         0         0         0         0         0         0         0
         0         0         0         0         0         0         0         0
         0         0         0         0         0         0         0         0
         0         0         0         0         0         0         0         0
         0         0         0         0         0         0         0         0
         0         0         0         0         0         0         0         0
         0         0         0         0         0         0         0         0
         0         0         0         0         0         0         0         0
         0         0         0         0         0         0         0         0
         0         0         0         0         0         0         0         0
         0         0         0         0         0         0         0         0
         0         0         0         0         0         0         0         0
         0         0         0         0         0         0         0         0
         0         0         0         0         0         0         0         0
         0         0         0         0         0         0         0         0
         0         0         0         0         0         0         0         0
         0         0         0         0         0         0         0         0
         0         0         0         0         0         0         0         0
         0         0         0         0         0         0         0         0
         0         0         0         0         0         0         0         0
         0         0         0         0         0         0         0         0
         0         0         0         0         0         0         0         0
         0         0         0         0         0         0         0         0
         0         0         0         0         0         0         0         0
         0         0         0         0         0         0         0         0
         0         0         0         0         0         0         0         0
         0         0         0         0         0         0         0         0
         0         0         0         0         0         0         0         0
         0         0         0         0         0         0         0         0
         0         0         0         0         0         0         0         0
         0         0         0         0         0         0         0         0
         0         0         0         0         0         0         0         0
         0         0         0         0         0         0         0         0
         0         0         0         0         0         0         0         0
         0         0         0         0         0         0         0         0
         0         0         0         0         0         0         0         0
         0         0         0         0         0         0         0         0
         0         0         0         0         0         0         0         0
         0         0         0         0         0         0         0         0
         0         0         0         0         0         0         0         0
         0         0         0         0         0         0         0         0
         0         0         0         0         0         0         0         0
         0         0         0         0         0         0         0         0
         0         0         0         0         0         0         0         0
         0         0         0         0         0         0         0         0
         0         0         0         0         0         0         0         0
         0         0         0         0         0         0         0         0
         0         0         0         0         0         0         0         0
         0         0         0         0         0         0         0         0
         0         0         0         0         0         0         0         0
         0         0         0         0         0         0         0         0
         0         0         0         0         0         0         0         0
         0         0         0         0         0         0         0         0
         0         0         0         0         0         0         0         0
         0         0         0         0         0         0         0         0
         0         0         0         0         0         0         0         0
         0         0         0         0         0         0         0         0
         0         0         0         0         0         0         0         0
         0         0         0         0         0         0         0         0
         0         0         0         0         0         0         0         0
         0         0         0         0         0         0         0         0
         0         0         0         0         0         0         0         0
         0         0         0         0         0         0         0         0
         0         0         0         0         0         0         0         0
         0         0         0         0         0         0         0         0
         0         0         0         0         0         0         0         0
         0         0         0         0         0         0         0         0
         0         0         0         0         0         0         0         0
         0         0         0         0         0         0         0         0
         0         0         0         0         0         0         0         0
         0         0         0         0         0         0         0         0
         0         0         0         0         0         0         0         0
         0         0         0         0         0         0         0         0
         0         0         0         0         0         0         0         0
         0         0         0         0         0         0         0         0
         0         0         0         0         0         0         0         0
         0         0         0         0         0         0         0         0
         0         0         0         0         0         0         0         0
         0         0         0         0         0         0         0         0
         0         0         0         0         0         0         0         0
         0         0         0         0         0         0         0         0
         0         0         0         0         0         0         0         0
         0         0         0         0         0         0         0         0
         0         0         0         0         0         0         0         0
         0         0         0         0         0         0         0         0
         0         0         0         0         0         0         0         0
         0         0         0         0         0         0         0         0
         0         0         0         0         0         0         0         0
         0         0         0         0         0         0         0         0
         0         0         0         0         0         0         0         0
         0         0         0         0         0         0         0         0
         0         0         0         0         0         0         0         0
         0         0         0         0         0         0         0         0
         0         0         0         0         0         0         0         0
         0         0         0         0         0         0         0         0
         0         0         0         0         0         0         0         0
         0         0         0         0         0         0         0         0
         0         0         0         0         0         0         0         0
         0         0         0         0         0         0         0         0
         0         0         0         0         0         0         0         0
         0         0         0         0         0         0         0         0
         0         0         0         0         0         0         0         0
         0         0         0         0         0         0         0         0
         0         0         0         0         0         0         0         0
         0         0         0         0         0         0         0         0
         0         0         0         0         0         0         0         0
         0         0         0         0         0         0         0         0
         0         0         0         0         0         0         0         0
         0         0         0         0         0         0         0         0
         0         0         0         0         0         0         0         0
         0         0         0         0         0         0         0         0
         0         0         0         0         0         0         0         0
         0         0         0         0         0         0         0         0
         0         0         0         0         0         0         0         0
         0         0         0         0         0         0         0         0
         0         0         0         0         0         0         0         0
         0         0         0         0         0         0         0         0
         0         0         0         0         0         0         0         0
         0         0         0         0         0         0         0         0
         0         0         0         0         0         0         0         0
         0         0         0         0         0         0         0         0
         0         0         0         0         0         0         0         0
         0         0         0         0         0         0         0         0
         0         0         0         0         0         0         0         0
         0         0         0         0         0         0         0         0
         0         0         0         0         0         0         0         0
         0         0         0         0         0         0         0         0
         0         0         0         0         0         0         0         0
         0         0         0         0         0         0         0         0
         0         0         0         0         0         0         0         0
         0         0         0         0         0         0         0         0
         0         0         0         0         0         0         0         0
         0         0         0         0         0         0         0         0
         0         0         0         0         0         0         0         0
         0         0         0         0         0         0         0         0
         0         0         0         0         0         0         0         0
         0         0         0         0         0         0         0         0
         0         0         0         0         0         0         0         0
         0         0         0         0         0         0         0         0
         0         0         0         0         0         0         0         0
         0         0         0         0         0         0         0         0
         0         0         0         0         0         0         0         0
         0         0         0         0         0         0         0         0
         0         0         0         0         0         0         0         0
         0         0         0         0         0         0         0         0
         0         0         0         0         0         0         0         0
         0         0         0         0         0         0         0         0
         0         0         0         0         0         0         0         0
         0         0         0         0         0         0         0         0
         0         0         0         0         0         0         0         0
         0         0         0         0         0         0         0         0
         0         0         0         0         0         0         0         0
         0         0         0         0         0         0         0         0
         0         0         0         0         0         0         0         0
         0         0         0         0         0         0         0         0
         0         0         0         0         0         0         0         0
         0         0         0         0         0         0         0         0
         0         0         0         0         0         0         0         0
         0         0         0         0         0         0         0         0
         0         0         0         0         0         0         0         0
         0         0         0         0         0         0         0         0
         0         0         0         0         0         0         0         0
         0         0         0         0         0         0         0         0
         0         0         0         0         0         0         0         0
         0         0         0         0         0         0         0         0
         0         0         0         0         0         0         0         0
         0         0         0         0         0         0         0         0
         0         0         0         0         0         0         0         0
         0         0         0         0         0         0         0         0
         0         0         0         0         0         0         0         0
         0         0         0         0         0         0         0         0
         0         0         0         0         0         0         0         0
         0         0         0         0         0         0         0         0
         0         0         0         0         0         0         0         0
         0         0         0         0         0         0         0         0
         0         0         0         0         0         0         0         0
         0         0         0         0         0         0         0         0
         0         0         0         0         0         0         0         0
         0         0         0         0         0         0         0         0
         0         0         0         0         0         0         0         0
         0         0         0         0         0         0         0         0
         0         0         0         0         0         0         0         0
         0         0         0         0         0         0         0         0
         0         0         0         0         0         0         0         0
         0         0         0         0         0         0         0         0
         0         0         0         0         0         0         0         0
         0         0         0         0         0         0         0         0
         0         0         0         0         0         0         0         0
         0         0         0         0         0         0         0         0
         0         0         0         0         0         0         0         0
         0         0         0         0         0         0         0         0
         0         0         0         0         0         0         0         0
         0         0         0         0         0         0         0         0
         0         0         0         0         0         0         0         0
         0         0         0         0         0         0         0         0
         0         0         0         0         0         0         0         0
         0         0         0         0         0         0         0         0
         0         0         0         0         0         0         0         0
         0         0         0         0         0         0         0         0
         0         0         0         0         0         0         0         0
         0         0         0         0         0         0         0         0
         0         0         0         0         0         0         0         0
         0         0         0         0         0         0         0         0
         0         0         0         0         0         0         0         0
         0         0         0         0         0         0         0         0
         0         0         0         0         0         0         0         0
         0         0         0         0         0         0         0         0
         0         0         0         0         0         0         0         0
         0         0         0         0         0         0         0         0
         0         0         0         0         0         0         0         0
         0         0         0         0         0         0         0         0
         0         0         0         0         0         0         0         0
         0         0         0         0         0         0         0         0
         0         0         0         0         0         0         0         0
         0         0         0         0         0         0         0         0
         0         0         0         0         0         0         0         0
         0         0         0         0         0         0         0         0
         0         0         0         0         0         0         0         0
         0         0         0         0         0         0         0         0
         0         0         0         0         0         0         0         0
         0         0         0         0         0         0         0         0
         0         0         0         0         0         0         0         0
         0         0         0         0         0         0         0         0
         0         0         0         0         0         0         0         0
         0         0         0         0         0         0         0         0
         0         0         0         0         0         0         0         0
         0         0         0         0         0         0         0         0
         0         0         0         0         0         0         0         0
         0         0         0         0         0         0         0         0
         0         0         0         0         0         0         0         0
         0         0         0         0         0         0         0         0
         0         0         0         0         0         0         0         0
         0         0         0         0         0         0         0         0
         0         0         0         0         0         0         0         0
         0         0         0         0         0         0         0         0
         0         0         0         0         0         0         0         0
         0         0         0         0         0         0         0         0
         0         0         0         0         0         0         0         0
         0         0         0         0         0         0         0         0
         0         0         0         0         0         0         0         0
         0         0         0         0         0         0         0         0
         0         0         0         0         0         0         0         0
         0         0         0         0         0         0         0         0
         0         0         0         0         0         0         0         0
         0         0         0         0         0         0         0         0
         0         0         0         0         0         0         0         0
         0         0         0         0         0         0         0         0
         0         0         0         0         0         0         0         0
         0         0         0         0         0         0         0         0
         0         0         0         0         0         0         0         0
         0         0         0         0         0         0         0         0
         0         0         0         0         0         0         0         0
         0         0         0         0         0         0         0         0
         0         0         0         0         0         0         0         0
         0         0         0         0         0         0         0         0
         0         0         0         0         0         0         0         0
         0         0         0         0         0         0         0         0
         0         0         0         0         0         0         0         0
         0         0         0         0         0         0         0         0
         0         0         0         0         0         0         0         0
         0         0         0         0         0         0         0         0
         0         0         0         0         0         0         0         0
         0         0         0         0         0         0         0         0
         0         0         0         0         0         0         0         0
         0         0         0         0         0         0         0         0
         0         0         0         0         0         0         0         0
         0         0         0         0         0         0         0         0
         0         0         0         0         0         0         0         0
         0         0         0         0         0         0         0         0
         0         0         0         0         0         0         0         0
         0         0         0         0         0         0         0         0
         0         0         0         0         0         0         0         0
         0         0         0         0         0         0         0         0
         0         0         0         0         0         0         0         0
         0         0         0         0         0         0         0         0
         0         0         0         0         0         0         0         0
         0         0         0         0         0         0         0         0
         0         0         0         0         0         0         0         0
         0         0         0         0         0         0         0         0
         0         0         0         0         0         0         0         0
         0         0         0         0         0         0         0         0
         0         0         0         0         0         0         0         0
         0         0         0         0         0         0         0         0
         0         0         0         0         0         0         0         0
         0         0         0         0         0         0         0         0
         0         0         0         0         0         0         0         0
         0         0         0         0         0         0         0         0
         0         0         0         0         0         0         0         0
         0         0         0         0         0         0         0         0
         0         0         0         0         0         0         0         0
         0         0         0         0         0         0         0         0
         0         0         0         0         0         0         0         0
         0         0         0         0         0         0         0         0
         0         0         0         0         0         0         0         0
         0         0         0         0         0         0         0         0
         0         0         0         0         0         0         0         0
         0         0         0         0         0         0         0         0
         0         0         0         0         0         0         0         0
         0         0         0         0         0         0         0         0
         0         0         0         0         0         0         0         0
         0         0         0         0         0         0         0         0
         0         0         0         0         0         0         0         0
         0         0         0         0         0         0         0         0
         0         0         0         0         0         0         0         0
         0         0         0         0         0         0         0         0
         0         0         0         0         0         0         0         0
         0         0         0         0         0         0         0         0
         0         0         0         0         0         0         0         0
         0         0         0         0         0         0         0         0
         0         0         0         0         0         0         0         0
         0         0         0         0         0         0         0         0
         0         0         0         0         0         0         0         0
         0         0         0         0         0         0         0         0
         0         0         0         0         0         0         0         0
         0         0         0         0         0         0         0         0
         0         0         0         0         0         0         0         0
         0         0         0         0         0         0         0         0
         0         0         0         0         0         0         0         0
         0         0         0         0         0         0         0         0
         0         0         0         0         0         0         0         0
         0         0         0         0         0         0         0         0
         0         0         0         0         0         0         0         0
         0         0         0         0         0         0         0         0
         0         0         0         0         0         0         0         0
         0         0         0         0         0         0         0         0
         0         0         0         0         0         0         0         0
         0         0         0         0         0         0         0         0
         0         0         0         0         0         0         0         0
         0         0         0         0         0         0         0         0
         0         0         0         0         0         0         0         0
         0         0         0         0         0         0         0         0
         0         0         0         0         0         0         0         0
         0         0         0         0         0         0         0         0
         0         0         0         0         0         0         0         0
         0         0         0         0         0         0         0         0
         0         0         0         0         0         0         0         0
         0         0         0         0         0         0         0         0
         0         0         0         0         0         0         0         0
         0         0         0         0         0         0         0         0
         0         0         0         0         0         0         0         0
         0         0         0         0         0         0         0         0
         0         0         0         0         0         0         0         0
         0         0         0         0         0         0         0         0
         0         0         0         0         0         0         0         0
         0         0         0         0         0         0         0         0
         0         0         0         0         0         0         0         0
         0         0         0         0         0         0         0         0
         0         0         0         0         0         0         0         0
         0         0         0         0         0         0         0         0
         0         0         0         0         0         0         0         0
         0         0         0         0         0         0         0         0
         0         0         0         0         0         0         0         0
         0         0         0         0         0         0         0         0
         0         0         0         0         0         0         0         0
         0         0         0         0         0         0         0         0
         0         0         0         0         0         0         0         0
         0         0         0         0         0         0         0         0
         0         0         0         0         0         0         0         0
         0         0         0         0         0         0         0         0
         0         0         0         0         0         0         0         0
         0         0         0         0         0         0         0         0
         0         0         0         0         0         0         0         0
         0         0         0         0         0         0         0         0
         0         0         0         0         0         0         0         0
         0         0         0         0         0         0         0         0
         0         0         0         0         0         0         0         0
         0         0         0         0         0         0         0         0
         0         0         0         0         0         0         0         0
         0         0         0         0         0         0         0         0
         0         0         0         0         0         0         0         0
         0         0         0         0         0         0         0         0
         0         0         0         0         0         0         0         0
         0         0         0         0         0         0         0         0
         0         0         0         0         0         0         0         0
         0         0         0         0         0         0         0         0
         0         0         0         0         0         0         0         0
         0         0         0         0         0         0         0         0
         0         0         0         0         0         0         0         0
         0         0         0         0         0         0         0         0
         0         0         0         0         0         0         0         0
         0         0         0         0         0         0         0         0
         0         0         0         0         0         0         0         0
         0         0         0         0         0         0         0         0
         0         0         0         0         0         0         0         0
         0         0         0         0         0         0         0         0
         0         0         0         0         0         0         0         0
         0         0         0         0         0         0         0         0
         0         0         0         0         0         0         0         0
         0         0         0         0         0         0         0         0
         0         0         0         0         0         0         0         0
         0         0         0         0         0         0         0         0
         0         0         0         0         0         0         0         0
         0         0         0         0         0         0         0         0
         0         0         0         0         0         0         0         0
         0         0         0         0         0         0         0         0
         0         0         0         0         0         0         0         0
         0         0         0         0         0         0         0         0
         0         0         0         0         0         0         0         0
         0         0         0         0         0         0         0         0
         0         0         0         0         0         0         0         0
         0         0         0         0         0         0         0         0
         0         0         0         0         0         0         0         0
         0         0         0         0         0         0         0         0
         0         0         0         0         0         0         0         0
         0         0         0         0         0         0         0         0
         0         0         0         0         0         0         0         0
         0         0         0         0         0         0         0         0
         0         0         0         0         0         0         0         0
         0         0         0         0         0         0         0         0
         0         0         0         0         0         0         0         0
         0         0         0         0         0         0         0         0
         0         0         0         0         0         0         0         0
         0         0         0         0         0         0         0         0
         0         0         0         0         0         0         0         0
         0         0         0         0         0         0         0         0
         0         0         0         0         0         0         0         0
         0         0         0         0         0         0         0         0
         0         0         0         0         0         0         0         0
         0         0         0         0         0         0         0         0
         0         0         0         0         0         0         0         0
         0         0         0         0         0         0         0         0
         0         0         0         0         0         0         0         0
         0         0         0         0         0         0         0         0
         0         0         0         0         0         0         0         0
         0         0         0         0         0         0         0         0
         0         0         0         0         0         0         0         0
         0         0         0         0         0         0         0         0
         0         0         0         0         0         0         0         0
         0         0         0         0         0         0         0         0
         0         0         0         0         0         0         0         0
         0         0         0         0         0         0         0         0
         0         0         0         0         0         0         0         0
         0         0         0         0         0         0         0         0
         0         0         0         0         0         0         0         0
         0         0         0         0         0         0         0         0
         0         0         0         0         0         0         0         0
         0         0         0         0         0         0         0         0
         0         0         0         0         0         0         0         0
         0         0         0         0         0         0         0         0
         0         0         0         0         0         0         0         0
         0         0         0         0         0         0         0         0
         0         0         0         0         0         0         0         0
         0         0         0         0         0         0         0         0
         0         0         0         0         0         0         0         0
         0         0         0         0         0         0         0         0
         0         0         0         0         0         0         0         0
         0         0         0         0         0         0         0         0
         0         0         0         0         0         0         0         0
         0         0         0         0         0         0         0         0
         0         0         0         0         0         0         0         0
         0         0         0         0         0         0         0         0
         0         0         0         0         0         0         0         0
         0         0         0         0         0         0         0         0
         0         0         0         0         0         0         0         0
         0         0         0         0         0         0         0         0
         0         0         0         0         0         0         0         0
         0         0         0         0         0         0         0         0
         0         0         0         0         0         0         0         0
         0         0         0         0         0         0         0         0
         0         0         0         0         0         0         0         0
         0         0         0         0         0         0         0         0
         0         0         0         0         0         0         0         0
         0         0         0         0         0         0         0         0
         0         0         0         0         0         0         0         0
         0         0         0         0         0         0         0         0
         0         0         0         0         0         0         0         0
         0         0         0         0         0         0         0         0
         0         0         0         0         0         0         0         0
         0         0         0         0         0         0         0         0
         0         0         0         0         0         0         0         0
         0         0         0         0         0         0         0         0
         0         0         0         0         0         0         0         0
         0         0         0         0         0         0         0         0
         0         0         0         0         0         0         0         0
         0         0         0         0         0         0         0         0
         0         0         0         0         0         0         0         0
         0         0         0         0         0         0         0         0
         0         0         0         0         0         0         0         0
         0         0         0         0         0         0         0         0
         0         0         0         0         0         0         0         0
         0         0         0         0         0         0         0         0
         0         0         0         0         0         0         0         0
         0         0         0         0         0         0         0         0
         0         0         0         0         0         0         0         0
         0         0         0         0         0         0         0         0
         0         0         0         0         0         0         0         0
         0         0         0         0         0         0         0         0
         0         0         0         0         0         0         0         0
         0         0         0         0         0         0         0         0
         0         0         0         0         0         0         0         0
         0         0         0         0         0         0         0         0
         0         0         0         0         0         0         0         0
         0         0         0         0         0         0         0         0
         0         0         0         0         0         0         0         0
         0         0         0         0         0         0         0         0
         0         0         0         0         0         0         0         0
         0         0         0         0         0         0         0         0
         0         0         0         0         0         0         0         0
         0         0         0         0         0         0         0         0
         0         0         0         0         0         0         0         0
         0         0         0         0         0         0         0         0
         0         0         0         0         0         0         0         0
         0         0         0         0         0         0         0         0
         0         0         0         0         0         0         0         0
         0         0         0         0         0         0         0         0
         0         0         0         0         0         0         0         0
         0         0         0         0         0         0         0         0
         0         0         0         0         0         0         0         0
         0         0         0         0         0         0         0         0
         0         0         0         0         0         0         0         0
         0         0         0         0         0         0         0         0
         0         0         0         0         0         0         0         0
         0         0         0         0         0         0         0         0
         0         0         0         0         0         0         0         0
         0         0         0         0         0         0         0         0
         0         0         0         0         0         0         0         0
         0         0         0         0         0         0         0         0
         0         0         0         0         0         0         0         0
         0         0         0         0         0         0         0         0
         0         0         0         0         0         0         0         0
         0         0         0         0         0         0         0         0
         0         0         0         0         0         0         0         0
         0         0         0         0         0         0         0         0
         0         0         0         0         0         0         0         0
         0         0         0         0         0         0         0         0
         0         0         0         0         0         0         0         0
         0         0         0         0         0         0         0         0
         0         0         0         0         0         0         0         0
         0         0         0         0         0         0         0         0
         0         0         0         0         0         0         0         0
         0         0         0         0         0         0         0         0
         0         0         0         0         0         0         0         0
         0         0         0         0         0         0         0         0
         0         0         0         0         0         0         0         0
         0         0         0         0         0         0         0         0
         0         0         0         0         0         0         0         0
         0         0         0         0         0         0         0         0
         0         0         0         0         0         0         0         0
         0         0         0         0         0         0         0         0
         0         0         0         0         0         0         0         0
         0         0         0         0         0         0         0         0
         0         0         0         0         0         0         0         0
         0         0         0         0         0         0         0         0
         0         0         0         0         0         0         0         0
         0         0         0         0         0         0         0         0
         0         0         0         0         0         0         0         0
         0         0         0         0         0         0         0         0
         0         0         0         0         0         0         0         0
         0         0         0         0         0         0         0         0
         0         0         0         0         0         0         0         0
         0         0         0         0         0         0         0         0
         0         0         0         0         0         0         0         0
         0         0         0         0         0         0         0         0
         0         0         0         0         0         0         0         0
         0         0         0         0         0         0         0         0
         0         0         0         0         0         0         0         0
         0         0         0         0         0         0         0         0
         0         0         0         0         0         0         0         0
         0         0         0         0         0         0         0         0
         0         0         0         0         0         0         0         0
         0         0         0         0         0         0         0         0
         0         0         0         0         0         0         0         0
         0         0         0         0         0         0         0         0
         0         0         0         0         0         0         0         0
         0         0         0         0         0         0         0         0
         0         0         0         0         0         0         0         0
         0         0         0         0         0         0         0         0
         0         0         0         0         0         0         0         0
         0         0         0         0         0         0         0         0
         0         0         0         0         0         0         0         0
         0         0         0         0         0         0         0         0
         0         0         0         0         0         0         0         0
         0         0         0         0         0         0         0         0
         0         0         0         0         0         0         0         0
         0         0         0         0         0         0         0         0
         0         0         0         0         0         0         0         0
         0         0         0         0         0         0         0         0
         0         0         0         0         0         0         0         0
         0         0         0         0         0         0         0         0
         0         0         0         0         0         0         0         0
         0         0         0         0         0         0         0         0
         0         0         0         0         0         0         0         0
         0         0         0         0         0         0         0         0
         0         0         0         0         0         0         0         0
         0         0         0         0         0         0         0         0
         0         0         0         0         0         0         0         0
         0         0         0         0         0         0         0         0
         0         0         0         0         0         0         0         0
         0         0         0         0         0         0         0         0
         0         0         0         0         0         0         0         0
         0         0         0         0         0         0         0         0
         0         0         0         0         0         0         0         0
         0         0         0         0         0         0         0         0
         0         0         0         0         0         0         0         0
         0         0         0         0         0         0         0         0
         0         0         0         0         0         0         0         0
         0         0         0         0         0         0         0         0
         0         0         0         0         0         0         0         0
         0         0         0         0         0         0         0         0
         0         0         0         0         0         0         0         0
         0         0         0         0         0         0         0         0
         0         0         0         0         0         0         0         0
         0         0         0         0         0         0         0         0
         0         0         0         0         0         0         0         0
         0         0         0         0         0         0         0         0
         0         0         0         0         0         0         0         0
         0         0         0         0         0         0         0         0
         0         0         0         0         0         0         0         0
         0         0         0         0         0         0         0         0
         0         0         0         0         0         0         0         0
         0         0         0         0         0         0         0         0
         0         0         0         0         0         0         0         0
         0         0         0         0         0         0         0         0
         0         0         0         0         0         0         0         0
         0         0         0         0         0         0         0         0
         0         0         0         0         0         0         0         0
         0         0         0         0         0         0         0         0
         0         0         0         0         0         0         0         0
         0         0         0         0         0         0         0         0
         0         0         0         0         0         0         0         0
         0         0         0         0         0         0         0         0
         0         0         0         0         0         0         0         0
         0         0         0         0         0         0         0         0
         0         0         0         0         0         0         0         0
         0         0         0         0         0         0         0         0
         0         0         0         0         0         0         0         0
         0         0         0         0         0         0         0         0
         0         0         0         0         0         0         0         0
         0         0         0         0         0         0         0         0
         0         0         0         0         0         0         0         0
         0         0         0         0         0         0         0         0
         0         0         0         0         0         0         0         0
         0         0         0         0         0         0         0         0
         0         0         0         0         0         0         0         0
         0         0         0         0         0         0         0         0
         0         0         0         0         0         0         0         0
         0         0         0         0         0         0         0         0
         0         0         0         0         0         0         0         0
         0         0         0         0         0         0         0         0
         0         0         0         0         0         0         0         0
         0         0         0         0         0         0         0         0
         0         0         0         0         0         0         0         0
         0         0         0         0         0         0         0         0
         0         0         0         0         0         0         0         0
         0         0         0         0         0         0         0         0
         0         0         0         0         0         0         0         0
         0         0         0         0         0         0         0         0
         0         0         0         0         0         0         0         0
         0         0         0         0         0         0         0         0
         0         0         0         0         0         0         0         0
         0         0         0         0         0         0         0         0
         0         0         0         0         0         0         0         0
         0         0         0         0         0         0         0         0
         0         0         0         0         0         0         0         0
         0         0         0         0         0         0         0         0
         0         0         0         0         0         0         0         0
         0         0         0         0         0         0         0         0
         0         0         0         0         0         0         0         0
         0         0         0         0         0         0         0         0
         0         0         0         0         0         0         0         0
         0         0         0         0         0         0         0         0
         0         0         0         0         0         0         0         0
         0         0         0         0         0         0         0         0
         0         0         0         0         0         0         0         0
         0         0         0         0         0         0         0         0
         0         0         0         0         0         0         0         0
         0         0         0         0         0         0         0         0
         0         0         0         0         0         0         0         0
         0         0         0         0         0         0         0         0
         0         0         0         0         0         0         0         0
         0         0         0         0         0         0         0         0
         0         0         0         0         0         0         0         0
         0         0         0         0         0         0         0         0
         0         0         0         0         0         0         0         0
         0         0         0         0         0         0         0         0
         0         0         0         0         0         0         0         0
         0         0         0         0         0         0         0         0
         0         0         0         0         0         0         0         0
         0         0         0         0         0         0         0         0
         0         0         0         0         0         0         0         0
         0         0         0         0         0         0         0         0
         0         0         0         0         0         0         0         0
         0         0         0         0         0         0         0         0
         0         0         0         0         0         0         0         0
         0         0         0         0         0         0         0         0
         0         0         0         0         0         0         0         0
         0         0         0         0         0         0         0         0
         0         0         0         0         0         0         0         0
         0         0         0         0         0         0         0         0
         0         0         0         0         0         0         0         0
         0         0         0         0         0         0         0         0
         0         0         0         0         0         0         0         0
         0         0         0         0         0         0         0         0
         0         0         0         0         0         0         0         0
         0         0         0         0         0         0         0         0
         0         0         0         0         0         0         0         0
         0         0         0         0         0         0         0         0
         0         0         0         0         0         0         0         0
         0         0         0         0         0         0         0         0
         0         0         0         0         0         0         0         0
         0         0         0         0         0         0         0         0
         0         0         0         0         0         0         0         0
         0         0         0         0         0         0         0         0
         0         0         0         0         0         0         0         0
         0         0         0         0         0         0         0         0
         0         0         0         0         0         0         0         0
         0         0         0         0         0         0         0         0
         0         0         0         0         0         0         0         0
         0         0         0         0         0         0         0         0
         0         0         0         0         0         0         0         0
         0         0         0         0         0         0         0         0
         0         0         0         0         0         0         0         0
         0         0         0         0         0         0         0         0
         0         0         0         0         0         0         0         0
         0         0         0         0         0         0         0         0
         0         0         0         0         0         0         0         0
         0         0         0         0         0         0         0         0
         0         0         0         0         0         0         0         0
         0         0         0         0         0         0         0         0
         0         0         0         0         0         0         0         0
         0         0         0         0         0         0         0         0
         0         0         0         0         0         0         0         0
         0         0         0         0         0         0         0         0
         0         0         0         0         0         0         0         0
         0         0         0         0         0         0         0         0
         0         0         0         0         0         0         0         0
         0         0         0         0         0         0         0         0
         0         0         0         0         0         0         0         0
         0         0         0         0         0         0         0         0
         0         0         0         0         0         0         0         0
         0         0         0         0         0         0         0         0
         0         0         0         0         0         0         0         0
         0         0         0         0         0         0         0         0
         0         0         0         0         0         0         0         0
         0         0         0         0         0         0         0         0
         0         0         0         0         0         0         0         0
         0         0         0         0         0         0         0         0
         0         0         0         0         0         0         0         0
         0         0         0         0         0         0         0         0
         0         0         0         0         0         0         0         0
         0         0         0         0         0         0         0         0
         0         0         0         0         0         0         0         0
         0         0         0         0         0         0         0         0
         0         0         0         0         0         0         0         0
         0         0         0         0         0         0         0         0
         0         0         0         0         0         0         0         0
         0         0         0         0         0         0         0         0
         0         0         0         0         0         0         0         0
         0         0         0         0         0         0         0         0
         0         0         0         0         0         0         0         0
         0         0         0         0         0         0         0         0
         0         0         0         0         0         0         0         0
         0         0         0         0         0         0         0         0
         0         0         0         0         0         0         0         0
         0         0         0         0         0         0         0         0
         0         0         0         0         0         0         0         0
         0         0         0         0         0         0         0         0
         0         0         0         0         0         0         0         0
         0         0         0         0         0         0         0         0
         0         0         0         0         0         0         0         0
         0         0         0         0         0         0         0         0
         0         0         0         0         0         0         0         0
         0         0         0         0         0         0         0         0
         0         0         0         0         0         0         0         0
         0         0         0         0         0         0         0         0
         0         0         0         0         0         0         0         0
         0         0         0         0         0         0         0         0
         0         0         0         0         0         0         0         0
         0         0         0         0         0         0         0         0
         0         0         0         0         0         0         0         0
         0         0         0         0         0         0         0         0
         0         0         0         0         0         0         0         0
         0         0         0         0         0         0         0         0
         0         0         0         0         0         0         0         0
         0         0         0         0         0         0         0         0
         0         0         0         0         0         0         0         0
         0         0         0         0         0         0         0         0
         0         0         0         0         0         0         0         0
         0         0         0         0         0         0         0         0
         0         0         0         0         0         0         0         0
         0         0         0         0         0         0         0         0
         0         0         0         0         0         0         0         0
         0         0         0         0         0         0         0         0
         0         0         0         0         0         0         0         0
         0         0         0         0         0         0         0         0
         0         0         0         0         0         0         0         0
         0         0         0         0         0         0         0         0
         0         0         0         0         0         0         0         0
         0         0         0         0         0         0         0         0
         0         0         0         0         0         0         0         0
         0         0         0         0         0         0         0         0
         0         0         0         0         0         0         0         0
         0         0         0         0         0         0         0         0
         0         0         0         0         0         0         0         0
         0         0         0         0         0         0         0         0
         0         0         0         0         0         0         0         0
         0         0         0         0         0         0         0         0
         0         0         0         0         0         0         0         0
         0         0         0         0         0         0         0         0
         0         0         0         0         0         0         0         0
         0         0         0         0         0         0         0         0
         0         0         0         0         0         0         0         0
         0         0         0         0         0         0         0         0
         0         0         0         0         0         0         0         0
         0         0         0         0         0         0         0         0
         0         0         0         0         0         0         0         0
         0         0         0         0         0         0         0         0
         0         0         0         0         0         0         0         0
         0         0         0         0         0         0         0         0
         0         0         0         0         0         0         0         0
         0         0         0         0         0         0         0         0
         0         0         0         0         0         0         0         0
         0         0         0         0         0         0         0         0
         0         0         0         0         0         0         0         0
         0         0         0         0         0         0         0         0
         0         0         0         0         0         0         0         0
         0         0         0         0         0         0         0         0
         0         0         0         0         0         0         0         0
         0         0         0         0         0         0         0         0
         0         0         0         0         0         0         0         0
         0         0         0         0         0         0         0         0
         0         0         0         0         0         0         0         0
         0         0         0         0         0         0         0         0
         0         0         0         0         0         0         0         0
         0         0         0         0         0         0         0         0
         0         0         0         0         0         0         0         0
         0         0         0         0         0         0         0         0
         0         0         0         0         0         0         0         0
         0         0         0         0         0         0         0         0
         0         0         0         0         0         0         0         0
         0         0         0         0         0         0         0         0
         0         0         0         0         0         0         0         0
         0         0         0         0         0         0         0         0
         0         0         0         0         0         0         0         0
         0         0         0         0         0         0         0         0
         0         0         0         0         0         0         0         0
         0         0         0         0         0         0         0         0
         0         0         0         0         0         0         0         0
         0         0         0         0         0         0         0         0
         0         0         0         0         0         0         0         0
         0         0         0         0         0         0         0         0
         0         0         0         0         0         0         0         0
         0         0         0         0         0         0         0         0
         0         0         0         0         0         0         0         0
         0         0         0         0         0         0         0         0
         0         0         0         0         0         0         0         0
         0         0         0         0         0         0         0         0
         0         0         0         0         0         0         0         0
         0         0         0         0         0         0         0         0
         0         0         0         0         0         0         0         0
         0         0         0         0         0         0         0         0
         0         0         0         0         0         0         0         0
         0         0         0         0         0         0         0         0
         0         0         0         0         0         0         0         0
         0         0         0         0         0         0         0         0
         0         0         0         0         0         0         0         0
         0         0         0         0         0         0         0         0
         0         0         0         0         0         0         0         0
         0         0         0         0         0         0         0         0
         0         0         0         0         0         0         0         0
         0         0         0         0         0         0         0         0
         0         0         0         0         0         0         0         0
         0         0         0         0         0         0         0         0
         0         0         0         0         0         0         0         0
         0         0         0         0         0         0         0         0
         0         0         0         0         0         0         0         0
         0         0         0         0         0         0         0         0
         0         0         0         0         0         0         0         0
         0         0         0         0         0         0         0         0
         0         0         0         0         0         0         0         0
         0         0         0         0         0         0         0         0
         0         0         0         0         0         0         0         0
         0         0         0         0         0         0         0         0
         0         0         0         0         0         0         0         0
         0         0         0         0         0         0         0         0
         0         0         0         0         0         0         0         0
         0         0         0         0         0         0         0         0
         0         0         0         0         0         0         0         0
         0         0         0         0         0         0         0         0
         0         0         0         0         0         0         0         0
         0         0         0         0         0         0         0         0
         0         0         0         0         0         0         0         0
         0         0         0         0         0         0         0         0
         0         0         0         0         0         0         0         0
         0         0         0         0         0         0         0         0
         0         0         0         0         0         0         0         0
         0         0         0         0         0         0         0         0
         0         0         0         0         0         0         0         0
         0         0         0         0         0         0         0         0
         0         0         0         0         0         0         0         0
         0         0         0         0         0         0         0         0
         0         0         0         0         0         0         0         0
         0         0         0         0         0         0         0         0
         0         0         0         0         0         0         0         0
         0         0         0         0         0         0         0         0
         0         0         0         0         0         0         0         0
         0         0         0         0         0         0         0         0
         0         0         0         0         0         0         0         0
         0         0         0         0         0         0         0         0
         0         0         0         0         0         0         0         0
         0         0         0         0         0         0         0         0
         0         0         0         0         0         0         0         0
         0         0         0         0         0         0         0         0
         0         0         0         0         0         0         0         0
         0         0         0         0         0         0         0         0
         0         0         0         0         0         0         0         0
         0         0         0         0         0         0         0         0
         0         0         0         0         0         0         0         0
         0         0         0         0         0         0         0         0
         0         0         0         0         0         0         0         0
         0         0         0         0         0         0         0         0
         0         0         0         0         0         0         0         0
         0         0         0         0         0         0         0         0
         0         0         0         0         0         0         0         0
         0         0         0         0         0         0         0         0
         0         0         0         0         0         0         0         0
         0         0         0         0         0         0         0         0
         0         0         0         0         0         0         0         0
         0         0         0         0         0         0         0         0
         0         0         0         0         0         0         0         0
         0         0         0         0         0         0         0         0
         0         0         0         0         0         0         0         0
         0         0         0         0         0         0         0         0
         0         0         0         0         0         0         0         0
         0         0         0         0         0         0         0         0
         0         0         0         0         0         0         0         0
         0         0         0         0         0         0         0         0
         0         0         0         0         0         0         0         0
         0         0         0         0         0         0         0         0
         0         0         0         0         0         0         0         0
         0         0         0         0         0         0         0         0
         0         0         0         0         0         0         0         0
         0         0         0         0         0         0         0         0
         0         0         0         0         0         0         0         0
         0         0         0         0         0         0         0         0
         0         0         0         0         0         0         0         0
         0         0         0         0         0         0         0         0
         0         0         0         0         0         0         0         0
         0         0         0         0         0         0         0         0
         0         0         0         0         0         0         0         0
         0         0         0         0         0         0         0         0
         0         0         0         0         0         0         0         0
         0         0         0         0         0         0         0         0
         0         0         0         0         0         0         0         0
         0         0         0         0         0         0         0         0
         0         0         0         0         0         0         0         0
         0         0         0         0         0         0         0         0
         0         0         0         0         0         0         0         0
         0         0         0         0         0         0         0         0
         0         0         0         0         0         0         0         0
         0         0         0         0         0         0         0         0
         0         0         0         0         0         0         0         0
         0         0         0         0         0         0         0         0
         0         0         0         0         0         0         0         0
         0         0         0         0         0         0         0         0
         0         0         0         0         0         0         0         0
         0         0         0         0         0         0         0         0
         0         0         0         0         0         0         0         0
         0         0         0         0         0         0         0         0
         0         0         0         0         0         0         0         0
         0         0         0         0         0         0         0         0
         0         0         0         0         0         0         0         0
         0         0         0         0         0         0         0         0
         0         0         0         0         0         0         0         0
         0         0         0         0         0         0         0         0
         0         0         0         0         0         0         0         0
         0         0         0         0         0         0         0         0
         0         0         0         0         0         0         0         0
         0         0         0         0         0         0         0         0
         0         0         0         0         0         0         0         0
         0         0         0         0         0         0         0         0
         0         0         0         0         0         0         0         0
         0         0         0         0         0         0         0         0
         0         0         0         0         0         0         0         0
         0         0         0         0         0         0         0         0
         0         0         0         0         0         0         0         0
         0         0         0         0         0         0         0         0
         0         0         0         0         0         0         0         0
         0         0         0         0         0         0         0         0
         0         0         0         0         0         0         0         0
         0         0         0         0         0         0         0         0
         0         0         0         0         0         0         0         0
         0         0         0         0         0         0         0         0
         0         0         0         0         0         0         0         0
         0         0         0         0         0         0         0         0
         0         0         0         0         0         0         0         0
         0         0         0         0         0         0         0         0
         0         0         0         0         0         0         0         0
         0         0         0         0         0         0         0         0
         0         0         0         0         0         0         0         0
         0         0         0         0         0         0         0         0
         0         0         0         0         0         0         0         0
         0         0         0         0         0         0         0         0
         0         0         0         0         0         0         0         0
         0         0         0         0         0         0         0         0
         0         0         0         0         0         0         0         0
         0         0         0         0         0         0         0         0
         0         0         0         0         0         0         0         0
         0         0         0         0         0         0         0         0
         0         0         0         0         0         0         0         0
         0         0         0         0         0         0         0         0
         0         0         0         0         0         0         0         0
         0         0         0         0         0         0         0         0
         0         0         0         0         0         0         0         0
         0         0         0         0         0         0         0         0
         0         0         0         0         0         0         0         0
         0         0         0         0         0         0         0         0
         0         0         0         0         0         0         0         0
         0         0         0         0         0         0         0         0
         0         0         0         0         0         0         0         0
         0         0         0         0         0         0         0         0
         0         0         0         0         0         0         0         0
         0         0         0         0         0         0         0         0
         0         0         0         0         0         0         0         0
         0         0         0         0         0         0         0         0
         0         0         0         0         0         0         0         0
         0         0         0         0         0         0         0         0
         0         0         0         0         0         0         0         0
         0         0         0         0         0         0         0         0
         0         0         0         0         0         0         0         0
         0         0         0         0         0         0         0         0
         0         0         0         0         0         0         0         0
         0         0         0         0         0         0         0         0
         0         0         0         0         0         0         0         0
         0         0         0         0         0         0         0         0
         0         0         0         0         0         0         0         0
         0         0         0         0         0         0         0         0
         0         0         0         0         0         0         0         0
         0         0         0         0         0         0         0         0
         0         0         0         0         0         0         0         0
         0         0         0         0         0         0         0         0
         0         0         0         0         0         0         0         0
         0         0         0         0         0         0         0         0
         0         0         0         0         0         0         0         0
         0         0         0         0         0         0         0         0
         0         0         0         0         0         0         0         0
         0         0         0         0         0         0         0         0
         0         0         0         0         0         0         0         0
         0         0         0         0         0         0         0         0
         0         0         0         0         0         0         0         0
         0         0         0         0         0         0         0         0
         0         0         0         0         0         0         0         0
         0         0         0         0         0         0         0         0
         0         0         0         0         0         0         0         0
         0         0         0         0         0         0         0         0
         0         0         0         0         0         0         0         0
         0         0         0         0         0         0         0         0
         0         0         0         0         0         0         0         0
         0         0         0         0         0         0         0         0
         0         0         0         0         0         0         0         0
         0         0         0         0         0         0         0         0
         0         0         0         0         0         0         0         0
         0         0         0         0         0         0         0         0
         0         0         0         0         0         0         0         0
         0         0         0         0         0         0         0         0
         0         0         0         0         0         0         0         0
         0         0         0         0         0         0         0         0
         0         0         0         0         0         0         0         0
         0         0         0         0         0         0         0         0
         0         0         0         0         0         0         0         0
         0         0         0         0         0         0         0         0
         0         0         0         0         0         0         0         0
         0         0         0         0         0         0         0         0
         0         0         0         0         0         0         0         0
         0         0         0         0         0         0         0         0
         0         0         0         0         0         0         0         0
         0         0         0         0         0         0         0         0
         0         0         0         0         0         0         0         0
         0         0         0         0         0         0         0         0
         0         0         0         0         0         0         0         0
         0         0         0         0         0         0         0         0
         0         0         0         0         0         0         0         0
         0         0         0         0         0         0         0         0
         0         0         0         0         0         0         0         0
         0         0         0         0         0         0         0         0
         0         0         0         0         0         0         0         0
         0         0         0         0         0         0         0         0
         0         0         0         0         0         0         0         0
         0         0         0         0         0         0         0         0
         0         0         0         0         0         0         0         0
         0         0         0         0         0         0         0         0
         0         0         0         0         0         0         0         0
         0         0         0         0         0         0         0         0
         0         0         0         0         0         0         0         0
         0         0         0         0         0         0         0         0
         0         0         0         0         0         0         0         0
         0         0         0         0         0         0         0         0
         0         0         0         0         0         0         0         0
         0         0         0         0         0         0         0         0
         0         0         0         0         0         0         0         0
         0         0         0         0         0         0         0         0
         0         0         0         0         0         0         0         0
         0         0         0         0         0         0         0         0
         0         0         0         0         0         0         0         0
         0         0         0         0         0         0         0         0
         0         0         0         0         0         0         0         0
         0         0         0         0         0         0         0         0
         0         0         0         0         0         0         0         0
         0         0         0         0         0         0         0         0
         0         0         0         0         0         0         0         0
         0         0         0         0         0         0         0         0
         0         0         0         0         0         0         0         0
         0         0         0         0         0         0         0         0
         0         0         0         0         0         0         0         0
         0         0         0         0         0         0         0         0
         0         0         0         0         0         0         0         0
         0         0         0         0         0         0         0         0
         0         0         0         0         0         0         0         0
         0         0         0         0         0         0         0         0
         0         0         0         0         0         0         0         0
         0         0         0         0         0         0         0         0
         0         0         0         0         0         0         0         0
         0         0         0         0         0         0         0         0
         0         0         0         0         0         0         0         0
         0         0         0         0         0         0         0         0
         0         0         0         0         0         0         0         0
         0         0         0         0         0         0         0         0
         0         0         0         0         0         0         0         0
         0         0         0         0         0         0         0         0
         0         0         0         0         0         0         0         0
         0         0         0         0         0         0         0         0
         0         0         0         0         0         0         0         0
         0         0         0         0         0         0         0         0
         0         0         0         0         0         0         0         0
         0         0         0         0         0         0         0         0
         0         0         0         0         0         0         0         0
         0         0         0         0         0         0         0         0
         0         0         0         0         0         0         0         0
         0         0         0         0         0         0         0         0
         0         0         0         0         0         0         0         0
         0         0         0         0         0         0         0         0
         0         0         0         0         0         0         0         0
         0         0         0         0         0         0         0         0
         0         0         0         0         0         0         0         0
         0         0         0         0         0         0         0         0
         0         0         0         0         0         0         0         0
         0         0         0         0         0         0         0         0
         0         0         0         0         0         0         0         0
         0         0         0         0         0         0         0         0
         0         0         0         0         0         0         0         0
         0         0         0         0         0         0         0         0
         0         0         0         0         0         0         0         0
         0         0         0         0         0         0         0         0
         0         0         0         0         0         0         0         0
         0         0         0         0         0         0         0         0
         0         0         0         0         0         0         0         0
         0         0         0         0         0         0         0         0
         0         0         0         0         0         0         0         0
         0         0         0         0         0         0         0         0
         0         0         0         0         0         0         0         0
         0         0         0         0         0         0         0         0
         0         0         0         0         0         0         0         0
         0         0         0         0         0         0         0         0
         0         0         0         0         0         0         0         0
         0         0         0         0         0         0         0         0
         0         0         0         0         0         0         0         0
         0         0         0         0         0         0         0         0
         0         0         0         0         0         0         0         0
         0         0         0         0         0         0         0         0
         0         0         0         0         0         0         0         0
         0         0         0         0         0         0         0         0
         0         0         0         0         0         0         0         0
         0         0         0         0         0         0         0         0
         0         0         0         0         0         0         0         0
         0         0         0         0         0         0         0         0
         0         0         0         0         0         0         0         0
         0         0         0         0         0         0         0         0
         0         0         0         0         0         0         0         0
         0         0         0         0         0         0         0         0
         0         0         0         0         0         0         0         0
         0         0         0         0         0         0         0         0
         0         0         0         0         0         0         0         0
         0         0         0         0         0         0         0         0
         0         0         0         0         0         0         0         0
         0         0         0         0         0         0         0         0
         0         0         0         0         0         0         0         0
         0         0         0         0         0         0         0         0
         0         0         0         0         0         0         0         0
         0         0         0         0         0         0         0         0
         0         0         0         0         0         0         0         0
         0         0         0         0         0         0         0         0
         0         0         0         0         0         0         0         0
         0         0         0         0         0         0         0         0
         0         0         0         0         0         0         0         0
         0         0         0         0         0         0         0         0
         0         0         0         0         0         0         0         0
         0         0         0         0         0         0         0         0
         0         0         0         0         0         0         0         0
         0         0         0         0         0         0         0         0
         0         0         0         0         0         0         0         0
         0         0         0         0         0         0         0         0
         0         0         0         0         0         0         0         0
         0         0         0         0         0         0         0         0
         0         0         0         0         0         0         0         0
         0         0         0         0         0         0         0         0
         0         0         0         0         0         0         0         0
         0         0         0         0         0         0         0         0
         0         0         0         0         0         0         0         0
         0         0         0         0         0         0         0         0
         0         0         0         0         0         0         0         0
         0         0         0         0         0         0         0         0
         0         0         0         0         0         0         0         0
         0         0         0         0         0         0         0         0
         0         0         0         0         0         0         0         0
         0         0         0         0         0         0         0         0
         0         0         0         0         0         0         0         0
         0         0         0         0         0         0         0         0
         0         0         0         0         0         0         0         0
         0         0         0         0         0         0         0         0
         0         0         0         0         0         0         0         0
         0         0         0         0         0         0         0         0
         0         0         0         0         0         0         0         0
         0         0         0         0         0         0         0         0
         0         0         0         0         0         0         0         0
         0         0         0         0         0         0         0         0
         0         0         0         0         0         0         0         0
         0         0         0         0         0         0         0         0
         0         0         0         0         0         0         0         0
         0         0         0         0         0         0         0         0
         0         0         0         0         0         0         0         0
         0         0         0         0         0         0         0         0
         0         0         0         0         0         0         0         0
         0         0         0         0         0         0         0         0
         0         0         0         0         0         0         0         0
         0         0         0         0         0         0         0         0
         0         0         0         0         0         0         0         0
         0         0         0         0         0         0         0         0
         0         0         0         0         0         0         0         0
         0         0         0         0         0         0         0         0
         0         0         0         0         0         0         0         0
         0         0         0         0         0         0         0         0
         0         0         0         0         0         0         0         0
         0         0         0         0         0         0         0         0
         0         0         0         0         0         0         0         0
         0         0         0         0         0         0         0         0
         0         0         0         0         0         0         0         0
         0         0         0         0         0         0         0         0
         0         0         0         0         0         0         0         0
         0         0         0         0         0         0         0         0
         0         0         0         0         0         0         0         0
         0         0         0         0         0         0         0         0
         0         0         0         0         0         0         0         0
         0         0         0         0         0         0         0         0
         0         0         0         0         0         0         0         0
         0         0         0         0         0         0         0         0
         0         0         0         0         0         0         0         0
         0         0         0         0         0         0         0         0
         0         0         0         0         0         0         0         0
         0         0         0         0         0         0         0         0
         0         0         0         0         0         0         0         0
         0         0         0         0         0         0         0         0
         0         0         0         0         0         0         0         0
         0         0         0         0         0         0         0         0
         0         0         0         0         0         0         0         0
         0         0         0         0         0         0         0         0
         0         0         0         0         0         0         0         0
         0         0         0         0         0         0         0         0
         0         0         0         0         0         0         0         0
         0         0         0         0         0         0         0         0
         0         0         0         0         0         0         0         0
         0         0         0         0         0         0         0         0
         0         0         0         0         0         0         0         0
         0         0         0         0         0         0         0         0
         0         0         0         0         0         0         0         0
         0         0         0         0         0         0         0         0
         0         0         0         0         0         0         0         0
         0         0         0         0         0         0         0         0
         0         0         0         0         0         0         0         0
         0         0         0         0         0         0         0         0
         0         0         0         0         0         0         0         0
         0         0         0         0         0         0         0         0
         0         0         0         0         0         0         0         0
         0         0         0         0         0         0         0         0
         0         0         0         0         0         0         0         0
         0         0         0         0         0         0         0         0
         0         0         0         0         0         0         0         0
         0         0         0         0         0         0         0         0
         0         0         0         0         0         0         0         0
         0         0         0         0         0         0         0         0
         0         0         0         0         0         0         0         0
         0         0         0         0         0         0         0         0
         0         0         0         0         0         0         0         0
         0         0         0         0         0         0         0         0
         0         0         0         0         0         0         0         0
         0         0         0         0         0         0         0         0
         0         0         0         0         0         0         0         0
         0         0         0         0         0         0         0         0
         0         0         0         0         0         0         0         0
         0         0         0         0         0         0         0         0
         0         0         0         0         0         0         0         0
         0         0         0         0         0         0         0         0
         0         0         0         0         0         0         0         0
         0         0         0         0         0         0         0         0
         0         0         0         0         0         0         0         0
         0         0         0         0         0         0         0         0
         0         0         0         0         0         0         0         0
         0         0         0         0         0         0         0         0
         0         0         0         0         0         0         0         0
         0         0         0         0         0         0         0         0
         0         0         0         0         0         0         0         0
         0         0         0         0         0         0         0         0
         0         0         0         0         0         0         0         0
         0         0         0         0         0         0         0         0
         0         0         0         0         0         0         0         0
         0         0         0         0         0         0         0         0
         0         0         0         0         0         0         0         0
         0         0         0         0         0         0         0         0
         0         0         0         0         0         0         0         0
         0         0         0         0         0         0         0         0
         0         0         0         0         0         0         0         0
         0         0         0         0         0         0         0         0
         0         0         0         0         0         0         0         0
         0         0         0         0         0         0         0         0
         0         0         0         0         0         0         0         0
         0         0         0         0         0         0         0         0
         0         0         0         0         0         0         0         0
         0         0         0         0         0         0         0         0
         0         0         0         0         0         0         0         0
         0         0         0         0         0         0         0         0
         0         0         0         0         0         0         0         0
         0         0         0         0         0         0         0         0
         0         0         0         0         0         0         0         0
         0         0         0         0         0         0         0         0
         0         0         0         0         0         0         0         0
         0         0         0         0         0         0         0         0
         0         0         0         0         0         0         0         0
         0         0         0         0         0         0         0         0
         0         0         0         0         0         0         0         0
         0         0         0         0         0         0         0         0
         0         0         0         0         0         0         0         0
         0         0         0         0         0         0         0         0
         0         0         0         0         0         0         0         0
         0         0         0         0         0         0         0         0
         0         0         0         0         0         0         0         0
         0         0         0         0         0         0         0         0
         0         0         0         0         0         0         0         0
         0         0         0         0         0         0         0         0
         0         0         0         0         0         0         0         0
         0         0         0         0         0         0         0         0
         0         0         0         0         0         0         0         0
         0         0         0         0         0         0         0         0
         0         0         0         0         0         0         0         0
         0         0         0         0         0         0         0         0
         0         0         0         0         0         0         0         0
         0         0         0         0         0         0         0         0
         0         0         0         0         0         0         0         0
         0         0         0         0         0         0         0         0
         0         0         0         0         0         0         0         0
         0         0         0         0         0         0         0         0
         0         0         0         0         0         0         0         0
         0         0         0         0         0         0         0         0
         0         0         0         0         0         0         0         0
         0         0         0         0         0         0         0         0
         0         0         0         0         0         0         0         0
         0         0         0         0         0         0         0         0
         0         0         0         0         0         0         0         0
         0         0         0         0         0         0         0         0
         0         0         0         0         0         0         0         0
         0         0         0         0         0         0         0         0
         0         0         0         0         0         0         0         0
         0         0         0         0         0         0         0         0
         0         0         0         0         0         0         0         0
         0         0         0         0         0         0         0         0
         0         0         0         0         0         0         0         0
         0         0         0         0         0         0         0         0
         0         0         0         0         0         0         0         0
         0         0         0         0         0         0         0         0
         0         0         0         0         0         0         0         0
         0         0         0         0         0         0         0         0
         0         0         0         0         0         0         0         0
         0         0         0         0         0         0         0         0
         0         0         0         0         0         0         0         0
         0         0         0         0         0         0         0         0
         0         0         0         0         0         0         0         0
         0         0         0         0         0         0         0         0
         0         0         0         0         0         0         0         0
         0         0         0         0         0         0         0         0
         0         0         0         0         0         0         0         0
         0         0         0         0         0         0         0         0
         0         0         0         0         0         0         0         0
         0         0         0         0         0         0         0         0
         0         0         0         0         0         0         0         0
         0         0         0         0         0         0         0         0
         0         0         0         0         0         0         0         0
         0         0         0         0         0         0         0         0
         0         0         0         0         0         0         0         0
         0         0         0         0         0         0         0         0
         0         0         0         0         0         0         0         0
         0         0         0         0         0         0         0         0
         0         0         0         0         0         0         0         0
         0         0         0         0         0         0         0         0
         0         0         0         0         0         0         0         0
         0         0         0         0         0         0         0         0
         0         0         0         0         0         0         0         0
         0         0         0         0         0         0         0         0
         0         0         0         0         0         0         0         0
         0         0         0         0         0         0         0         0
         0         0         0         0         0         0         0         0
         0         0         0         0         0         0         0         0
         0         0         0         0         0         0         0         0
         0         0         0         0         0         0         0         0
         0         0         0         0         0         0         0         0
         0         0         0         0         0         0         0         0
         0         0         0         0         0         0         0         0
         0         0         0         0         0         0         0         0
         0         0         0         0         0         0         0         0
         0         0         0         0         0         0         0         0
         0         0         0         0         0         0         0         0
         0         0         0         0         0         0         0         0
         0         0         0         0         0         0         0         0
         0         0         0         0         0         0         0         0
         0         0         0         0         0         0         0         0
         0         0         0         0         0         0         0         0
         0         0         0         0         0         0         0         0
         0         0         0         0         0         0         0         0
         0         0         0         0         0         0         0         0
         0         0         0         0         0         0         0         0
         0         0         0         0         0         0         0         0
         0         0         0         0         0         0         0         0
         0         0         0         0         0         0         0         0
         0         0         0         0         0         0         0         0
         0         0         0         0         0         0         0         0
         0         0         0         0         0         0         0         0
         0         0         0         0         0         0         0         0
         0         0         0         0         0         0         0         0
         0         0         0         0         0         0         0         0
         0         0         0         0         0         0         0         0
         0         0         0         0         0         0         0         0
         0         0         0         0         0         0         0         0
         0         0         0         0         0         0         0         0
         0         0         0         0         0         0         0         0
         0         0         0         0         0         0         0         0
         0         0         0         0         0         0         0         0
         0         0         0         0         0         0         0         0
         0         0         0         0         0         0         0         0
         0         0         0         0         0         0         0         0
         0         0         0         0         0         0         0         0
         0         0         0         0         0         0         0         0
         0         0         0         0         0         0         0         0
         0         0         0         0         0         0         0         0
         0         0         0         0         0         0         0         0
         0         0         0         0         0         0         0         0
         0         0         0         0         0         0         0         0
         0         0         0         0         0         0         0         0
         0         0         0         0         0         0         0         0
         0         0         0         0         0         0         0         0
         0         0         0         0         0         0         0         0
         0         0         0         0         0         0         0         0
         0         0         0         0         0         0         0         0
         0         0         0         0         0         0         0         0
         0         0         0         0         0         0         0         0
         0         0         0         0         0         0         0         0
         0         0         0         0         0         0         0         0
         0         0         0         0         0         0         0         0
         0         0         0         0         0         0         0         0
         0         0         0         0         0         0         0         0
         0         0         0         0         0         0         0         0
         0         0         0         0         0         0         0         0
         0         0         0         0         0         0         0         0
         0         0         0         0         0         0         0         0
         0         0         0         0         0         0         0         0
         0         0         0         0         0         0         0         0
         0         0         0         0         0         0         0         0
         0         0         0         0         0         0         0         0
         0         0         0         0         0         0         0         0
         0         0         0         0         0         0         0         0
         0         0         0         0         0         0         0         0
         0         0         0         0         0         0         0         0
         0         0         0         0         0         0         0         0
         0         0         0         0         0         0         0         0
         0         0         0         0         0         0         0         0
         0         0         0         0         0         0         0         0
         0         0         0         0         0         0         0         0
         0         0         0         0         0         0         0         0
         0         0         0         0         0         0         0         0
         0         0         0         0         0         0         0         0
         0         0         0         0         0         0         0         0
         0         0         0         0         0         0         0         0
         0         0         0         0         0         0         0         0
         0         0         0         0         0         0         0         0
         0         0         0         0         0         0         0         0
         0         0         0         0         0         0         0         0
         0         0         0         0         0         0         0         0
         0         0         0         0         0         0         0         0
         0         0         0         0         0         0         0         0
         0         0         0         0         0         0         0         0
         0         0         0         0         0         0         0         0
         0         0         0         0         0         0         0         0
         0         0         0         0         0         0         0         0
         0         0         0         0         0         0         0         0
         0         0         0         0         0         0         0         0
         0         0         0         0         0         0         0         0
         0         0         0         0         0         0         0         0
         0         0         0         0         0         0         0         0
         0         0         0         0         0         0         0         0
         0         0         0         0         0         0         0         0
         0         0         0         0         0         0         0         0
         0         0         0         0         0         0         0         0
         0         0         0         0         0         0         0         0
         0         0         0         0         0         0         0         0
         0         0         0         0         0         0         0         0
         0         0         0         0         0         0         0         0
         0         0         0         0         0         0         0         0
         0         0         0         0         0         0         0         0
         0         0         0         0         0         0         0         0
         0         0         0         0         0         0         0         0
         0         0         0         0         0         0         0         0
         0         0         0         0         0         0         0         0
         0         0         0         0         0         0         0         0
         0         0         0         0         0         0         0         0
         0         0         0         0         0         0         0         0
         0         0         0         0         0         0         0         0
         0         0         0         0         0         0         0         0
         0         0         0         0         0         0         0         0
         0         0         0         0         0         0         0         0
         0         0         0         0         0         0         0         0
         0         0         0         0         0         0         0         0
         0         0         0         0         0         0         0         0
         0         0         0         0         0         0         0         0
         0         0         0         0         0         0         0         0
         0         0         0         0         0         0         0         0
         0         0         0         0         0         0         0         0
         0         0         0         0         0         0         0         0
         0         0         0         0         0         0         0         0
         0         0         0         0         0         0         0         0
         0         0         0         0         0         0         0         0
         0         0         0         0         0         0         0         0
         0         0         0         0         0         0         0         0
         0         0         0         0         0         0         0         0
         0         0         0         0         0         0         0         0
         0         0         0         0         0         0         0         0
         0         0         0         0         0         0         0         0
         0         0         0         0         0         0         0         0
         0         0         0         0         0         0         0         0
         0         0         0         0         0         0         0         0
         0         0         0         0         0         0         0         0
         0         0         0         0         0         0         0         0
         0         0         0         0         0         0         0         0
         0         0         0         0         0         0         0         0
         0         0         0         0         0         0         0         0
         0         0         0         0         0         0         0         0
         0         0         0         0         0         0         0         0
         0         0         0         0         0         0         0         0
         0         0         0         0         0         0         0         0
         0         0         0         0         0         0         0         0
         0         0         0         0         0         0         0         0
         0         0         0         0         0         0         0         0
         0         0         0         0         0         0         0         0
         0         0         0         0         0         0         0         0
         0         0         0         0         0         0         0         0
         0         0         0         0         0         0         0         0
         0         0         0         0         0         0         0         0
         0         0         0         0         0         0         0         0
         0         0         0         0         0         0         0         0
         0         0         0         0         0         0         0         0
         0         0         0         0         0         0         0         0
         0         0         0         0         0         0         0         0
         0         0         0         0         0         0         0         0
         0         0         0         0         0         0         0         0
         0         0         0         0         0         0         0         0
         0         0         0         0         0         0         0         0
         0         0         0         0         0         0         0         0
         0         0         0         0         0         0         0         0
         0         0         0         0         0         0         0         0
         0         0         0         0         0         0         0         0
         0         0         0         0         0         0         0         0
         0         0         0         0         0         0         0         0
         0         0         0         0         0         0         0         0
         0         0         0         0         0         0         0         0
         0         0         0         0         0         0         0         0
         0         0         0         0         0         0         0         0
         0         0         0         0         0         0         0         0
         0         0         0         0         0         0         0         0
         0         0         0         0         0         0         0         0
         0         0         0         0         0         0         0         0
         0         0         0         0         0         0         0         0
         0         0         0         0         0         0         0         0
         0         0         0         0         0         0         0         0
         0         0         0         0         0         0         0         0
         0         0         0         0         0         0         0         0
         0         0         0         0         0         0         0         0
         0         0         0         0         0         0         0         0
         0         0         0         0         0         0         0         0
         0         0         0         0         0         0         0         0
         0         0         0         0         0         0         0         0
         0         0         0         0         0         0         0         0
         0         0         0         0         0         0         0         0
         0         0         0         0         0         0         0         0
         0         0         0         0         0         0         0         0
         0         0         0         0         0         0         0         0
         0         0         0         0         0         0         0         0
         0         0         0         0         0         0         0         0
         0         0         0         0         0         0         0         0
         0         0         0         0         0         0         0         0
         0         0         0         0         0         0         0         0
         0         0         0         0         0         0         0         0
         0         0         0         0         0         0         0         0
         0         0         0         0         0         0         0         0
         0         0         0         0         0         0         0         0
         0         0         0         0         0         0         0         0
         0         0         0         0         0         0         0         0
         0         0         0         0         0         0         0         0
         0         0         0         0         0         0         0         0
         0         0         0         0         0         0         0         0
         0         0         0         0         0         0         0         0
         0         0         0         0         0         0         0         0
         0         0         0         0         0         0         0         0
         0         0         0         0         0         0         0         0
         0         0         0         0         0         0         0         0
         0         0         0         0         0         0         0         0
         0         0         0         0         0         0         0         0
         0         0         0         0         0         0         0         0
         0         0         0         0         0         0         0         0
         0         0         0         0         0         0         0         0
         0         0         0         0         0         0         0         0
         0         0         0         0         0         0         0         0
         0         0         0         0         0         0         0         0
         0         0         0         0         0         0         0         0
         0         0         0         0         0         0         0         0
         0         0         0         0         0         0         0         0
         0         0         0         0         0         0         0         0
         0         0         0         0         0         0         0         0
         0         0         0         0         0         0         0         0
         0         0         0         0         0         0         0         0
         0         0         0         0         0         0         0         0
         0         0         0         0         0         0         0         0
         0         0         0         0         0         0         0         0
         0         0         0         0         0         0         0         0
         0         0         0         0         0         0         0         0
         0         0         0         0         0         0         0         0
         0         0         0         0         0         0         0         0
         0         0         0         0         0         0         0         0
         0         0         0         0         0         0         0         0
         0         0         0         0         0         0         0         0
         0         0         0         0         0         0         0         0
         0         0         0         0         0         0         0         0
         0         0         0         0         0         0         0         0
         0         0         0         0         0         0         0         0
         0         0         0         0         0         0         0         0
         0         0         0         0         0         0         0         0
         0         0         0         0         0         0         0         0
         0         0         0         0         0         0         0         0
         0         0         0         0         0         0         0         0
         0         0         0         0         0         0         0         0
         0         0         0         0         0         0         0         0
         0         0         0         0         0         0         0         0
         0         0         0         0         0         0         0         0
         0         0         0         0         0         0         0         0
         0         0         0         0         0         0         0         0
         0         0         0         0         0         0         0         0
         0         0         0         0         0         0         0         0
         0         0         0         0         0         0         0         0
         0         0         0         0         0         0         0         0
         0         0         0         0         0         0         0         0
         0         0         0         0         0         0         0         0
         0         0         0         0         0         0         0         0
         0         0         0         0         0         0         0         0
         0         0         0         0         0         0         0         0
         0         0         0         0         0         0         0         0
         0         0         0         0         0         0         0         0
         0         0         0         0         0         0         0         0
         0         0         0         0         0         0         0         0
         0         0         0         0         0         0         0         0
         0         0         0         0         0         0         0         0
         0         0         0         0         0         0         0         0
         0         0         0         0         0         0         0         0
         0         0         0         0         0         0         0         0
         0         0         0         0         0         0         0         0
         0         0         0         0         0         0         0         0
         0         0         0         0         0         0         0         0
         0         0         0         0         0         0         0         0
         0         0         0         0         0         0         0         0
         0         0         0         0         0         0         0         0
         0         0         0         0         0         0         0         0
         0         0         0         0         0         0         0         0
         0         0         0         0         0         0         0         0
         0         0         0         0         0         0         0         0
         0         0         0         0         0         0         0         0
         0         0         0         0         0         0         0         0
         0         0         0         0         0         0         0         0
         0         0         0         0         0         0         0         0
         0         0         0         0         0         0         0         0
         0         0         0         0         0         0         0         0
         0         0         0         0         0         0         0         0
         0         0         0         0         0         0         0         0
         0         0         0         0         0         0         0         0
         0         0         0         0         0         0         0         0
         0         0         0         0         0         0         0         0
         0         0         0         0         0         0         0         0
         0         0         0         0         0         0         0         0
         0         0         0         0         0         0         0         0
         0         0         0         0         0         0         0         0
         0         0         0         0         0         0         0         0
         0         0         0         0         0         0         0         0
         0         0         0         0         0         0         0         0
         0         0         0         0         0         0         0         0
         0         0         0         0         0         0         0         0
         0         0         0         0         0         0         0         0
         0         0         0         0         0         0         0         0
         0         0         0         0         0         0         0         0
         0         0         0         0         0         0         0         0
         0         0         0         0         0         0         0         0
         0         0         0         0         0         0         0         0
         0         0         0         0         0         0         0         0
         0         0         0         0         0         0         0         0
         0         0         0         0         0         0         0         0
         0         0         0         0         0         0         0         0
         0         0         0         0         0         0         0         0
         0         0         0         0         0         0         0         0
         0         0         0         0         0         0         0         0
         0         0         0         0         0         0         0         0
         0         0         0         0         0         0         0         0
         0         0         0         0         0         0         0         0
         0         0         0         0         0         0         0         0
         0         0         0         0         0         0         0         0
         0         0         0         0         0         0         0         0
         0         0         0         0         0         0         0         0
         0         0         0         0         0         0         0         0
         0         0         0         0         0         0         0         0
         0         0         0         0         0         0         0         0
         0         0         0         0         0         0         0         0
         0         0         0         0         0         0         0         0
         0         0         0         0         0         0         0         0
         0         0         0         0         0         0         0         0
         0         0         0         0         0         0         0         0
         0         0         0         0         0         0         0         0
         0         0         0         0         0         0         0         0
         0         0         0         0         0         0         0         0
         0         0         0         0         0         0         0         0
         0         0         0         0         0         0         0         0
         0         0         0         0         0         0         0         0
         0         0         0         0         0         0         0         0
         0         0         0         0         0         0         0         0
         0         0         0         0         0         0         0         0
         0         0         0         0         0         0         0         0
         0         0         0         0         0         0         0         0
         0         0         0         0         0         0         0         0
         0         0         0         0         0         0         0         0
         0         0         0         0         0         0         0         0
         0         0         0         0         0         0         0         0
         0         0         0         0         0         0         0         0
         0         0         0         0         0         0         0         0
         0         0         0         0         0         0         0         0
         0         0         0         0         0         0         0         0
         0         0         0         0         0         0         0         0
         0         0         0         0         0         0         0         0
         0         0         0         0         0         0         0         0
         0         0         0         0         0         0         0         0
         0         0         0         0         0         0         0         0
         0         0         0         0         0         0         0         0
         0         0         0         0         0         0         0         0
         0         0         0         0         0         0         0         0
         0         0         0         0         0         0         0         0
         0         0         0         0         0         0         0         0
         0         0         0         0         0         0         0         0
         0         0         0         0         0         0         0         0
         0         0         0         0         0         0         0         0
         0         0         0         0         0         0         0         0
         0         0         0         0         0         0         0         0
         0         0         0         0         0         0         0         0
         0         0         0         0         0         0         0         0
         0         0         0         0         0         0         0         0
         0         0         0         0         0         0         0         0
         0         0         0         0         0         0         0         0
         0         0         0         0         0         0         0         0
         0         0         0         0         0         0         0         0
         0         0         0         0         0         0         0         0
         0         0         0         0         0         0         0         0
         0         0         0         0         0         0         0         0
         0         0         0         0         0         0         0         0
         0         0         0         0         0         0         0         0
         0         0         0         0         0         0         0         0
         0         0         0         0         0         0         0         0
         0         0         0         0         0         0         0         0
         0         0         0         0         0         0         0         0
         0         0         0         0         0         0         0         0
         0         0         0         0         0         0         0         0
         0         0         0         0         0         0         0         0
         0         0         0         0         0         0         0         0
         0         0         0         0         0         0         0         0
         0         0         0         0         0         0         0         0
         0         0         0         0         0         0         0         0
         0         0         0         0         0         0         0         0
         0         0         0         0         0         0         0         0
         0         0         0         0         0         0         0         0
         0         0         0         0         0         0         0         0
         0         0         0         0         0         0         0         0
         0         0         0         0         0         0         0         0
         0         0         0         0         0         0         0         0
         0         0         0         0         0         0         0         0
         0         0         0         0         0         0         0         0
         0         0         0         0         0         0         0         0
         0         0         0         0         0         0         0         0
         0         0         0         0         0         0         0         0
         0         0         0         0         0         0         0         0
         0         0         0         0         0         0         0         0
         0         0         0         0         0         0         0         0
         0         0         0         0         0         0         0         0
         0         0         0         0         0         0         0         0
         0         0         0         0         0         0         0         0
         0         0         0         0         0         0         0         0
         0         0         0         0         0         0         0         0
         0         0         0         0         0         0         0         0
         0         0         0         0         0         0         0         0
         0         0         0         0         0         0         0         0
         0         0         0         0         0         0         0         0
         0         0         0         0         0         0         0         0
         0         0         0         0         0         0         0         0
         0         0         0         0         0         0         0         0
         0         0         0         0         0         0         0         0
         0         0         0         0         0         0         0         0
         0         0         0         0         0         0         0         0
         0         0         0         0         0         0         0         0
         0         0         0         0         0         0         0         0
         0         0         0         0         0         0         0         0
         0         0         0         0         0         0         0         0
         0         0         0         0         0         0         0         0
         0         0         0         0         0         0         0         0
         0         0         0         0         0         0         0         0
         0         0         0         0         0         0         0         0
         0         0         0         0         0         0         0         0
         0         0         0         0         0         0         0         0
         0         0         0         0         0         0         0         0
         0         0         0         0         0         0         0         0
         0         0         0         0         0         0         0         0
         0         0         0         0         0         0         0         0
         0         0         0         0         0         0         0         0
         0         0         0         0         0         0         0         0
         0         0         0         0         0         0         0         0
         0         0         0         0         0         0         0         0
         0         0         0         0         0         0         0         0
         0         0         0         0         0         0         0         0
         0         0         0         0         0         0         0         0
         0         0         0         0         0         0         0         0
         0         0         0         0         0         0         0         0
         0         0         0         0         0         0         0         0
         0         0         0         0         0         0         0         0
         0         0         0         0         0         0         0         0
         0         0         0         0         0         0         0         0
         0         0         0         0         0         0         0         0
         0         0         0         0         0         0         0         0
         0         0         0         0         0         0         0         0
         0         0         0         0         0         0         0         0
         0         0         0         0         0         0         0         0
         0         0         0         0         0         0         0         0
         0         0         0         0         0         0         0         0
         0         0         0         0         0         0         0         0
         0         0         0         0         0         0         0         0
         0         0         0         0         0         0         0         0
         0         0         0         0         0         0         0         0
         0         0         0         0         0         0         0         0
         0         0         0         0         0         0         0         0
         0         0         0         0         0         0         0         0
         0         0         0         0         0         0         0         0
         0         0         0         0         0         0         0         0
         0         0         0         0         0         0         0         0
         0         0         0         0         0         0         0         0
         0         0         0         0         0         0         0         0
         0         0         0         0         0         0         0         0
         0         0         0         0         0         0         0         0
         0         0         0         0         0         0         0         0
         0         0         0         0         0         0         0         0
         0         0         0         0         0         0         0         0
         0         0         0         0         0         0         0         0
         0         0         0         0         0         0         0         0
         0         0         0         0         0         0         0         0
         0         0         0         0         0         0         0         0
         0         0         0         0         0         0         0         0
         0         0         0         0         0         0         0         0
         0         0         0         0         0         0         0         0
         0         0         0         0         0         0         0         0
         0         0         0         0         0         0         0         0
         0         0         0         0         0         0         0         0
         0         0         0         0         0         0         0         0
         0         0         0         0         0         0         0         0
         0         0         0         0         0         0         0         0
         0         0         0         0         0         0         0         0
         0         0         0         0         0         0         0         0
         0         0         0         0         0         0         0         0
         0         0         0         0         0         0         0         0
         0         0         0         0         0         0         0         0
         0         0         0         0         0         0         0         0
         0         0         0         0         0         0         0         0
         0         0         0         0         0         0         0         0
         0         0         0         0         0         0         0         0
         0         0         0         0         0         0         0         0
         0         0         0         0         0         0         0         0
         0         0         0         0         0         0         0         0
         0         0         0         0         0         0         0         0
         0         0         0         0         0         0         0         0
         0         0         0         0         0         0         0         0
         0         0         0         0         0         0         0         0
         0         0         0         0         0         0         0         0
         0         0         0         0         0         0         0         0
         0         0         0         0         0         0         0         0
         0         0         0         0         0         0         0         0
         0         0         0         0         0         0         0         0
         0         0         0         0         0         0         0         0
         0         0         0         0         0         0         0         0
         0         0         0         0         0         0         0         0
         0         0         0         0         0         0         0         0
         0         0         0         0         0         0         0         0
         0         0         0         0         0         0         0         0
         0         0         0         0         0         0         0         0
         0         0         0         0         0         0         0         0
         0         0         0         0         0         0         0         0
         0         0         0         0         0         0         0         0
         0         0         0         0         0         0         0         0
         0         0         0         0         0         0         0         0
         0         0         0         0         0         0         0         0
         0         0         0         0         0         0         0         0
         0         0         0         0         0         0         0         0
         0         0         0         0         0         0         0         0
         0         0         0         0         0         0         0         0
         0         0         0         0         0         0         0         0
         0         0         0         0         0         0         0         0
         0         0         0         0         0         0         0         0
         0         0         0         0         0         0         0         0
         0         0         0         0         0         0         0         0
         0         0         0         0         0         0         0         0
         0         0         0         0         0         0         0         0
         0         0         0         0         0         0         0         0
         0         0         0         0         0         0         0         0
         0         0         0         0         0         0         0         0
         0         0         0         0         0         0         0         0
         0         0         0         0         0         0         0         0
         0         0         0         0         0         0         0         0
         0         0         0         0         0         0         0         0
         0         0         0         0         0         0         0         0
         0         0         0         0         0         0         0         0
         0         0         0         0         0         0         0         0
         0         0         0         0         0         0         0         0
         0         0         0         0         0         0         0         0
         0         0         0         0         0         0         0         0
         0         0         0         0         0         0         0         0
         0         0         0         0         0         0         0         0
         0         0         0         0         0         0         0         0
         0         0         0         0         0         0         0         0
         0         0         0         0         0         0         0         0
         0         0         0         0         0         0         0         0
         0         0         0         0         0         0         0         0
         0         0         0         0         0         0         0         0
         0         0         0         0         0         0         0         0
         0         0         0         0         0         0         0         0
         0         0         0         0         0         0         0         0
         0         0         0         0         0         0         0         0
         0         0         0         0         0         0         0         0
         0         0         0         0         0         0         0         0
         0         0         0         0         0         0         0         0
         0         0         0         0         0         0         0         0
         0         0         0         0         0         0         0         0
         0         0         0         0         0         0         0         0
         0         0         0         0         0         0         0         0
         0         0         0         0         0         0         0         0
         0         0         0         0         0         0         0         0
         0         0         0         0         0         0         0         0
         0         0         0         0         0         0         0         0
         0         0         0         0         0         0         0         0
         0         0         0         0         0         0         0         0
         0         0         0         0         0         0         0         0
         0         0         0         0         0         0         0         0
         0         0         0         0         0         0         0         0
         0         0         0         0         0         0         0         0
         0         0         0         0         0         0         0         0
         0         0         0         0         0         0         0         0
         0         0         0         0         0         0         0         0
         0         0         0         0         0         0         0         0
         0         0         0         0         0         0         0         0
         0         0         0         0         0         0         0         0
         0         0         0         0         0         0         0         0
         0         0         0         0         0         0         0         0
         0         0         0         0         0         0         0         0
         0         0         0         0         0         0         0         0
         0         0         0         0         0         0         0         0
         0         0         0         0         0         0         0         0
         0         0         0         0         0         0         0         0
         0         0         0         0         0         0         0         0
         0         0         0         0         0         0         0         0
         0         0         0         0         0         0         0         0
         0         0         0         0         0         0         0         0
         0         0         0         0         0         0         0         0
         0         0         0         0         0         0         0         0
         0         0         0         0         0         0         0         0
         0         0         0         0         0         0         0         0
         0         0         0         0         0         0         0         0
         0         0         0         0         0         0         0         0
         0         0         0         0         0         0         0         0
         0         0         0         0         0         0         0         0
         0         0         0         0         0         0         0         0
         0         0         0         0         0         0         0         0
         0         0         0         0         0         0         0         0
         0         0         0         0         0         0         0         0
         0         0         0         0         0         0         0         0
         0         0         0         0         0         0         0         0
         0         0         0         0         0         0         0         0
         0         0         0         0         0         0         0         0
         0         0         0         0         0         0         0         0
         0         0         0         0         0         0         0         0
         0         0         0         0         0         0         0         0
         0         0         0         0         0         0         0         0
         0         0         0         0         0         0         0         0
         0         0         0         0         0         0         0         0
         0         0         0         0         0         0         0         0
         0         0         0         0         0         0         0         0
         0         0         0         0         0         0         0         0
         0         0         0         0         0         0         0         0
         0         0         0         0         0         0         0         0
         0         0         0         0         0         0         0         0
         0         0         0         0         0         0         0         0
         0         0         0         0         0         0         0         0
         0         0         0         0         0         0         0         0
         0         0         0         0         0         0         0         0
         0         0         0         0         0         0         0         0
         0         0         0         0         0         0         0         0
         0         0         0         0         0         0         0         0
         0         0         0         0         0         0         0         0
         0         0         0         0         0         0         0         0
         0         0         0         0         0         0         0         0
         0         0         0         0         0         0         0         0
         0         0         0         0         0         0         0         0
         0         0         0         0         0         0         0         0
         0         0         0         0         0         0         0         0
         0         0         0         0         0         0         0         0
         0         0         0         0         0         0         0         0
         0         0         0         0         0         0         0         0
         0         0         0         0         0         0         0         0
         0         0         0         0         0         0         0         0
         0         0         0         0         0         0         0         0
         0         0         0         0         0         0         0         0
         0         0         0         0         0         0         0         0
         0         0         0         0         0         0         0         0
         0         0         0         0         0         0         0         0
         0         0         0         0         0         0         0         0
         0         0         0         0         0         0         0         0
         0         0         0         0         0         0         0         0
         0         0         0         0         0         0         0         0
         0         0         0         0         0         0         0         0
         0         0         0         0         0         0         0         0
         0         0         0         0         0         0         0         0
         0         0         0         0         0         0         0         0
         0         0         0         0         0         0         0         0
         0         0         0         0         0         0         0         0
         0         0         0         0         0         0         0         0
         0         0         0         0         0         0         0         0
         0         0         0         0         0         0         0         0
         0         0         0         0         0         0         0         0
         0         0         0         0         0         0         0         0
         0         0         0         0         0         0         0         0
         0         0         0         0         0         0         0         0
         0         0         0         0         0         0         0         0
         0         0         0         0         0         0         0         0
         0         0         0         0         0         0         0         0
         0         0         0         0         0         0         0         0
         0         0         0         0         0         0         0         0
         0         0         0         0         0         0         0         0
         0         0         0         0         0         0         0         0
         0         0         0         0         0         0         0         0
         0         0         0         0         0         0         0         0
         0         0         0         0         0         0         0         0
         0         0         0         0         0         0         0         0
         0         0         0         0         0         0         0         0
         0         0         0         0         0         0         0         0
         0         0         0         0         0         0         0         0
         0         0         0         0         0         0         0         0
         0         0         0         0         0         0         0         0
         0         0         0         0         0         0         0         0
         0         0         0         0         0         0         0         0
         0         0         0         0         0         0         0         0
         0         0         0         0         0         0         0         0
         0         0         0         0         0         0         0         0
         0         0         0         0         0         0         0         0
         0         0         0         0         0         0         0         0
         0         0         0         0         0         0         0         0
         0         0         0         0         0         0         0         0
         0         0         0         0         0         0         0         0
         0         0         0         0         0         0         0         0
         0         0         0         0         0         0         0         0
         0         0         0         0         0         0         0         0
         0         0         0         0         0         0         0         0
         0         0         0         0         0         0         0         0
         0         0         0         0         0         0         0         0
         0         0         0         0         0         0         0         0
         0         0         0         0         0         0         0         0
         0         0         0         0         0         0         0         0
         0         0         0         0         0         0         0         0
         0         0         0         0         0         0         0         0
         0         0         0         0         0         0         0         0
         0         0         0         0         0         0         0         0
         0         0         0         0         0         0         0         0
         0         0         0         0         0         0         0         0
         0         0         0         0         0         0         0         0
         0         0         0         0         0         0         0         0
         0         0         0         0         0         0         0         0
         0         0         0         0         0         0         0         0
         0         0         0         0         0         0         0         0
         0         0         0         0         0         0         0         0
         0         0         0         0         0         0         0         0
         0         0         0         0         0         0         0         0
         0         0         0         0         0         0         0         0
         0         0         0         0         0         0         0         0
         0         0         0         0         0         0         0         0
         0         0         0         0         0         0         0         0
         0         0         0         0         0         0         0         0
         0         0         0         0         0         0         0         0
         0         0         0         0         0         0         0         0
         0         0         0         0         0         0         0         0
         0         0         0         0         0         0         0         0
         0         0         0         0         0         0         0         0
         0         0         0         0         0         0         0         0
         0         0         0         0         0         0         0         0
         0         0         0         0         0         0         0         0
         0         0         0         0         0         0         0         0
         0         0         0         0         0         0         0         0
         0         0         0         0         0         0         0         0
         0         0         0         0         0         0         0         0
         0         0         0         0         0         0         0         0
         0         0         0         0         0         0         0         0
         0         0         0         0         0         0         0         0
         0         0         0         0         0         0         0         0
         0         0         0         0         0         0         0         0
         0         0         0         0         0         0         0         0
         0         0         0         0         0         0         0         0
         0         0         0         0         0         0         0         0
         0         0         0         0         0         0         0         0
         0         0         0         0         0         0         0         0
         0         0         0         0         0         0         0         0
         0         0         0         0         0         0         0         0
         0         0         0         0         0         0         0         0
         0         0         0         0         0         0         0         0
         0         0         0         0         0         0         0         0
         0         0         0         0         0         0         0         0
         0         0         0         0         0         0         0         0
         0         0         0         0         0         0         0         0
         0         0         0         0         0         0         0         0
         0         0         0         0         0         0         0         0
         0         0         0         0         0         0         0         0
         0         0         0         0         0         0         0         0
         0         0         0         0         0         0         0         0
         0         0         0         0         0         0         0         0
         0         0         0         0         0         0         0         0
         0         0         0         0         0         0         0         0
         0         0         0         0         0         0         0         0
         0         0         0         0         0         0         0         0
         0         0         0         0         0         0         0         0
         0         0         0         0         0         0         0         0
         0         0         0         0         0         0         0         0
         0         0         0         0         0         0         0         0
         0         0         0         0         0         0         0         0
         0         0         0         0         0         0         0         0
         0         0         0         0         0         0         0         0
         0         0         0         0         0         0         0         0
         0         0         0         0         0         0         0         0
         0         0         0         0         0         0         0         0
         0         0         0         0         0         0         0         0
         0         0         0         0         0         0         0         0
         0         0         0         0         0         0         0         0
         0         0         0         0         0         0         0         0
         0         0         0         0         0         0         0         0
         0         0         0         0         0         0         0         0
         0         0         0         0         0         0         0         0
         0         0         0         0         0         0         0         0
         0         0         0         0         0         0         0         0
         0         0         0         0         0         0         0         0
         0         0         0         0         0         0         0         0
         0         0         0         0         0         0         0         0
         0         0         0         0         0         0         0         0
         0         0         0         0         0         0         0         0
         0         0         0         0         0         0         0         0
         0         0         0         0         0         0         0         0
         0         0         0         0         0         0         0         0
         0         0         0         0         0         0         0         0
         0         0         0         0         0         0         0         0
         0         0         0         0         0         0         0         0
         0         0         0         0         0         0         0         0
         0         0         0         0         0         0         0         0
         0         0         0         0         0         0         0         0
         0         0         0         0         0         0         0         0
         0         0         0         0         0         0         0         0
         0         0         0         0         0         0         0         0
         0         0         0         0         0         0         0         0
         0         0         0         0         0         0         0         0
         0         0         0         0         0         0         0         0
         0         0         0         0         0         0         0         0
         0         0         0         0         0         0         0         0
         0         0         0         0         0         0         0         0
         0         0         0         0         0         0         0         0
         0         0         0         0         0         0         0         0
         0         0         0         0         0         0         0         0
         0         0         0         0         0         0         0         0
         0         0         0         0         0         0         0         0
         0         0         0         0         0         0         0         0
         0         0         0         0         0         0         0         0
         0         0         0         0         0         0         0         0
         0         0         0         0         0         0         0         0
         0         0         0         0         0         0         0         0
         0         0         0         0         0         0         0         0
         0         0         0         0         0         0         0         0
         0         0         0         0         0         0         0         0
         0         0         0         0         0         0         0         0
         0         0         0         0         0         0         0         0
         0         0         0         0         0         0         0         0
         0         0         0         0         0         0         0         0
         0         0         0         0         0         0         0         0
         0         0         0         0         0         0         0         0
         0         0         0         0         0         0         0         0
         0         0         0         0         0         0         0         0
         0         0         0         0         0         0         0         0
         0         0         0         0         0         0         0         0
         0         0         0         0         0         0         0         0
         0         0         0         0         0         0         0         0
         0         0         0         0         0         0         0         0
         0         0         0         0         0         0         0         0
         0         0         0         0         0         0         0         0
         0         0         0         0         0         0         0         0
         0         0         0         0         0         0         0         0
         0         0         0         0         0         0         0         0
         0         0         0         0         0         0         0         0
         0         0         0         0         0         0         0         0
         0         0         0         0         0         0         0         0
         0         0         0         0         0         0         0         0
         0         0         0         0         0         0         0         0
         0         0         0         0         0         0         0         0
         0         0         0         0         0         0         0         0
         0         0         0         0         0         0         0         0
         0         0         0         0         0         0         0         0
         0         0         0         0         0         0         0         0
         0         0         0         0         0         0         0         0
         0         0         0         0         0         0         0         0
         0         0         0         0         0         0         0         0
         0         0         0         0         0         0         0         0
         0         0         0         0         0         0         0         0
         0         0         0         0         0         0         0         0
         0         0         0         0         0         0         0         0
         0         0         0         0         0         0         0         0
         0         0         0         0         0         0         0         0
         0         0         0         0         0         0         0         0
         0         0         0         0         0         0         0         0
         0         0         0         0         0         0         0         0
         0         0         0         0         0         0         0         0
         0         0         0         0         0         0         0         0
         0         0         0         0         0         0         0         0
         0         0         0         0         0         0         0         0
         0         0         0         0         0         0         0         0
         0         0         0         0         0         0         0         0
         0         0         0         0         0         0         0         0
         0         0         0         0         0         0         0         0
         0         0         0         0         0         0         0         0
         0         0         0         0         0         0         0         0
         0         0         0         0         0         0         0         0
         0         0         0         0         0         0         0         0
         0         0         0         0         0         0         0         0
         0         0         0         0         0         0         0         0
         0         0         0         0         0         0         0         0
         0         0         0         0         0         0         0         0
         0         0         0         0         0         0         0         0
         0         0         0         0         0         0         0         0
         0         0         0         0         0         0         0         0
         0         0         0         0         0         0         0         0
         0         0         0         0         0         0         0         0
         0         0         0         0         0         0         0         0
         0         0         0         0         0         0         0         0
         0         0         0         0         0         0         0         0
         0         0         0         0         0         0         0         0
         0         0         0         0         0         0         0         0
         0         0         0         0         0         0         0         0
         0         0         0         0         0         0         0         0
         0         0         0         0         0         0         0         0
         0         0         0         0         0         0         0         0
         0         0         0         0         0         0         0         0
         0         0         0         0         0         0         0         0
         0         0         0         0         0         0         0         0
         0         0         0         0         0         0         0         0
         0         0         0         0         0         0         0         0
         0         0         0         0         0         0         0         0
         0         0         0         0         0         0         0         0
         0         0         0         0         0         0         0         0
         0         0         0         0         0         0         0         0
         0         0         0         0         0         0         0         0
         0         0         0         0         0         0         0         0
         0         0         0         0         0         0         0         0
         0         0         0         0         0         0         0         0
         0         0         0         0         0         0         0         0
         0         0         0         0         0         0         0         0
         0         0         0         0         0         0         0         0
         0         0         0         0         0         0         0         0
         0         0         0         0         0         0         0         0
         0         0         0         0         0         0         0         0
         0         0         0         0         0         0         0         0
         0         0         0         0         0         0         0         0
         0         0         0         0         0         0         0         0
         0         0         0         0         0         0         0         0
         0         0         0         0         0         0         0         0
         0         0         0         0         0         0         0         0
         0         0         0         0         0         0         0         0
         0         0         0         0         0         0         0         0
         0         0         0         0         0         0         0         0
         0         0         0         0         0         0         0         0
         0         0         0         0         0         0         0         0
         0         0         0         0         0         0         0         0
         0         0         0         0         0         0         0         0
         0         0         0         0         0         0         0         0
         0         0         0         0         0         0         0         0
         0         0         0         0         0         0         0         0
         0         0         0         0         0         0         0         0
         0         0         0         0         0         0         0         0
         0         0         0         0         0         0         0         0
         0         0         0         0         0         0         0         0
         0         0         0         0         0         0         0         0
         0         0         0         0         0         0         0         0
         0         0         0         0         0         0         0         0
         0         0         0         0         0         0         0         0
         0         0         0         0         0         0         0         0
         0         0         0         0         0         0         0         0
         0         0         0         0         0         0         0         0
         0         0         0         0         0         0         0         0
         0         0         0         0         0         0         0         0
         0         0         0         0         0         0         0         0
         0         0         0         0         0         0         0         0
         0         0         0         0         0         0         0         0
         0         0         0         0         0         0         0         0
         0         0         0         0         0         0         0         0
         0         0         0         0         0         0         0         0
         0         0         0         0         0         0         0         0
         0         0         0         0         0         0         0         0
         0         0         0         0         0         0         0         0
         0         0         0         0         0         0         0         0
         0         0         0         0         0         0         0         0
         0         0         0         0         0         0         0         0
         0         0         0         0         0         0         0         0
         0         0         0         0         0         0         0         0
         0         0         0         0         0         0         0         0
         0         0         0         0         0         0         0         0
         0         0         0         0         0         0         0         0
         0         0         0         0         0         0         0         0
         0         0         0         0         0         0         0         0
         0         0         0         0         0         0         0         0
         0         0         0         0         0         0         0         0
         0         0         0         0         0         0         0         0
         0         0         0         0         0         0         0         0
         0         0         0         0         0         0         0         0
         0         0         0         0         0         0         0         0
         0         0         0         0         0         0         0         0
         0         0         0         0         0         0         0         0
         0         0         0         0         0         0         0         0
         0         0         0         0         0         0         0         0
         0         0         0         0         0         0         0         0
         0         0         0         0         0         0         0         0
         0         0         0         0         0         0         0         0
         0         0         0         0         0         0         0         0
         0         0         0         0         0         0         0         0
         0         0         0         0         0         0         0         0
         0         0         0         0         0         0         0         0
         0         0         0         0         0         0         0         0
         0         0         0         0         0         0         0         0
         0         0         0         0         0         0         0         0
         0         0         0         0         0         0         0         0
         0         0         0         0         0         0         0         0
         0         0         0         0         0         0         0         0
         0         0         0         0         0         0         0         0
         0         0         0         0         0         0         0         0
         0         0         0         0         0         0         0         0
         0         0         0         0         0         0         0         0
         0         0         0         0         0         0         0         0
         0         0         0         0         0         0         0         0
         0         0         0         0         0         0         0         0
         0         0         0         0         0         0         0         0
         0         0         0         0         0         0         0         0
         0         0         0         0         0         0         0         0
         0         0         0         0         0         0         0         0
         0         0         0         0         0         0         0         0
         0         0         0         0         0         0         0         0
         0         0         0         0         0         0         0         0
         0         0         0         0         0         0         0         0
         0         0         0         0         0         0         0         0
         0         0         0         0         0         0         0         0
         0         0         0         0         0         0         0         0
         0         0         0         0         0         0         0         0
         0         0         0         0         0         0         0         0
         0         0         0         0         0         0         0         0
         0         0         0         0         0         0         0         0
         0         0         0         0         0         0         0         0
         0         0         0         0         0         0         0         0
         0         0         0         0         0         0         0         0
         0         0         0         0         0         0         0         0
         0         0         0         0         0         0         0         0
         0         0         0         0         0         0         0         0
         0         0         0         0         0         0         0         0
         0         0         0         0         0         0         0         0
         0         0         0         0         0         0         0         0
         0         0         0         0         0         0         0         0
         0         0         0         0         0         0         0         0
         0         0         0         0         0         0         0         0
         0         0         0         0         0         0         0         0
         0         0         0         0         0         0         0         0
         0         0         0         0         0         0         0         0
         0         0         0         0         0         0         0         0
         0         0         0         0         0         0         0         0
         0         0         0         0         0         0         0         0
         0         0         0         0         0         0         0         0
         0         0         0         0         0         0         0         0
         0         0         0         0         0         0         0         0
         0         0         0         0         0         0         0         0
         0         0         0         0         0         0         0         0
         0         0         0         0         0         0         0         0
         0         0         0         0         0         0         0         0
         0         0         0         0         0         0         0         0
         0         0         0         0         0         0         0         0
         0         0         0         0         0         0         0         0
         0         0         0         0         0         0         0         0
         0         0         0         0         0         0         0         0
         0         0         0         0         0         0         0         0
         0         0         0         0         0         0         0         0
         0         0         0         0         0         0         0         0
         0         0         0         0         0         0         0         0
         0         0         0         0         0         0         0         0
         0         0         0         0         0         0         0         0
         0         0         0         0         0         0         0         0
         0         0         0         0         0         0         0         0
         0         0         0         0         0         0         0         0
         0         0         0         0         0         0         0         0
         0         0         0         0         0         0         0         0
         0         0         0         0         0         0         0         0
         0         0         0         0         0         0         0         0
         0         0         0         0         0         0         0         0
         0         0         0         0         0         0         0         0
         0         0         0         0         0         0         0         0
         0         0         0         0         0         0         0         0
         0         0         0         0         0         0         0         0
         0         0         0         0         0         0         0         0
         0         0         0         0         0         0         0         0
         0         0         0         0         0         0         0         0
         0         0         0         0         0         0         0         0
         0         0         0         0         0         0         0         0
         0         0         0         0         0         0         0         0
         0         0         0         0         0         0         0         0
         0         0         0         0         0         0         0         0
         0         0         0         0         0         0         0         0
         0         0         0         0         0         0         0         0
         0         0         0         0         0         0         0         0
         0         0         0         0         0         0         0         0
         0         0         0         0         0         0         0         0
         0         0         0         0         0         0         0         0
         0         0         0         0         0         0         0         0
         0         0         0         0         0         0         0         0
         0         0         0         0         0         0         0         0
         0         0         0         0         0         0         0         0
         0         0         0         0         0         0         0         0
         0         0         0         0         0         0         0         0
         0         0         0         0         0         0         0         0
         0         0         0         0         0         0         0         0
         0         0         0         0         0         0         0         0
         0         0         0         0         0         0         0         0
         0         0         0         0         0         0         0         0
         0         0         0         0         0         0         0         0
         0         0         0         0         0         0         0         0
         0         0         0         0         0         0         0         0
         0         0         0         0         0         0         0         0
         0         0         0         0         0         0         0         0
         0         0         0         0         0         0         0         0
         0         0         0         0         0         0         0         0
         0         0         0         0         0         0         0         0
         0         0         0         0         0         0         0         0
         0         0         0         0         0         0         0         0
         0         0         0         0         0         0         0         0
         0         0         0         0         0         0         0         0
         0         0         0         0         0         0         0         0
         0         0         0         0         0         0         0         0
         0         0         0         0         0         0         0         0
         0         0         0         0         0         0         0         0
         0         0         0         0         0         0         0         0
         0         0         0         0         0         0         0         0
         0         0         0         0         0         0         0         0
         0         0         0         0         0         0         0         0
         0         0         0         0         0         0         0         0
         0         0         0         0         0         0         0         0
         0         0         0         0         0         0         0         0
         0         0         0         0         0         0         0         0
         0         0         0         0         0         0         0         0
         0         0         0         0         0         0         0         0
         0         0         0         0         0         0         0         0
         0         0         0         0         0         0         0         0
         0         0         0         0         0         0         0         0
         0         0         0         0         0         0         0         0
         0         0         0         0         0         0         0         0
         0         0         0         0         0         0         0         0
         0         0         0         0         0         0         0         0
         0         0         0         0         0         0         0         0
         0         0         0         0         0         0         0         0
         0         0         0         0         0         0         0         0
         0         0         0         0         0         0         0         0
         0         0         0         0         0         0         0         0
         0         0         0         0         0         0         0         0
         0         0         0         0         0         0         0         0
         0         0         0         0         0         0         0         0
         0         0         0         0         0         0         0         0
         0         0         0         0         0         0         0         0
         0         0         0         0         0         0         0         0
         0         0         0         0         0         0         0         0
         0         0         0         0         0         0         0         0
         0         0         0         0         0         0         0         0
         0         0         0         0         0         0         0         0
         0         0         0         0         0         0         0         0
         0         0         0         0         0         0         0         0
         0         0         0         0         0         0         0         0
         0         0         0         0         0         0         0         0
         0         0         0         0         0         0         0         0
         0         0         0         0         0         0         0         0
         0         0         0         0         0         0         0         0
         0         0         0         0         0         0         0         0
         0         0         0         0         0         0         0         0
         0         0         0         0         0         0         0         0
         0         0         0         0         0         0         0         0
         0         0         0         0         0         0         0         0
         0         0         0         0         0         0         0         0
         0         0         0         0         0         0         0         0
         0         0         0         0         0         0         0         0
         0         0         0         0         0         0         0         0
         0         0         0         0         0         0         0         0
         0         0         0         0         0         0         0         0
         0         0         0         0         0         0         0         0
         0         0         0         0         0         0         0         0
         0         0         0         0         0         0         0         0
         0         0         0         0         0         0         0         0
         0         0         0         0         0         0         0         0
         0         0         0         0         0         0         0         0
         0         0         0         0         0         0         0         0
         0         0         0         0         0         0         0         0
         0         0         0         0         0         0         0         0
         0         0         0         0         0         0         0         0
         0         0         0         0         0         0         0         0
         0         0         0         0         0         0         0         0
         0         0         0         0         0         0         0         0
         0         0         0         0         0         0         0         0
         0         0         0         0         0         0         0         0
         0         0         0         0         0         0         0         0
         0         0         0         0         0         0         0         0
         0         0         0         0         0         0         0         0
         0         0         0         0         0         0         0         0
         0         0         0         0         0         0         0         0
         0         0         0         0         0         0         0         0
         0         0         0         0         0         0         0         0
         0         0         0         0         0         0         0         0
         0         0         0         0         0         0         0         0
         0         0         0         0         0         0         0         0
         0         0         0         0         0         0         0         0
         0         0         0         0         0         0         0         0
         0         0         0         0         0         0         0         0
         0         0         0         0         0         0         0         0
         0         0         0         0         0         0         0         0
         0         0         0         0         0         0         0         0
         0         0         0         0         0         0         0         0
         0         0         0         0         0         0         0         0
         0         0         0         0         0         0         0         0
         0         0         0         0         0         0         0         0
         0         0         0         0         0         0         0         0
         0         0         0         0         0         0         0         0
         0         0         0         0         0         0         0         0
         0         0         0         0         0         0         0         0
         0         0         0         0         0         0         0         0
         0         0         0         0         0         0         0         0
         0         0         0         0         0         0         0         0
         0         0         0         0         0         0         0         0
         0         0         0         0         0         0         0         0
         0         0         0         0         0         0         0         0
         0         0         0         0         0         0         0         0
         0         0         0         0         0         0         0         0
         0         0         0         0         0         0         0         0
         0         0         0         0         0         0         0         0
         0         0         0         0         0         0         0         0
         0         0         0         0         0         0         0         0
         0         0         0         0         0         0         0         0
         0         0         0         0         0         0         0         0
         0         0         0         0         0         0         0         0
         0         0         0         0         0         0         0         0
         0         0         0         0         0         0         0         0
         0         0         0         0         0         0         0         0
         0         0         0         0         0         0         0         0
         0         0         0         0         0         0         0         0
         0         0         0         0         0         0         0         0
         0         0         0         0         0         0         0         0
         0         0         0         0         0         0         0         0
         0         0         0         0         0         0         0         0
         0         0         0         0         0         0         0         0
         0         0         0         0         0         0         0         0
         0         0         0         0         0         0         0         0
         0         0         0         0         0         0         0         0
         0         0         0         0         0         0         0         0
         0         0         0         0         0         0         0         0
         0         0         0         0         0         0         0         0
         0         0         0         0         0         0         0         0
         0         0         0         0         0         0         0         0
         0         0         0         0         0         0         0         0
         0         0         0         0         0         0         0         0
         0         0         0         0         0         0         0         0
         0         0         0         0         0         0         0         0
         0         0         0         0         0         0         0         0
         0         0         0         0         0         0         0         0
         0         0         0         0         0         0         0         0
         0         0         0         0         0         0         0         0
         0         0         0         0         0         0         0         0
         0         0         0         0         0         0         0         0
         0         0         0         0         0         0         0         0
         0         0         0         0         0         0         0         0
         0         0         0         0         0         0         0         0
         0         0         0         0         0         0         0         0
         0         0         0         0         0         0         0         0
         0         0         0         0         0         0         0         0
         0         0         0         0         0         0         0         0
         0         0         0         0         0         0         0         0
         0         0         0         0         0         0         0         0
         0         0         0         0         0         0         0         0
         0         0         0         0         0         0         0         0
         0         0         0         0         0         0         0         0
         0         0         0         0         0         0         0         0
         0         0         0         0         0         0         0         0
         0         0         0         0         0         0         0         0
         0         0         0         0         0         0         0         0
         0         0         0         0         0         0         0         0
         0         0         0         0         0         0         0         0
         0         0         0         0         0         0         0         0
         0         0         0         0         0         0         0         0
         0         0         0         0         0         0         0         0
         0         0         0         0         0         0         0         0
         0         0         0         0         0         0         0         0
         0         0         0         0         0         0         0         0
         0         0         0         0         0         0         0         0
         0         0         0         0         0         0         0         0
         0         0         0         0         0         0         0         0
         0         0         0         0         0         0         0         0
         0         0         0         0         0         0         0         0
         0         0         0         0         0         0         0         0
         0         0         0         0         0         0         0         0
         0         0         0         0         0         0         0         0
         0         0         0         0         0         0         0         0
         0         0         0         0         0         0         0         0
         0         0         0         0         0         0         0         0
         0         0         0         0         0         0         0         0
         0         0         0         0         0         0         0         0
         0         0         0         0         0         0         0         0
         0         0         0         0         0         0         0         0
         0         0         0         0         0         0         0         0
         0         0         0         0         0         0         0         0
         0         0         0         0         0         0         0         0
         0         0         0         0         0         0         0         0
         0         0         0         0         0         0         0         0
         0         0         0         0         0         0         0         0
         0         0         0         0         0         0         0         0
         0         0         0         0         0         0         0         0
         0         0         0         0         0         0         0         0
         0         0         0         0         0         0         0         0
         0         0         0         0         0         0         0         0
         0         0         0         0         0         0         0         0
         0         0         0         0         0         0         0         0
         0         0         0         0         0         0         0         0
         0         0         0         0         0         0         0         0
         0         0         0         0         0         0         0         0
         0         0         0         0         0         0         0         0
         0         0         0         0         0         0         0         0
         0         0         0         0         0         0         0         0
         0         0         0         0         0         0         0         0
         0         0         0         0         0         0         0         0
         0         0         0         0         0         0         0         0
         0         0         0         0         0         0         0         0
         0         0         0         0         0         0         0         0
         0         0         0         0         0         0         0         0
         0         0         0         0         0         0         0         0
         0         0         0         0         0         0         0         0
         0         0         0         0         0         0         0         0
         0         0         0         0         0         0         0         0
         0         0         0         0         0         0         0         0
         0         0         0         0         0         0         0         0
         0         0         0         0         0         0         0         0
         0         0         0         0         0         0         0         0
         0         0         0         0         0         0         0         0
         0         0         0         0         0         0         0         0
         0         0         0         0         0         0         0         0
         0         0         0         0         0         0         0         0
         0         0         0         0         0         0         0         0
         0         0         0         0         0         0         0         0
         0         0         0         0         0         0         0         0
         0         0         0         0         0         0         0         0
         0         0         0         0         0         0         0         0
         0         0         0         0         0         0         0         0
         0         0         0         0         0         0         0         0
         0         0         0         0         0         0         0         0
         0         0         0         0         0         0         0         0
         0         0         0         0         0         0         0         0
         0         0         0         0         0         0         0         0
         0         0         0         0         0         0         0         0
         0         0         0         0         0         0         0         0
         0         0         0         0         0         0         0         0
         0         0         0         0         0         0         0         0
         0         0         0         0         0         0         0         0
         0         0         0         0         0         0         0         0
         0         0         0         0         0         0         0         0
         0         0         0         0         0         0         0         0
         0         0         0         0         0         0         0         0
         0         0         0         0         0         0         0         0
         0         0         0         0         0         0         0         0
         0         0         0         0         0         0         0         0
         0         0         0         0         0         0         0         0
         0         0         0         0         0         0         0         0
         0         0         0         0         0         0         0         0
         0         0         0         0         0         0         0         0
         0         0         0         0         0         0         0         0
         0         0         0         0         0         0         0         0
         0         0         0         0         0         0         0         0
         0         0         0         0         0         0         0         0
         0         0         0         0         0         0         0         0
         0         0         0         0         0         0         0         0
         0         0         0         0         0         0         0         0
         0         0         0         0         0         0         0         0
         0         0         0         0         0         0         0         0
         0         0         0         0         0         0         0         0
         0         0         0         0         0         0         0         0
         0         0         0         0         0         0         0         0
         0         0         0         0         0         0         0         0
         0         0         0         0         0         0         0         0
         0         0         0         0         0         0         0         0
         0         0         0         0         0         0         0         0
         0         0         0         0         0         0         0         0
         0         0         0         0         0         0         0         0
         0         0         0         0         0         0         0         0
         0         0         0         0         0         0         0         0
         0         0         0         0         0         0         0         0
         0         0         0         0         0         0         0         0
         0         0         0         0         0         0         0         0
         0         0         0         0         0         0         0         0
         0         0         0         0         0         0         0         0
         0         0         0         0         0         0         0         0
         0         0         0         0         0         0         0         0
         0         0         0         0         0         0         0         0
         0         0         0         0         0         0         0         0
         0         0         0         0         0         0         0         0
         0         0         0         0         0         0         0         0
         0         0         0         0         0         0         0         0
         0         0         0         0         0         0         0         0
         0         0         0         0         0         0         0         0
         0         0         0         0         0         0         0         0
         0         0         0         0         0         0         0         0
         0         0         0         0         0         0         0         0
         0         0         0         0         0         0         0         0
         0         0         0         0         0         0         0         0
         0         0         0         0         0         0         0         0
         0         0         0         0         0         0         0         0
         0         0         0         0         0         0         0         0
         0         0         0         0         0         0         0         0
         0         0         0         0         0         0         0         0
         0         0         0         0         0         0         0         0
         0         0         0         0         0         0         0         0
         0         0         0         0         0         0         0         0
         0         0         0         0         0         0         0         0
         0         0         0         0         0         0         0         0
         0         0         0         0         0         0         0         0
         0         0         0         0         0         0         0         0
         0         0         0         0         0         0         0         0
         0         0         0         0         0         0         0         0
         0         0         0         0         0         0         0         0
         0         0         0         0         0         0         0         0
         0         0         0         0         0         0         0         0
         0         0         0         0         0         0         0         0
         0         0         0         0         0         0         0         0
         0         0         0         0         0         0         0         0
         0         0         0         0         0         0         0         0
         0         0         0         0         0         0         0         0
         0         0         0         0         0         0         0         0
         0         0         0         0         0         0         0         0
         0         0         0         0         0         0         0         0
         0         0         0         0         0         0         0         0
         0         0         0         0         0         0         0         0
         0         0         0         0         0         0         0         0
         0         0         0         0         0         0         0         0
         0         0         0         0         0         0         0         0
         0         0         0         0         0         0         0         0
         0         0         0         0         0         0         0         0
         0         0         0         0         0         0         0         0
         0         0         0         0         0         0         0         0
         0         0         0         0         0         0         0         0
         0         0         0         0         0         0         0         0
         0         0         0         0         0         0         0         0
         0         0         0         0         0         0         0         0
         0         0         0         0         0         0         0         0
         0         0         0         0         0         0         0         0
         0         0         0         0         0         0         0         0
         0         0         0         0         0         0         0         0
         0         0         0         0         0         0         0         0
         0         0         0         0         0         0         0         0
         0         0         0         0         0         0         0         0
         0         0         0         0         0         0         0         0
         0         0         0         0         0         0         0         0
         0         0         0         0         0         0         0         0
         0         0         0         0         0         0         0         0
         0         0         0         0         0         0         0         0
         0         0         0         0         0         0         0         0
         0         0         0         0         0         0         0         0
         0         0         0         0         0         0         0         0
         0         0         0         0         0         0         0         0
         0         0         0         0         0         0         0         0
         0         0         0         0         0         0         0         0
         0         0         0         0         0         0         0         0
         0         0         0         0         0         0         0         0
         0         0         0         0         0         0         0         0
         0         0         0         0         0         0         0         0
         0         0         0         0         0         0         0         0
         0         0         0         0         0         0         0         0
         0         0         0         0         0         0         0         0
         0         0         0         0         0         0         0         0
         0         0         0         0         0         0         0         0
         0         0         0         0         0         0         0         0
         0         0         0         0         0         0         0         0
         0         0         0         0         0         0         0         0
         0         0         0         0         0         0         0         0
         0         0         0         0         0         0         0         0
         0         0         0         0         0         0         0         0
         0         0         0         0         0         0         0         0
         0         0         0         0         0         0         0         0
         0         0         0         0         0         0         0         0
         0         0         0         0         0         0         0         0
         0         0         0         0         0         0         0         0
         0         0         0         0         0         0         0         0
         0         0         0         0         0         0         0         0
         0         0         0         0         0         0         0         0
         0         0         0         0         0         0         0         0
         0         0         0         0         0         0         0         0
         0         0         0         0         0         0         0         0
         0         0         0         0         0         0         0         0
         0         0         0         0         0         0         0         0
         0         0         0         0         0         0         0         0
         0         0         0         0         0         0         0         0
         0         0         0         0         0         0         0         0
         0         0         0         0         0         0         0         0
         0         0         0         0         0         0         0         0
         0         0         0         0         0         0         0         0
         0         0         0         0         0         0         0         0
         0         0         0         0         0         0         0         0
         0         0         0         0         0         0         0         0
         0         0         0         0         0         0         0         0
         0         0         0         0         0         0         0         0
         0         0         0         0         0         0         0         0
         0         0         0         0         0         0         0         0
         0         0         0         0         0         0         0         0
         0         0         0         0         0         0         0         0
         0         0         0         0         0         0         0         0
         0         0         0         0         0         0         0         0
         0         0         0         0         0         0         0         0
         0         0         0         0         0         0         0         0
         0         0         0         0         0         0         0         0
         0         0         0         0         0         0         0         0
         0         0         0         0         0         0         0         0
         0         0         0         0         0         0         0         0
         0         0         0         0         0         0         0         0
         0         0         0         0         0         0         0         0
         0         0         0         0         0         0         0         0
         0         0         0         0         0         0         0         0
         0         0         0         0         0         0         0         0
         0         0         0         0         0         0         0         0
         0         0         0         0         0         0         0         0
         0         0         0         0         0         0         0         0
         0         0         0         0         0         0         0         0
         0         0         0         0         0         0         0         0
         0         0         0         0         0         0         0         0
         0         0         0         0         0         0         0         0
         0         0         0         0         0         0         0         0
         0         0         0         0         0         0         0         0
         0         0         0         0         0         0         0         0
         0         0         0         0         0         0         0         0
         0         0         0         0         0         0         0         0
         0         0         0         0         0         0         0         0
         0         0         0         0         0         0         0         0
         0         0         0         0         0         0         0         0
         0         0         0         0         0         0         0         0
         0         0         0         0         0         0         0         0
         0         0         0         0         0         0         0         0
         0         0         0         0         0         0         0         0
         0         0         0         0         0         0         0         0
         0         0         0         0         0         0         0         0
         0         0         0         0         0         0         0         0
         0         0         0         0         0         0         0         0
         0         0         0         0         0         0         0         0
         0         0         0         0         0         0         0         0
         0         0         0         0         0         0         0         0
         0         0         0         0         0         0         0         0
         0         0         0         0         0         0         0         0
         0         0         0         0         0         0         0         0
         0         0         0         0         0         0         0         0
         0         0         0         0         0         0         0         0
         0         0         0         0         0         0         0         0
         0         0         0         0         0         0         0         0
         0         0         0         0         0         0         0         0
         0         0         0         0         0         0         0         0
         0         0         0         0         0         0         0         0
         0         0         0         0         0         0         0         0
         0         0         0         0         0         0         0         0
         0         0         0         0         0         0         0         0
         0         0         0         0         0         0         0         0
         0         0         0         0         0         0         0         0
         0         0         0         0         0         0         0         0
         0         0         0         0         0         0         0         0
         0         0         0         0         0         0         0         0
         0         0         0         0         0         0         0         0
         0         0         0         0         0         0         0         0
         0         0         0         0         0         0         0         0
         0         0         0         0         0         0         0         0
         0         0         0         0         0         0         0         0
         0         0         0         0         0         0         0         0
         0         0         0         0         0         0         0         0
         0         0         0         0         0         0         0         0
         0         0         0         0         0         0         0         0
         0         0         0         0         0         0         0         0
         0         0         0         0         0         0         0         0
         0         0         0         0         0         0         0         0
         0         0         0         0         0         0         0         0
         0         0         0         0         0         0         0         0
         0         0         0         0         0         0         0         0
         0         0         0         0         0         0         0         0
         0         0         0         0         0         0         0         0
         0         0         0         0         0         0         0         0
         0         0         0         0         0         0         0         0
         0         0         0         0         0         0         0         0
         0         0         0         0         0         0         0         0
         0         0         0         0         0         0         0         0
         0         0         0         0         0         0         0         0
         0         0         0         0         0         0         0         0
         0         0         0         0         0         0         0         0
         0         0         0         0         0         0         0         0
         0         0         0         0         0         0         0         0
         0         0         0         0         0         0         0         0
         0         0         0         0         0         0         0         0
         0         0         0         0         0         0         0         0
         0         0         0         0         0         0         0         0
         0         0         0         0         0         0         0         0
         0         0         0         0         0         0         0         0
         0         0         0         0         0         0         0         0
         0         0         0         0         0         0         0         0
         0         0         0         0         0         0         0         0
         0         0         0         0         0         0         0         0
         0         0         0         0         0         0         0         0
         0         0         0         0         0         0         0         0
         0         0         0         0         0         0         0         0
         0         0         0         0         0         0         0         0
         0         0         0         0         0         0         0         0
         0         0         0         0         0         0         0         0
         0         0         0         0         0         0         0         0
         0         0         0         0         0         0         0         0
         0         0         0         0         0         0         0         0
         0         0         0         0         0         0         0         0
         0         0         0         0         0         0         0         0
         0         0         0         0         0         0         0         0
         0         0         0         0         0         0         0         0
         0         0         0         0         0         0         0         0
         0         0         0         0         0         0         0         0
         0         0         0         0         0         0         0         0
         0         0         0         0         0         0         0         0
         0         0         0         0         0         0         0         0
         0         0         0         0         0         0         0         0
         0         0         0         0         0         0         0         0
         0         0         0         0         0         0         0         0
         0         0         0         0         0         0         0         0
         0         0         0         0         0         0         0         0
         0         0         0         0         0         0         0         0
         0         0         0         0         0         0         0         0
         0         0         0         0         0         0         0         0
         0         0         0         0         0         0         0         0
         0         0         0         0         0         0         0         0
         0         0         0         0         0         0         0         0
         0         0         0         0         0         0         0         0
         0         0         0         0         0         0         0         0
         0         0         0         0         0         0         0         0
         0         0         0         0         0         0         0         0
         0         0         0         0         0         0         0         0
         0         0         0         0         0         0         0         0
         0         0         0         0         0         0         0         0
         0         0         0         0         0         0         0         0
         0         0         0         0         0         0         0         0
         0         0         0         0         0         0         0         0
         0         0         0         0         0         0         0         0
         0         0         0         0         0         0         0         0
         0         0         0         0         0         0         0         0
         0         0         0         0         0         0         0         0
         0         0         0         0         0         0         0         0
         0         0         0         0         0         0         0         0
         0         0         0         0         0         0         0         0
         0         0         0         0         0         0         0         0
         0         0         0         0         0         0         0         0
         0         0         0         0         0         0         0         0
         0         0         0         0         0         0         0         0
         0         0         0         0         0         0         0         0
         0         0         0         0         0         0         0         0
         0         0         0         0         0         0         0         0
         0         0         0         0         0         0         0         0
         0         0         0         0         0         0         0         0
         0         0         0         0         0         0         0         0
         0         0         0         0         0         0         0         0
         0         0         0         0         0         0         0         0
         0         0         0         0         0         0         0         0
         0         0         0         0         0         0         0         0
         0         0         0         0         0         0         0         0
         0         0         0         0         0         0         0         0
         0         0         0         0         0         0         0         0
         0         0         0         0         0         0         0         0
         0         0         0         0         0         0         0         0
         0         0         0         0         0         0         0         0
         0         0         0         0         0         0         0         0
         0         0         0         0         0         0         0         0
         0         0         0         0         0         0         0         0
         0         0         0         0         0         0         0         0
         0         0         0         0         0         0         0         0
         0         0         0         0         0         0         0         0
         0         0         0         0         0         0         0         0
         0         0         0         0         0         0         0         0
         0         0         0         0         0         0         0         0
         0         0         0         0         0         0         0         0
         0         0         0         0         0         0         0         0
         0         0         0         0         0         0         0         0
         0         0         0         0         0         0         0         0
         0         0         0         0         0         0         0         0
         0         0         0         0         0         0         0         0
         0         0         0         0         0         0         0         0
         0         0         0         0         0         0         0         0
         0         0         0         0         0         0         0         0
         0         0         0         0         0         0         0         0
         0         0         0         0         0         0         0         0
         0         0         0         0         0         0         0         0
         0         0         0         0         0         0         0         0
         0         0         0         0         0         0         0         0
         0         0         0         0         0         0         0         0
         0         0         0         0         0         0         0         0
         0         0         0         0         0         0         0         0
         0         0         0         0         0         0         0         0
         0         0         0         0         0         0         0         0
         0         0         0         0         0         0         0         0
         0         0         0         0         0         0         0         0
         0         0         0         0         0         0         0         0
         0         0         0         0         0         0         0         0
         0         0         0         0         0         0         0         0
         0         0         0         0         0         0         0         0
         0         0         0         0         0         0         0         0
         0         0         0         0         0         0         0         0
         0         0         0         0         0         0         0         0
         0         0         0         0         0         0         0         0
         0         0         0         0         0         0         0         0
         0         0         0         0         0         0         0         0
         0         0         0         0         0         0         0         0
         0         0         0         0         0         0         0         0
         0         0         0         0         0         0         0         0
         0         0         0         0         0         0         0         0
         0         0         0         0         0         0         0         0
         0         0         0         0         0         0         0         0
         0         0         0         0         0         0         0         0
         0         0         0         0         0         0         0         0
         0         0         0         0         0         0         0         0
         0         0         0         0         0         0         0         0
         0         0         0         0         0         0         0         0
         0         0         0         0         0         0         0         0
         0         0         0         0         0         0         0         0
         0         0         0         0         0         0         0         0
         0         0         0         0         0         0         0         0
         0         0         0         0         0         0         0         0
         0         0         0         0         0         0         0         0
         0         0         0         0         0         0         0         0
         0         0         0         0         0         0         0         0
         0         0         0         0         0         0         0         0
         0         0         0         0         0         0         0         0
         0         0         0         0         0         0         0         0
         0         0         0         0         0         0         0         0
         0         0         0         0         0         0         0         0
         0         0         0         0         0         0         0         0
         0         0         0         0         0         0         0         0
         0         0         0         0         0         0         0         0
         0         0         0         0         0         0         0         0
         0         0         0         0         0         0         0         0
         0         0         0         0         0         0         0         0
         0         0         0         0         0         0         0         0
         0         0         0         0         0         0         0         0
         0         0         0         0         0         0         0         0
         0         0         0         0         0         0         0         0
         0         0         0         0         0         0         0         0
         0         0         0         0         0         0         0         0
         0         0         0         0         0         0         0         0
         0         0         0         0         0         0         0         0
         0         0         0         0         0         0         0         0
         0         0         0         0         0         0         0         0
         0         0         0         0         0         0         0         0
         0         0         0         0         0         0         0         0
         0         0         0         0         0         0         0         0
         0         0         0         0         0         0         0         0
         0         0         0         0         0         0         0         0
         0         0         0         0         0         0         0         0
         0         0         0         0         0         0         0         0
         0         0         0         0         0         0         0         0
         0         0         0         0         0         0         0         0
         0         0         0         0         0         0         0         0
         0         0         0         0         0         0         0         0
         0         0         0         0         0         0         0         0
         0         0         0         0         0         0         0         0
         0         0         0         0         0         0         0         0
         0         0         0         0         0         0         0         0
         0         0         0         0         0         0         0         0
         0         0         0         0         0         0         0         0
         0         0         0         0         0         0         0         0
         0         0         0         0         0         0         0         0
         0         0         0         0         0         0         0         0
         0         0         0         0         0         0         0         0
         0         0         0         0         0         0         0         0
         0         0         0         0         0         0         0         0
         0         0         0         0         0         0         0         0
         0         0         0         0         0         0         0         0
         0         0         0         0         0         0         0         0
         0         0         0         0         0         0         0         0
         0         0         0         0         0         0         0         0
         0         0         0         0         0         0         0         0
         0         0         0         0         0         0         0         0
         0         0         0         0         0         0         0         0
         0         0         0         0         0         0         0         0
         0         0         0         0         0         0         0         0
         0         0         0         0         0         0         0         0
         0         0         0         0         0         0         0         0
         0         0         0         0         0         0         0         0
         0         0         0         0         0         0         0         0
         0         0         0         0         0         0         0         0
         0         0         0         0         0         0         0         0
         0         0         0         0         0         0         0         0
         0         0         0         0         0         0         0         0
         0         0         0         0         0         0         0         0
         0         0         0         0         0         0         0         0
         0         0         0         0         0         0         0         0
         0         0         0         0         0         0         0         0
         0         0         0         0         0         0         0         0
         0         0         0         0         0         0         0         0
         0         0         0         0         0         0         0         0
         0         0         0         0         0         0         0         0
         0         0         0         0         0         0         0         0
         0         0         0         0         0         0         0         0
         0         0         0         0         0         0         0         0
         0         0         0         0         0         0         0         0
         0         0         0         0         0         0         0         0
         0         0         0         0         0         0         0         0
         0         0         0         0         0         0         0         0
         0         0         0         0         0         0         0         0
         0         0         0         0         0         0         0         0
         0         0         0         0         0         0         0         0
         0         0         0         0         0         0         0         0
         0         0         0         0         0         0         0         0
         0         0         0         0         0         0         0         0
         0         0         0         0         0         0         0         0
         0         0         0         0         0         0         0         0
         0         0         0         0         0         0         0         0
         0         0         0         0         0         0         0         0
         0         0         0         0         0         0         0         0
         0         0         0         0         0         0         0         0
         0         0         0         0         0         0         0         0
         0         0         0         0         0         0         0         0
         0         0         0         0         0         0         0         0
         0         0         0         0         0         0         0         0
         0         0         0         0         0         0         0         0
         0         0         0         0         0         0         0         0
         0         0         0         0         0         0         0         0
         0         0         0         0         0         0         0         0
         0         0         0         0         0         0         0         0
         0         0         0         0         0         0         0         0
         0         0         0         0         0         0         0         0
         0         0         0         0         0         0         0         0
         0         0         0         0         0         0         0         0
         0         0         0         0         0         0         0         0
         0         0         0         0         0         0         0         0
         0         0         0         0         0         0         0         0
         0         0         0         0         0         0         0         0
         0         0         0         0         0         0         0         0
         0         0         0         0         0         0         0         0
         0         0         0         0         0         0         0         0
         0         0         0         0         0         0         0         0
         0         0         0         0         0         0         0         0
         0         0         0         0         0         0         0         0
         0         0         0         0         0         0         0         0
         0         0         0         0         0         0         0         0
         0         0         0         0         0         0         0         0
         0         0         0         0         0         0         0         0
         0         0         0         0         0         0         0         0
         0         0         0         0         0         0         0         0
         0         0         0         0         0         0         0         0
         0         0         0         0         0         0         0         0
         0         0         0         0         0         0         0         0
         0         0         0         0         0         0         0         0
         0         0         0         0         0         0         0         0
         0         0         0         0         0         0         0         0
         0         0         0         0         0         0         0         0
         0         0         0         0         0         0         0         0
         0         0         0         0         0         0         0         0
         0         0         0         0         0         0         0         0
         0         0         0         0         0         0         0         0
         0         0         0         0         0         0         0         0
         0         0         0         0         0         0         0         0
         0         0         0         0         0         0         0         0
         0         0         0         0         0         0         0         0
         0         0         0         0         0         0         0         0
         0         0         0         0         0         0         0         0
         0         0         0         0         0         0         0         0
         0         0         0         0         0         0         0         0
         0         0         0         0         0         0         0         0
         0         0         0         0         0         0         0         0
         0         0         0         0         0         0         0         0
         0         0         0         0         0         0         0         0
         0         0         0         0         0         0         0         0
         0         0         0         0         0         0         0         0
         0         0         0         0         0         0         0         0
         0         0         0         0         0         0         0         0
         0         0         0         0         0         0         0         0
         0         0         0         0         0         0         0         0
         0         0         0         0         0         0         0         0
         0         0         0         0         0         0         0         0
         0         0         0         0         0         0         0         0
         0         0         0         0         0         0         0         0
         0         0         0         0         0         0         0         0
         0         0         0         0         0         0         0         0
         0         0         0         0         0         0         0         0
         0         0         0         0         0         0         0         0
         0         0         0         0         0         0         0         0
         0         0         0         0         0         0         0         0
         0         0         0         0         0         0         0         0
         0         0         0         0         0         0         0         0
         0         0         0         0         0         0         0         0
         0         0         0         0         0         0         0         0
         0         0         0         0         0         0         0         0
         0         0         0         0         0         0         0         0
         0         0         0         0         0         0         0         0
         0         0         0         0         0         0         0         0
         0         0         0         0         0         0         0         0
         0         0         0         0         0         0         0         0
         0         0         0         0         0         0         0         0
         0         0         0         0         0         0         0         0
         0         0         0         0         0         0         0         0
         0         0         0         0         0         0         0         0
         0         0         0         0         0         0         0         0
         0         0         0         0         0         0         0         0
         0         0         0         0         0         0         0         0
         0         0         0         0         0         0         0         0
         0         0         0         0         0         0         0         0
         0         0         0         0         0         0         0         0
         0         0         0         0         0         0         0         0
         0         0         0         0         0         0         0         0
         0         0         0         0         0         0         0         0
         0         0         0         0         0         0         0         0
         0         0         0         0         0         0         0         0
         0         0         0         0         0         0         0         0
         0         0         0         0         0         0         0         0
         0         0         0         0         0         0         0         0
         0         0         0         0         0         0         0         0
         0         0         0         0         0         0         0         0
         0         0         0         0         0         0         0         0
         0         0         0         0         0         0         0         0
         0         0         0         0         0         0         0         0
         0         0         0         0         0         0         0         0
         0         0         0         0         0         0         0         0
         0         0         0         0         0         0         0         0
         0         0         0         0         0         0         0         0
         0         0         0         0         0         0         0         0
         0         0         0         0         0         0         0         0
         0         0         0         0         0         0         0         0
         0         0         0         0         0         0         0         0
         0         0         0         0         0         0         0         0
         0         0         0         0         0         0         0         0
         0         0         0         0         0         0         0         0
         0         0         0         0         0         0         0         0
         0         0         0         0         0         0         0         0
         0         0         0         0         0         0         0         0
         0         0         0         0         0         0         0         0
         0         0         0         0         0         0         0         0
         0         0         0         0         0         0         0         0
         0         0         0         0         0         0         0         0
         0         0         0         0         0         0         0         0
         0         0         0         0         0         0         0         0
         0         0         0         0         0         0         0         0
         0         0         0         0         0         0         0         0
         0         0         0         0         0         0         0         0
         0         0         0         0         0         0         0         0
         0         0         0         0         0         0         0         0
         0         0         0         0         0         0         0         0
         0         0         0         0         0         0         0         0
         0         0         0         0         0         0         0         0
         0         0         0         0         0         0         0         0
         0         0         0         0         0         0         0         0
         0         0         0         0         0         0         0         0
         0         0         0         0         0         0         0         0
         0         0         0         0         0         0         0         0
         0         0         0         0         0         0         0         0
         0         0         0         0         0         0         0         0
         0         0         0         0         0         0         0         0
         0         0         0         0         0         0         0         0
         0         0         0         0         0         0         0         0
         0         0         0         0         0         0         0         0
         0         0         0         0         0         0         0         0
         0         0         0         0         0         0         0         0
         0         0         0         0         0         0         0         0
         0         0         0         0         0         0         0         0
         0         0         0         0         0         0         0         0
         0         0         0         0         0         0         0         0
         0         0         0         0         0         0         0         0
         0         0         0         0         0         0         0         0
         0         0         0         0         0         0         0         0
         0         0         0         0         0         0         0         0
         0         0         0         0         0         0         0         0
         0         0         0         0         0         0         0         0
         0         0         0         0         0         0         0         0
         0         0         0         0         0         0         0         0
         0         0         0         0         0         0         0         0
         0         0         0         0         0         0         0         0
         0         0         0         0         0         0         0         0
         0         0         0         0         0         0         0         0
         0         0         0         0         0         0         0         0
         0         0         0         0         0         0         0         0
         0         0         0         0         0         0         0         0
         0         0         0         0         0         0         0         0
         0         0         0         0         0         0         0         0
         0         0         0         0         0         0         0         0
         0         0         0         0         0         0         0         0
         0         0         0         0         0         0         0         0
         0         0         0         0         0         0         0         0
         0         0         0         0         0         0         0         0
         0         0         0         0         0         0         0         0
         0         0         0         0         0         0         0         0
         0         0         0         0         0         0         0         0
         0         0         0         0         0         0         0         0
         0         0         0         0         0         0         0         0
         0         0         0         0         0         0         0         0
         0         0         0         0         0         0         0         0
         0         0         0         0         0         0         0         0
         0         0         0         0         0         0         0         0
         0         0         0         0         0         0         0         0
         0         0         0         0         0         0         0         0
         0         0         0         0         0         0         0         0
         0         0         0         0         0         0         0         0
         0         0         0         0         0         0         0         0
         0         0         0         0         0         0         0         0
         0         0         0         0         0         0         0         0
         0         0         0         0         0         0         0         0
         0         0         0         0         0         0         0         0
         0         0         0         0         0         0         0         0
         0         0         0         0         0         0         0         0
         0         0         0         0         0         0         0         0
         0         0         0         0         0         0         0         0
         0         0         0         0         0         0         0         0
         0         0         0         0         0         0         0         0
         0         0         0         0         0         0         0         0
         0         0         0         0         0         0         0         0
         0         0         0         0         0         0         0         0
         0         0         0         0         0         0         0         0
         0         0         0         0         0         0         0         0
         0         0         0         0         0         0         0         0
         0         0         0         0         0         0         0         0
         0         0         0         0         0         0         0         0
         0         0         0         0         0         0         0         0
         0         0         0         0         0         0         0         0
         0         0         0         0         0         0         0         0
         0         0         0         0         0         0         0         0
         0         0         0         0         0         0         0         0
         0         0         0         0         0         0         0         0
         0         0         0         0         0         0         0         0
         0         0         0         0         0         0         0         0
         0         0         0         0         0         0         0         0
         0         0         0         0         0         0         0         0
         0         0         0         0         0         0         0         0
         0         0         0         0         0         0         0         0
         0         0         0         0         0         0         0         0
         0         0         0         0         0         0         0         0
         0         0         0         0         0         0         0         0
         0         0         0         0         0         0         0         0
         0         0         0         0         0         0         0         0
         0         0         0         0         0         0         0         0
         0         0         0         0         0         0         0         0
         0         0         0         0         0         0         0         0
         0         0         0         0         0         0         0         0
         0         0         0         0         0         0         0         0
         0         0         0         0         0         0         0         0
         0         0         0         0         0         0         0         0
         0         0         0         0         0         0         0         0
         0         0         0         0         0         0         0         0
         0         0         0         0         0         0         0         0
         0         0         0         0         0         0         0         0
         0         0         0         0         0         0         0         0
         0         0         0         0         0         0         0         0
         0         0         0         0         0         0         0         0
         0         0         0         0         0         0         0         0
         0         0         0         0         0         0         0         0
         0         0         0         0         0         0         0         0
         0         0         0         0         0         0         0         0
         0         0         0         0         0         0         0         0
         0         0         0         0         0         0         0         0
         0         0         0         0         0         0         0         0
         0         0         0         0         0         0         0         0
         0         0         0         0         0         0         0         0
         0         0         0         0         0         0         0         0
         0         0         0         0         0         0         0         0
         0         0         0         0         0         0         0         0
         0         0         0         0         0         0         0         0
         0         0         0         0         0         0         0         0
         0         0         0         0         0         0         0         0
         0         0         0         0         0         0         0         0
         0         0         0         0         0         0         0         0
         0         0         0         0         0         0         0         0
         0         0         0         0         0         0         0         0
         0         0         0         0         0         0         0         0
         0         0         0         0         0         0         0         0
         0         0         0         0         0         0         0         0
         0         0         0         0         0         0         0         0
         0         0         0         0         0         0         0         0
         0         0         0         0         0         0         0         0
         0         0         0         0         0         0         0         0
         0         0         0         0         0         0         0         0
         0         0         0         0         0         0         0         0
         0         0         0         0         0         0         0         0
         0         0         0         0         0         0         0         0
         0         0         0         0         0         0         0         0
         0         0         0         0         0         0         0         0
         0         0         0         0         0         0         0         0
         0         0         0         0         0         0         0         0
         0         0         0         0         0         0         0         0
         0         0         0         0         0         0         0         0
         0         0         0         0         0         0         0         0
         0         0         0         0         0         0         0         0
         0         0         0         0         0         0         0         0
         0         0         0         0         0         0         0         0
         0         0         0         0         0         0         0         0
         0         0         0         0         0         0         0         0
         0         0         0         0         0         0         0         0
         0         0         0         0         0         0         0         0
         0         0         0         0         0         0         0         0
         0         0         0         0         0         0         0         0
         0         0         0         0         0         0         0         0
         0         0         0         0         0         0         0         0
         0         0         0         0         0         0         0         0
         0         0         0         0         0         0         0         0
         0         0         0         0         0         0         0         0
         0         0         0         0         0         0         0         0
         0         0         0         0         0         0         0         0
         0         0         0         0         0         0         0         0
         0         0         0         0         0         0         0         0
         0         0         0         0         0         0         0         0
         0         0         0         0         0         0         0         0
         0         0         0         0         0         0         0         0
         0         0         0         0         0         0         0         0
         0         0         0         0         0         0         0         0
         0         0         0         0         0         0         0         0
         0         0         0         0         0         0         0         0
         0         0         0         0         0         0         0         0
         0         0         0         0         0         0         0         0
         0         0         0         0         0         0         0         0
         0         0         0         0         0         0         0         0
         0         0         0         0         0         0         0         0
         0         0         0         0         0         0         0         0
         0         0         0         0         0         0         0         0
         0         0         0         0         0         0         0         0
         0         0         0         0         0         0         0         0
         0         0         0         0         0         0         0         0
         0         0         0         0         0         0         0         0
         0         0         0         0         0         0         0         0
         0         0         0         0         0         0         0         0
         0         0         0         0         0         0         0         0
         0         0         0         0         0         0         0         0
         0         0         0         0         0         0         0         0
         0         0         0         0         0         0         0         0
         0         0         0         0         0         0         0         0
         0         0         0         0         0         0         0         0
         0         0         0         0         0         0         0         0
         0         0         0         0         0         0         0         0
         0         0         0         0         0         0         0         0
         0         0         0         0         0         0         0         0
         0         0         0         0         0         0         0         0
         0         0         0         0         0         0         0         0
         0         0         0         0         0         0         0         0
         0         0         0         0         0         0         0         0
         0         0         0         0         0         0         0         0
         0         0         0         0         0         0         0         0
         0         0         0         0         0         0         0         0
         0         0         0         0         0         0         0         0
         0         0         0         0         0         0         0         0
         0         0         0         0         0         0         0         0
         0         0         0         0         0         0         0         0
         0         0         0         0         0         0         0         0
         0         0         0         0         0         0         0         0
         0         0         0         0         0         0         0         0
         0         0         0         0         0         0         0         0
         0         0         0         0         0         0         0         0
         0         0         0         0         0         0         0         0
         0         0         0         0         0         0         0         0
         0         0         0         0         0         0         0         0
         0         0         0         0         0         0         0         0
         0         0         0         0         0         0         0         0
         0         0         0         0         0         0         0         0
         0         0         0         0         0         0         0         0
         0         0         0         0         0         0         0         0
         0         0         0         0         0         0         0         0
         0         0         0         0         0         0         0         0
         0         0         0         0         0         0         0         0
         0         0         0         0         0         0         0         0
         0         0         0         0         0         0         0         0
         0         0         0         0         0         0         0         0
         0         0         0         0         0         0         0         0
         0         0         0         0         0         0         0         0
         0         0         0         0         0         0         0         0
         0         0         0         0         0         0         0         0
         0         0         0         0         0         0         0         0
         0         0         0         0         0         0         0         0
         0         0         0         0         0         0         0         0
         0         0         0         0         0         0         0         0
         0         0         0         0         0         0         0         0
         0         0         0         0         0         0         0         0
         0         0         0         0         0         0         0         0
         0         0         0         0         0         0         0         0
         0         0         0         0         0         0         0         0
         0         0         0         0         0         0         0         0
         0         0         0         0         0         0         0         0
         0         0         0         0         0         0         0         0
         0         0         0         0         0         0         0         0
         0         0         0         0         0         0         0         0
         0         0         0         0         0         0         0         0
         0         0         0         0         0         0         0         0
         0         0         0         0         0         0         0         0
         0         0         0         0         0         0         0         0
         0         0         0         0         0         0         0         0
         0         0         0         0         0         0         0         0
         0         0         0         0         0         0         0         0
         0         0         0         0         0         0         0         0
         0         0         0         0         0         0         0         0
         0         0         0         0         0         0         0         0
         0         0         0         0         0         0         0         0
         0         0         0         0         0         0         0         0
         0         0         0         0         0         0         0         0
         0         0         0         0         0         0         0         0
         0         0         0         0         0         0         0         0
         0         0         0         0         0         0         0         0
         0         0         0         0         0         0         0         0
         0         0         0         0         0         0         0         0
         0         0         0         0         0         0         0         0
         0         0         0         0         0         0         0         0
         0         0         0         0         0         0         0         0
         0         0         0         0         0         0         0         0
         0         0         0         0         0         0         0         0
         0         0         0         0         0         0         0         0
         0         0         0         0         0         0         0         0
         0         0         0         0         0         0         0         0
         0         0         0         0         0         0         0         0
         0         0         0         0         0         0         0         0
         0         0         0         0         0         0         0         0
         0         0         0         0         0         0         0         0
         0         0         0         0         0         0         0         0
         0         0         0         0         0         0         0         0
         0         0         0         0         0         0         0         0
         0         0         0         0         0         0         0         0
         0         0         0         0         0         0         0         0
         0         0         0         0         0         0         0         0
         0         0         0         0         0         0         0         0
         0         0         0         0         0         0         0         0
         0         0         0         0         0         0         0         0
         0         0         0         0         0         0         0         0
         0         0         0         0         0         0         0         0
         0         0         0         0         0         0         0         0
         0         0         0         0         0         0         0         0
         0         0         0         0         0         0         0         0
         0         0         0         0         0         0         0         0
         0         0         0         0         0         0         0         0
         0         0         0         0         0         0         0         0
         0         0         0         0         0         0         0         0
         0         0         0         0         0         0         0         0
         0         0         0         0         0         0         0         0
         0         0         0         0         0         0         0         0
         0         0         0         0         0         0         0         0
         0         0         0         0         0         0         0         0
         0         0         0         0         0         0         0         0
         0         0         0         0         0         0         0         0
         0         0         0         0         0         0         0         0
         0         0         0         0         0         0         0         0
         0         0         0         0         0         0         0         0
         0         0         0         0         0         0         0         0
         0         0         0         0         0         0         0         0
         0         0         0         0         0         0         0         0
         0         0         0         0         0         0         0         0
         0         0         0         0         0         0         0         0
         0         0         0         0         0         0         0         0
         0         0         0         0         0         0         0         0
         0         0         0         0         0         0         0         0
         0         0         0         0         0         0         0         0
         0         0         0         0         0         0         0         0
         0         0         0         0         0         0         0         0
         0         0         0         0         0         0         0         0
         0         0         0         0         0         0         0         0
         0         0         0         0         0         0         0         0
         0         0         0         0         0         0         0         0
         0         0         0         0         0         0         0         0
         0         0         0         0         0         0         0         0
         0         0         0         0         0         0         0         0
         0         0         0         0         0         0         0         0
         0         0         0         0         0         0         0         0
         0         0         0         0         0         0         0         0
         0         0         0         0         0         0         0         0
         0         0         0         0         0         0         0         0
         0         0         0         0         0         0         0         0
         0         0         0         0         0         0         0         0
         0         0         0         0         0         0         0         0
         0         0         0         0         0         0         0         0
         0         0         0         0         0         0         0         0
         0         0         0         0         0         0         0         0
         0         0         0         0         0         0         0         0
         0         0         0         0         0         0         0         0
         0         0         0         0         0         0         0         0
         0         0         0         0         0         0         0         0
         0         0         0         0         0         0         0         0
         0         0         0         0         0         0         0         0
         0         0         0         0         0         0         0         0
         0         0         0         0         0         0         0         0
         0         0         0         0         0         0         0         0
         0         0         0         0         0         0         0         0
         0         0         0         0         0         0         0         0
         0         0         0         0         0         0         0         0
         0         0         0         0         0         0         0         0
         0         0         0         0         0         0         0         0
         0         0         0         0         0         0         0         0
         0         0         0         0         0         0         0         0
         0         0         0         0         0         0         0         0
         0         0         0         0         0         0         0         0
         0         0         0         0         0         0         0         0
         0         0         0         0         0         0         0         0
         0         0         0         0         0         0         0         0
         0         0         0         0         0         0         0         0
         0         0         0         0         0         0         0         0
         0         0         0         0         0         0         0         0
         0         0         0         0         0         0         0         0
         0         0         0         0         0         0         0         0
         0         0         0         0         0         0         0         0
         0         0         0         0         0         0         0         0
         0         0         0         0         0         0         0         0
         0         0         0         0         0         0         0         0
         0         0         0         0         0         0         0         0
         0         0         0         0         0         0         0         0
         0         0         0         0         0         0         0         0
         0         0         0         0         0         0         0         0
         0         0         0         0         0         0         0         0
         0         0         0         0         0         0         0         0
         0         0         0         0         0         0         0         0
         0         0         0         0         0         0         0         0
         0         0         0         0         0         0         0         0
         0         0         0         0         0         0         0         0
         0         0         0         0         0         0         0         0
         0         0         0         0         0         0         0         0
         0         0         0         0         0         0         0         0
         0         0         0         0         0         0         0         0
         0         0         0         0         0         0         0         0
         0         0         0         0         0         0         0         0
         0         0         0         0         0         0         0         0
         0         0         0         0         0         0         0         0
         0         0         0         0         0         0         0         0
         0         0         0         0         0         0         0         0
         0         0         0         0         0         0         0         0
         0         0         0         0         0         0         0         0
         0         0         0         0         0         0         0         0
         0         0         0         0         0         0         0         0
         0         0         0         0         0         0         0         0
         0         0         0         0         0         0         0         0
         0         0         0         0         0         0         0         0
         0         0         0         0         0         0         0         0
         0         0         0         0         0         0         0         0
         0         0         0         0         0         0         0         0
         0         0         0         0         0         0         0         0
         0         0         0         0         0         0         0         0
         0         0         0         0         0         0         0         0
         0         0         0         0         0         0         0         0
         0         0         0         0         0         0         0         0
         0         0         0         0         0         0         0         0
         0         0         0         0         0         0         0         0
         0         0         0         0         0         0         0         0
         0         0         0         0         0         0         0         0
         0         0         0         0         0         0         0         0
         0         0         0         0         0         0         0         0
         0         0         0         0         0         0         0         0
         0         0         0         0         0         0         0         0
         0         0         0         0         0         0         0         0
         0         0         0         0         0         0         0         0
         0         0         0         0         0         0         0         0
         0         0         0         0         0         0         0         0
         0         0         0         0         0         0         0         0
         0         0         0         0         0         0         0         0
         0         0         0         0         0         0         0         0
         0         0         0         0         0         0         0         0
         0         0         0         0         0         0         0         0
         0         0         0         0         0         0         0         0
         0         0         0         0         0         0         0         0
         0         0         0         0         0         0         0         0
         0         0         0         0         0         0         0         0
         0         0         0         0         0         0         0         0
         0         0         0         0         0         0         0         0
         0         0         0         0         0         0         0         0
         0         0         0         0         0         0         0         0
         0         0         0         0         0         0         0         0
         0         0         0         0         0         0         0         0
         0         0         0         0         0         0         0         0
         0         0         0         0         0         0         0         0
         0         0         0         0         0         0         0         0
         0         0         0         0         0         0         0         0
         0         0         0         0         0         0         0         0
         0         0         0         0         0         0         0         0
         0         0         0         0         0         0         0         0
         0         0         0         0         0         0         0         0
         0         0         0         0         0         0         0         0
         0         0         0         0         0         0         0         0
         0         0         0         0         0         0         0         0
         0         0         0         0         0         0         0         0
         0         0         0         0         0         0         0         0
         0         0         0         0         0         0         0         0
         0         0         0         0         0         0         0         0
         0         0         0         0         0         0         0         0
         0         0         0         0         0         0         0         0
         0         0         0         0         0         0         0         0
         0         0         0         0         0         0         0         0
         0         0         0         0         0         0         0         0
         0         0         0         0         0         0         0         0
         0         0         0         0         0         0         0         0
         0         0         0         0         0         0         0         0
         0         0         0         0         0         0         0         0
         0         0         0         0         0         0         0         0
         0         0         0         0         0         0         0         0
         0         0         0         0         0         0         0         0
         0         0         0         0         0         0         0         0
         0         0         0         0         0         0         0         0
         0         0         0         0         0         0         0         0
         0         0         0         0         0         0         0         0
         0         0         0         0         0         0         0         0
         0         0         0         0         0         0         0         0
         0         0         0         0         0         0         0         0
         0         0         0         0         0         0         0         0
         0         0         0         0         0         0         0         0
         0         0         0         0         0         0         0         0
         0         0         0         0         0         0         0         0
         0         0         0         0         0         0         0         0
         0         0         0         0         0         0         0         0
         0         0         0         0         0         0         0         0
         0         0         0         0         0         0         0         0
         0         0         0         0         0         0         0         0
         0         0         0         0         0         0         0         0
         0         0         0         0         0         0         0         0
         0         0         0         0         0         0         0         0
         0         0         0         0         0         0         0         0
         0         0         0         0         0         0         0         0
         0         0         0         0         0         0         0         0
         0         0         0         0         0         0         0         0
         0         0         0         0         0         0         0         0
         0         0         0         0         0         0         0         0
         0         0         0         0         0         0         0         0
         0         0         0         0         0         0         0         0
         0         0         0         0         0         0         0         0
         0         0         0         0         0         0         0         0
         0         0         0         0         0         0         0         0
         0         0         0         0         0         0         0         0
         0         0         0         0         0         0         0         0
         0         0         0         0         0         0         0         0
         0         0         0         0         0         0         0         0
         0         0         0         0         0         0         0         0
         0         0         0         0         0         0         0         0
         0         0         0         0         0         0         0         0
         0         0         0         0         0         0         0         0
         0         0         0         0         0         0         0         0
         0         0         0         0         0         0         0         0
         0         0         0         0         0         0         0         0
         0         0         0         0         0         0         0         0
         0         0         0         0         0         0         0         0
         0         0         0         0         0         0         0         0
         0         0         0         0         0         0         0         0
         0         0         0         0         0         0         0         0
         0         0         0         0         0         0         0         0
         0         0         0         0         0         0         0         0
         0         0         0         0         0         0         0         0
         0         0         0         0         0         0         0         0
         0         0         0         0         0         0         0         0
         0         0         0         0         0         0         0         0
         0         0         0         0         0         0         0         0
         0         0         0         0         0         0         0         0
         0         0         0         0         0         0         0         0
         0         0         0         0         0         0         0         0
         0         0         0         0         0         0         0         0
         0         0         0         0         0         0         0         0
         0         0         0         0         0         0         0         0
         0         0         0         0         0         0         0         0
         0         0         0         0         0         0         0         0
         0         0         0         0         0         0         0         0
         0         0         0         0         0         0         0         0
         0         0         0         0         0         0         0         0
         0         0         0         0         0         0         0         0
         0         0         0         0         0         0         0         0
         0         0         0         0         0         0         0         0
         0         0         0         0         0         0         0         0
         0         0         0         0         0         0         0         0
         0         0         0         0         0         0         0         0
         0         0         0         0         0         0         0         0
         0         0         0         0         0         0         0         0
         0         0         0         0         0         0         0         0
         0         0         0         0         0         0         0         0
         0         0         0         0         0         0         0         0
         0         0         0         0         0         0         0         0
         0         0         0         0         0         0         0         0
         0         0         0         0         0         0         0         0
         0         0         0         0         0         0         0         0
         0         0         0         0         0         0         0         0
         0         0         0         0         0         0         0         0
         0         0         0         0         0         0         0         0
         0         0         0         0         0         0         0         0
         0         0         0         0         0         0         0         0
         0         0         0         0         0         0         0         0
         0         0         0         0         0         0         0         0
         0         0         0         0         0         0         0         0
         0         0         0         0         0         0         0         0
         0         0         0         0         0         0         0         0
         0         0         0         0         0         0         0         0
         0         0         0         0         0         0         0         0
         0         0         0         0         0         0         0         0
         0         0         0         0         0         0         0         0
         0         0         0         0         0         0         0         0
         0         0         0         0         0         0         0         0
         0         0         0         0         0         0         0         0
         0         0         0         0         0         0         0         0
         0         0         0         0         0         0         0         0
         0         0         0         0         0         0         0         0
         0         0         0         0         0         0         0         0
         0         0         0         0         0         0         0         0
         0         0         0         0         0         0         0         0
         0         0         0         0         0         0         0         0
         0         0         0         0         0         0         0         0
         0         0         0         0         0         0         0         0
         0         0         0         0         0         0         0         0
         0         0         0         0         0         0         0         0
         0         0         0         0         0         0         0         0
         0         0         0         0         0         0         0         0
         0         0         0         0         0         0         0         0
         0         0         0         0         0         0         0         0
         0         0         0         0         0         0         0         0
         0         0         0         0         0         0         0         0
         0         0         0         0         0         0         0         0
         0         0         0         0         0         0         0         0
         0         0         0         0         0         0         0         0
         0         0         0         0         0         0         0         0
         0         0         0         0         0         0         0         0
         0         0         0         0         0         0         0         0
         0         0         0         0         0         0         0         0
         0         0         0         0         0         0         0         0
         0         0         0         0         0         0         0         0
         0         0         0         0         0         0         0         0
         0         0         0         0         0         0         0         0
         0         0         0         0         0         0         0         0
         0         0         0         0         0         0         0         0
         0         0         0         0         0         0         0         0
         0         0         0         0         0         0         0         0
         0         0         0         0         0         0         0         0
         0         0         0         0         0         0         0         0
         0         0         0         0         0         0         0         0
         0         0         0         0         0         0         0         0
         0         0         0         0         0         0         0         0
         0         0         0         0         0         0         0         0
         0         0         0         0         0         0         0         0
         0         0         0         0         0         0         0         0
         0         0         0         0         0         0         0         0
         0         0         0         0         0         0         0         0
         0         0         0         0         0         0         0         0
         0         0         0         0         0         0         0         0
         0         0         0         0         0         0         0         0
         0         0         0         0         0         0         0         0
         0         0         0         0         0         0         0         0
         0         0         0         0         0         0         0         0
         0         0         0         0         0         0         0         0
         0         0         0         0         0         0         0         0
         0         0         0         0         0         0         0         0
         0         0         0         0         0         0         0         0
         0         0         0         0         0         0         0         0
         0         0         0         0         0         0         0         0
         0         0         0         0         0         0         0         0
         0         0         0         0         0         0         0         0
         0         0         0         0         0         0         0         0
         0         0         0         0         0         0         0         0
         0         0         0         0         0         0         0         0
         0         0         0         0         0         0         0         0
         0         0         0         0         0         0         0         0
         0         0         0         0         0         0         0         0
         0         0         0         0         0         0         0         0
         0         0         0         0         0         0         0         0
         0         0         0         0         0         0         0         0
         0         0         0         0         0         0         0         0
         0         0         0         0         0         0         0         0
         0         0         0         0         0         0         0         0
         0         0         0         0         0         0         0         0
         0         0         0         0         0         0         0         0
         0         0         0         0         0         0         0         0
         0         0         0         0         0         0         0         0
         0         0         0         0         0         0         0         0
         0         0         0         0         0         0         0         0
         0         0         0         0         0         0         0         0
         0         0         0         0         0         0         0         0
         0         0         0         0         0         0         0         0
         0         0         0         0         0         0         0         0
         0         0         0         0         0         0         0         0
         0         0         0         0         0         0         0         0
         0         0         0         0         0         0         0         0
         0         0         0         0         0         0         0         0
         0         0         0         0         0         0         0         0
         0         0         0         0         0         0         0         0
         0         0         0         0         0         0         0         0
         0         0         0         0         0         0         0         0
         0         0         0         0         0         0         0         0
         0         0         0         0         0         0         0         0
         0         0         0         0         0         0         0         0
         0         0         0         0         0         0         0         0
         0         0         0         0         0         0         0         0
         0         0         0         0         0         0         0         0
         0         0         0         0         0         0         0         0
         0         0         0         0         0         0         0         0
         0         0         0         0         0         0         0         0
         0         0         0         0         0         0         0         0
         0         0         0         0         0         0         0         0
         0         0         0         0         0         0         0         0
         0         0         0         0         0         0         0         0
         0         0         0         0         0         0         0         0
         0         0         0         0         0         0         0         0
         0         0         0         0         0         0         0         0
         0         0         0         0         0         0         0         0
         0         0         0         0         0         0         0         0
         0         0         0         0         0         0         0         0
         0         0         0         0         0         0         0         0
         0         0         0         0         0         0         0         0
         0         0         0         0         0         0         0         0
         0         0         0         0         0         0         0         0
         0         0         0         0         0         0         0         0
         0         0         0         0         0         0         0         0
         0         0         0         0         0         0         0         0
         0         0         0         0         0         0         0         0
         0         0         0         0         0         0         0         0
         0         0         0         0         0         0         0         0
         0         0         0         0         0         0         0         0
         0         0         0         0         0         0         0         0
         0         0         0         0         0         0         0         0
         0         0         0         0         0         0         0         0
         0         0         0         0         0         0         0         0
         0         0         0         0         0         0         0         0
         0         0         0         0         0         0         0         0
         0         0         0         0         0         0         0         0
         0         0         0         0         0         0         0         0
         0         0         0         0         0         0         0         0
         0         0         0         0         0         0         0         0
         0         0         0         0         0         0         0         0
         0         0         0         0         0         0         0         0
         0         0         0         0         0         0         0         0
         0         0         0         0         0         0         0         0
         0         0         0         0         0         0         0         0
         0         0         0         0         0         0         0         0
         0         0         0         0         0         0         0         0
         0         0         0         0         0         0         0         0
         0         0         0         0         0         0         0         0
         0         0         0         0         0         0         0         0
         0         0         0         0         0         0         0         0
         0         0         0         0         0         0         0         0
         0         0         0         0         0         0         0         0
         0         0         0         0         0         0         0         0
         0         0         0         0         0         0         0         0
         0         0         0         0         0         0         0         0
         0         0         0         0         0         0         0         0
         0         0         0         0         0         0         0         0
         0         0         0         0         0         0         0         0
         0         0         0         0         0         0         0         0
         0         0         0         0         0         0         0         0
         0         0         0         0         0         0         0         0
         0         0         0         0         0         0         0         0
         0         0         0         0         0         0         0         0
         0         0         0         0         0         0         0         0
         0         0         0         0         0         0         0         0
         0         0         0         0         0         0         0         0
         0         0         0         0         0         0         0         0
         0         0         0         0         0         0         0         0
         0         0         0         0         0         0         0         0
         0         0         0         0         0         0         0         0
         0         0         0         0         0         0         0         0
         0         0         0         0         0         0         0         0
         0         0         0         0         0         0         0         0
         0         0         0         0         0         0         0         0
         0         0         0         0         0         0         0         0
         0         0         0         0         0         0         0         0
         0         0         0         0         0         0         0         0
         0         0         0         0         0         0         0         0
         0         0         0         0         0         0         0         0
         0         0         0         0         0         0         0         0
         0         0         0         0         0         0         0         0
         0         0         0         0         0         0         0         0
         0         0         0         0         0         0         0         0
         0         0         0         0         0         0         0         0
         0         0         0         0         0         0         0         0
         0         0         0         0         0         0         0         0
         0         0         0         0         0         0         0         0
         0         0         0         0         0         0         0         0
         0         0         0         0         0         0         0         0
         0         0         0         0         0         0         0         0
         0         0         0         0         0         0         0         0
         0         0         0         0         0         0         0         0
         0         0         0         0         0         0         0         0
         0         0         0         0         0         0         0         0
         0         0         0         0         0         0         0         0
         0         0         0         0         0         0         0         0
         0         0         0         0         0         0         0         0
         0         0         0         0         0         0         0         0
         0         0         0         0         0         0         0         0
         0         0         0         0         0         0         0         0
         0         0         0         0         0         0         0         0
         0         0         0         0         0         0         0         0
         0         0         0         0         0         0         0         0
         0         0         0         0         0         0         0         0
         0         0         0         0         0         0         0         0
         0         0         0         0         0         0         0         0
         0         0         0         0         0         0         0         0
         0         0         0         0         0         0         0         0
         0         0         0         0         0         0         0         0
         0         0         0         0         0         0         0         0
         0         0         0         0         0         0         0         0
         0         0         0         0         0         0         0         0
         0         0         0         0         0         0         0         0
         0         0         0         0         0         0         0         0
         0         0         0         0         0         0         0         0
         0         0         0         0         0         0         0         0
         0         0         0         0         0         0         0         0
         0         0         0         0         0         0         0         0
         0         0         0         0         0         0         0         0
         0         0         0         0         0         0         0         0
         0         0         0         0         0         0         0         0
         0         0         0         0         0         0         0         0
         0         0         0         0         0         0         0         0
         0         0         0         0         0         0         0         0
         0         0         0         0         0         0         0         0
         0         0         0         0         0         0         0         0
         0         0         0         0         0         0         0         0
         0         0         0         0         0         0         0         0
         0         0         0         0         0         0         0         0
         0         0         0         0         0         0         0         0
         0         0         0         0         0         0         0         0
         0         0         0         0         0         0         0         0
         0         0         0         0         0         0         0         0
         0         0         0         0         0         0         0         0
         0         0         0         0         0         0         0         0
         0         0         0         0         0         0         0         0
         0         0         0         0         0         0         0         0
         0         0         0         0         0         0         0         0
         0         0         0         0         0         0         0         0
         0         0         0         0         0         0         0         0
         0         0         0         0         0         0         0         0
         0         0         0         0         0         0         0         0
         0         0         0         0         0         0         0         0
         0         0         0         0         0         0         0         0
         0         0         0         0         0         0         0         0
         0         0         0         0         0         0         0         0
         0         0         0         0         0         0         0         0
         0         0         0         0         0         0         0         0
         0         0         0         0         0         0         0         0
         0         0         0         0         0         0         0         0
         0         0         0         0         0         0         0         0
         0         0         0         0         0         0         0         0
         0         0         0         0         0         0         0         0
         0         0         0         0         0         0         0         0
         0         0         0         0         0         0         0         0
         0         0         0         0         0         0         0         0
         0         0         0         0         0         0         0         0
         0         0         0         0         0         0         0         0
         0         0         0         0         0         0         0         0
         0         0         0         0         0         0         0         0
         0         0         0         0         0         0         0         0
         0         0         0         0         0         0         0         0
         0         0         0         0         0         0         0         0
         0         0         0         0         0         0         0         0
         0         0         0         0         0         0         0         0
         0         0         0         0         0         0         0         0
         0         0         0         0         0         0         0         0
         0         0         0         0         0         0         0         0
         0         0         0         0         0         0         0         0
         0         0         0         0         0         0         0         0
         0         0         0         0         0         0         0         0
         0         0         0         0         0         0         0         0
         0         0         0         0         0         0         0         0
         0         0         0         0         0         0         0         0
         0         0         0         0         0         0         0         0
         0         0         0         0         0         0         0         0
         0         0         0         0         0         0         0         0
         0         0         0         0         0         0         0         0
         0         0         0         0         0         0         0         0
         0         0         0         0         0         0         0         0
         0         0         0         0         0         0         0         0
         0         0         0         0         0         0         0         0
         0         0         0         0         0         0         0         0
         0         0         0         0         0         0         0         0
         0         0         0         0         0         0         0         0
         0         0         0         0         0         0         0         0
         0         0         0         0         0         0         0         0
         0         0         0         0         0         0         0         0
         0         0         0         0         0         0         0         0
         0         0         0         0         0         0         0         0
         0         0         0         0         0         0         0         0
         0         0         0         0         0         0         0         0
         0         0         0         0         0         0         0         0
         0         0         0         0         0         0         0         0
         0         0         0         0         0         0         0         0
         0         0         0         0         0         0         0         0
         0         0         0         0         0         0         0         0
         0         0         0         0         0         0         0         0
         0         0         0         0         0         0         0         0
         0         0         0         0         0         0         0         0
         0         0         0         0         0         0         0         0
         0         0         0         0         0         0         0         0
         0         0         0         0         0         0         0         0
         0         0         0         0         0         0         0         0
         0         0         0         0         0         0         0         0
         0         0         0         0         0         0         0         0
         0         0         0         0         0         0         0         0
         0         0         0         0         0         0         0         0
         0         0         0         0         0         0         0         0
         0         0         0         0         0         0         0         0
         0         0         0         0         0         0         0         0
         0         0         0         0         0         0         0         0
         0         0         0         0         0         0         0         0
         0         0         0         0         0         0         0         0
         0         0         0         0         0         0         0         0
         0         0         0         0         0         0         0         0
         0         0         0         0         0         0         0         0
         0         0         0         0         0         0         0         0
         0         0         0         0         0         0         0         0
         0         0         0         0         0         0         0         0
         0         0         0         0         0         0         0         0
         0         0         0         0         0         0         0         0
         0         0         0         0         0         0         0         0
         0         0         0         0         0         0         0         0
         0         0         0         0         0         0         0         0
         0         0         0         0         0         0         0         0
         0         0         0         0         0         0         0         0
         0         0         0         0         0         0         0         0
         0         0         0         0         0         0         0         0
         0         0         0         0         0         0         0         0
         0         0         0         0         0         0         0         0
         0         0         0         0         0         0         0         0
         0         0         0         0         0         0         0         0
         0         0         0         0         0         0         0         0
         0         0         0         0         0         0         0         0
         0         0         0         0         0         0         0         0
         0         0         0         0         0         0         0         0
         0         0         0         0         0         0         0         0
         0         0         0         0         0         0         0         0
         0         0         0         0         0         0         0         0
         0         0         0         0         0         0         0         0
         0         0         0         0         0         0         0         0
         0         0         0         0         0         0         0         0
         0         0         0         0         0         0         0         0
         0         0         0         0         0         0         0         0
         0         0         0         0         0         0         0         0
         0         0         0         0         0         0         0         0
         0         0         0         0         0         0         0         0
         0         0         0         0         0         0         0         0
         0         0         0         0         0         0         0         0
         0         0         0         0         0         0         0         0
         0         0         0         0         0         0         0         0
         0         0         0         0         0         0         0         0
         0         0         0         0         0         0         0         0
         0         0         0         0         0         0         0         0
         0         0         0         0         0         0         0         0
         0         0         0         0         0         0         0         0
         0         0         0         0         0         0         0         0
         0         0         0         0         0         0         0         0
         0         0         0         0         0         0         0         0
         0         0         0         0         0         0         0         0
         0         0         0         0         0         0         0         0
         0         0         0         0         0         0         0         0
         0         0         0         0         0         0         0         0
         0         0         0         0         0         0         0         0
         0         0         0         0         0         0         0         0
         0         0         0         0         0         0         0         0
         0         0         0         0         0         0         0         0
         0         0         0         0         0         0         0         0
         0         0         0         0         0         0         0         0
         0         0         0         0         0         0         0         0
         0         0         0         0         0         0         0         0
         0         0         0         0         0         0         0         0
         0         0         0         0         0         0         0         0
         0         0         0         0         0         0         0         0
         0         0         0         0         0         0         0         0
         0         0         0         0         0         0         0         0
         0         0         0         0         0         0         0         0
         0         0         0         0         0         0         0         0
         0         0         0         0         0         0         0         0
         0         0         0         0         0         0         0         0
         0         0         0         0         0         0         0         0
         0         0         0         0         0         0         0         0
         0         0         0         0         0         0         0         0
         0         0         0         0         0         0         0         0
         0         0         0         0         0         0         0         0
         0         0         0         0         0         0         0         0
         0         0         0         0         0         0         0         0
         0         0         0         0         0         0         0         0
         0         0         0         0         0         0         0         0
         0         0         0         0         0         0         0         0
         0         0         0         0         0         0         0         0
         0         0         0         0         0         0         0         0
         0         0         0         0         0         0         0         0
         0         0         0         0         0         0         0         0
         0         0         0         0         0         0         0         0
         0         0         0         0         0         0         0         0
         0         0         0         0         0         0         0         0
         0         0         0         0         0         0         0         0
         0         0         0         0         0         0         0         0
         0         0         0         0         0         0         0         0
         0         0         0         0         0         0         0         0
         0         0         0         0         0         0         0         0
         0         0         0         0         0         0         0         0
         0         0         0         0         0         0         0         0
         0         0         0         0         0         0         0         0
         0         0         0         0         0         0         0         0
         0         0         0         0         0         0         0         0
         0         0         0         0         0         0         0         0
         0         0         0         0         0         0         0         0
         0         0         0         0         0         0         0         0
         0         0         0         0         0         0         0         0
         0         0         0         0         0         0         0         0
         0         0         0         0         0         0         0         0
         0         0         0         0         0         0         0         0
         0         0         0         0         0         0         0         0
         0         0         0         0         0         0         0         0
         0         0         0         0         0         0         0         0
         0         0         0         0         0         0         0         0
         0         0         0         0         0         0         0         0
         0         0         0         0         0         0         0         0
         0         0         0         0         0         0         0         0
         0         0         0         0         0         0         0         0
         0         0         0         0         0         0         0         0
         0         0         0         0         0         0         0         0
         0         0         0         0         0         0         0         0
         0         0         0         0         0         0         0         0
         0         0         0         0         0         0         0         0
         0         0         0         0         0         0         0         0
         0         0         0         0         0         0         0         0
         0         0         0         0         0         0         0         0
         0         0         0         0         0         0         0         0
         0         0         0         0         0         0         0         0
         0         0         0         0         0         0         0         0
         0         0         0         0         0         0         0         0
         0         0         0         0         0         0         0         0
         0         0         0         0         0         0         0         0
         0         0         0         0         0         0         0         0
         0         0         0         0         0         0         0         0
         0         0         0         0         0         0         0         0
         0         0         0         0         0         0         0         0
         0         0         0         0         0         0         0         0
         0         0         0         0         0         0         0         0
         0         0         0         0         0         0         0         0
         0         0         0         0         0         0         0         0
         0         0         0         0         0         0         0         0
         0         0         0         0         0         0         0         0
         0         0         0         0         0         0         0         0
         0         0         0         0         0         0         0         0
         0         0         0         0         0         0         0         0
         0         0         0         0         0         0         0         0
         0         0         0         0         0         0         0         0
         0         0         0         0         0         0         0         0
         0         0         0         0         0         0         0         0
         0         0         0         0         0         0         0         0
         0         0         0         0         0         0         0         0
         0         0         0         0         0         0         0         0
         0         0         0         0         0         0         0         0
         0         0         0         0         0         0         0         0
         0         0         0         0         0         0         0         0
         0         0         0         0         0         0         0         0
         0         0         0         0         0         0         0         0
         0         0         0         0         0         0         0         0
         0         0         0         0         0         0         0         0
         0         0         0         0         0         0         0         0
         0         0         0         0         0         0         0         0
         0         0         0         0         0         0         0         0
         0         0         0         0         0         0         0         0
         0         0         0         0         0         0         0         0
         0         0         0         0         0         0         0         0
         0         0         0         0         0         0         0         0
         0         0         0         0         0         0         0         0
         0         0         0         0         0         0         0         0
         0         0         0         0         0         0         0         0
         0         0         0         0         0         0         0         0
         0         0         0         0         0         0         0         0
         0         0         0         0         0         0         0         0
         0         0         0         0         0         0         0         0
         0         0         0         0         0         0         0         0
         0         0         0         0         0         0         0         0
         0         0         0         0         0         0         0         0
         0         0         0         0         0         0         0         0
         0         0         0         0         0         0         0         0
         0         0         0         0         0         0         0         0
         0         0         0         0         0         0         0         0
         0         0         0         0         0         0         0         0
         0         0         0         0         0         0         0         0
         0         0         0         0         0         0         0         0
         0         0         0         0         0         0         0         0
         0         0         0         0         0         0         0         0
         0         0         0         0         0         0         0         0
         0         0         0         0         0         0         0         0
         0         0         0         0         0         0         0         0
         0         0         0         0         0         0         0         0
         0         0         0         0         0         0         0         0
         0         0         0         0         0         0         0         0
         0         0         0         0         0         0         0         0
         0         0         0         0         0         0         0         0
         0         0         0         0         0         0         0         0
         0         0         0         0         0         0         0         0
         0         0         0         0         0         0         0         0
         0         0         0         0         0         0         0         0
         0         0         0         0         0         0         0         0
         0         0         0         0         0         0         0         0
         0         0         0         0         0         0         0         0
         0         0         0         0         0         0         0         0
         0         0         0         0         0         0         0         0
         0         0         0         0         0         0         0         0
         0         0         0         0         0         0         0         0
         0         0         0         0         0         0         0         0
         0         0         0         0         0         0         0         0
         0         0         0         0         0         0         0         0
         0         0         0         0         0         0         0         0
         0         0         0         0         0         0         0         0
         0         0         0         0         0         0         0         0
         0         0         0         0         0         0         0         0
         0         0         0         0         0         0         0         0
         0         0         0         0         0         0         0         0
         0         0         0         0         0         0         0         0
         0         0         0         0         0         0         0         0
         0         0         0         0         0         0         0         0
         0         0         0         0         0         0         0         0
         0         0         0         0         0         0         0         0
         0         0         0         0         0         0         0         0
         0         0         0         0         0         0         0         0
         0         0         0         0         0         0         0         0
         0         0         0         0         0         0         0         0
         0         0         0         0         0         0         0         0
         0         0         0         0         0         0         0         0
         0         0         0         0         0         0         0         0
         0         0         0         0         0         0         0         0
         0         0         0         0         0         0         0         0
         0         0         0         0         0         0         0         0
         0         0         0         0         0         0         0         0
         0         0         0         0         0         0         0         0
         0         0         0         0         0         0         0         0
         0         0         0         0         0         0         0         0
         0         0         0         0         0         0         0         0
         0         0         0         0         0         0         0         0
         0         0         0         0         0         0         0         0
         0         0         0         0         0         0         0         0
         0         0         0         0         0         0         0         0
         0         0         0         0         0         0         0         0
         0         0         0         0         0         0         0         0
         0         0         0         0         0         0         0         0
         0         0         0         0         0         0         0         0
         0         0         0         0         0         0         0         0
         0         0         0         0         0         0         0         0
         0         0         0         0         0         0         0         0
         0         0         0         0         0         0         0         0
         0         0         0         0         0         0         0         0
         0         0         0         0         0         0         0         0
         0         0         0         0         0         0         0         0
         0         0         0         0         0         0         0         0
         0         0         0         0         0         0         0         0
         0         0         0         0
         0         0         0         0         0         0         0         0
         0         0         0         0         0         0         0         0
         0         0         0         0         0         0         0         0
         0         0         0         0         0         0         0         0
         0         0         0         0         0         0         0         0
         0         0         0         0         0         0         0         0
         0         0         0         0         0         0         0         0
         0         0         0         0         0         0         0         0
         0         0         0         0         0         0         0         0
         0         0         0         0         0         0         0         0
         0         0         0         0         0         0         0         0
         0         0         0         0         0         0         0         0
         0         0         0         0         0         0         0         0
         0         0         0         0         0         0         0         0
         0         0         0         0         0         0         0         0
         0         0         0         0         0         0         0         0
         0         0         0         0         0         0         0         0
         0         0         0         0         0         0         0         0
         0         0         0         0         0         0         0         0
         0         0         0         0         0         0         0         0
         0         0         0         0         0         0         0         0
         0         0         0         0         0         0         0         0
         0         0         0         0         0         0         0         0
         0         0         0         0         0         0         0         0
         0         0         0         0         0         0         0         0
         0         0         0         0         0         0         0         0
         0         0         0         0         0         0         0         0
         0         0         0         0         0         0         0         0
         0         0         0         0         0         0         0         0
         0         0         0         0         0         0         0         0
         0         0         0         0         0         0         0         0
         0         0         0         0         0         0         0         0
         0         0         0         0         0         0         0         0
         0         0         0         0         0         0         0         0
         0         0         0         0         0         0         0         0
         0         0         0         0         0         0         0         0
         0         0         0         0         0         0         0         0
         0         0         0         0         0         0         0         0
         0         0         0         0         0         0         0         0
         0         0         0         0         0         0         0         0
         0         0         0         0         0         0         0         0
         0         0         0         0         0         0         0         0
         0         0         0         0         0         0         0         0
         0         0         0         0         0         0         0         0
         0         0         0         0         0         0         0         0
         0         0         0         0         0         0         0         0
         0         0         0         0         0         0         0         0
         0         0         0         0         0         0         0         0
         0         0         0         0         0         0         0         0
         0         0         0         0         0         0         0         0
         0         0         0         0         0         0         0         0
         0         0         0         0         0         0         0         0
         0         0         0         0         0         0         0         0
         0         0         0         0         0         0         0         0
         0         0         0         0         0         0         0         0
         0         0         0         0         0         0         0         0
         0         0         0         0         0         0         0         0
         0         0         0         0         0         0         0         0
         0         0         0         0         0         0         0         0
         0         0         0         0         0         0         0         0
         0         0         0         0         0         0         0         0
         0         0         0         0         0         0         0         0
         0         0         0         0         0         0         0         0
         0         0         0         0         0         0         0         0
         0         0         0         0         0         0         0         0
         0         0         0         0         0         0         0         0
         0         0         0         0         0         0         0         0
         0         0         0         0         0         0         0         0
         0         0         0         0         0         0         0         0
         0         0         0         0         0         0         0         0
         0         0         0         0         0         0         0         0
         0         0         0         0         0         0         0         0
         0         0         0         0         0         0         0         0
         0         0         0         0         0         0         0         0
         0         0         0         0         0         0         0         0
         0         0         0         0         0         0         0         0
         0         0         0         0         0         0         0         0
         0         0         0         0         0         0         0         0
         0         0         0         0         0         0         0         0
         0         0         0         0         0         0         0         0
         0         0         0         0         0         0         0         0
         0         0         0         0         0         0         0         0
         0         0         0         0         0         0         0         0
         0         0         0         0         0         0         0         0
         0         0         0         0         0         0         0         0
         0         0         0         0         0         0         0         0
         0         0         0         0         0         0         0         0
         0         0         0         0         0         0         0         0
         0         0         0         0         0         0         0         0
         0         0         0         0         0         0         0         0
         0         0         0         0         0         0         0         0
         0         0         0         0         0         0         0         0
         0         0         0         0         0         0         0         0
         0         0         0         0         0         0         0         0
         0         0         0         0         0         0         0         0
         0         0         0         0         0         0         0         0
         0         0         0         0         0         0         0         0
         0         0         0         0         0         0         0         0
         0         0         0         0         0         0         0         0
         0         0         0         0         0         0         0         0
         0         0         0         0         0         0         0         0
         0         0         0         0         0         0         0         0
         0         0         0         0         0         0         0         0
         0         0         0         0         0         0         0         0
         0         0         0         0         0         0         0         0
         0         0         0         0         0         0         0         0
         0         0         0         0         0         0         0         0
         0         0         0         0         0         0         0         0
         0         0         0         0         0         0         0         0
         0         0         0         0         0         0         0         0
         0         0         0         0         0         0         0         0
         0         0         0         0         0         0         0         0
         0         0         0         0         0         0         0         0
         0         0         0         0         0         0         0         0
         0         0         0         0         0         0         0         0
         0         0         0         0         0         0         0         0
         0         0         0         0         0         0         0         0
         0         0         0         0         0         0         0         0
         0         0         0         0         0         0         0         0
         0         0         0         0         0         0         0         0
         0         0         0         0         0         0         0         0
         0         0         0         0         0         0         0         0
         0         0         0         0         0         0         0         0
         0         0         0         0         0         0         0         0
         0         0         0         0         0         0         0         0
         0         0         0         0         0         0         0         0
         0         0         0         0         0         0         0         0
         0         0         0         0         0         0         0         0
         0         0         0         0         0         0         0         0
         0         0         0         0         0         0         0         0
         0         0         0         0         0         0         0         0
         0         0         0         0         0         0         0         0
         0         0         0         0         0         0         0         0
         0         0         0         0         0         0         0         0
         0         0         0         0         0         0         0         0
         0         0         0         0         0         0         0         0
         0         0         0         0         0         0         0         0
         0         0         0         0         0         0         0         0
         0         0         0         0         0         0         0         0
         0         0         0         0         0         0         0         0
         0         0         0         0         0         0         0         0
         0         0         0         0         0         0         0         0
         0         0         0         0         0         0         0         0
         0         0         0         0         0         0         0         0
         0         0         0         0         0         0         0         0
         0         0         0         0         0         0         0         0
         0         0         0         0         0         0         0         0
         0         0         0         0         0         0         0         0
         0         0         0         0         0         0         0         0
         0         0         0         0         0         0         0         0
         0         0         0         0         0         0         0         0
         0         0         0         0         0         0         0         0
         0         0         0         0         0         0         0         0
         0         0         0         0         0         0         0         0
         0         0         0         0         0         0         0         0
         0         0         0         0         0         0         0         0
         0         0         0         0         0         0         0         0
         0         0         0         0         0         0         0         0
         0         0         0         0         0         0         0         0
         0         0         0         0         0         0         0         0
         0         0         0         0         0         0         0         0
         0         0         0         0         0         0         0         0
         0         0         0         0         0         0         0         0
         0         0         0         0         0         0         0         0
         0         0         0         0         0         0         0         0
         0         0         0         0         0         0         0         0
         0         0         0         0         0         0         0         0
         0         0         0         0         0         0         0         0
         0         0         0         0         0         0         0         0
         0         0         0         0         0         0         0         0
         0         0         0         0         0         0         0         0
         0         0         0         0         0         0         0         0
         0         0         0         0         0         0         0         0
         0         0         0         0         0         0         0         0
         0         0         0         0         0         0         0         0
         0         0         0         0         0         0         0         0
         0         0         0         0         0         0         0         0
         0         0         0         0         0         0         0         0
         0         0         0         0         0         0         0         0
         0         0         0         0         0         0         0         0
         0         0         0         0         0         0         0         0
         0         0         0         0         0         0         0         0
         0         0         0         0         0         0         0         0
         0         0         0         0         0         0         0         0
         0         0         0         0         0         0         0         0
         0         0         0         0         0         0         0         0
         0         0         0         0         0         0         0         0
         0         0         0         0         0         0         0         0
         0         0         0         0         0         0         0         0
         0         0         0         0         0         0         0         0
         0         0         0         0         0         0         0         0
         0         0         0         0         0         0         0         0
         0         0         0         0         0         0         0         0
         0         0         0         0         0         0         0         0
         0         0         0         0         0         0         0         0
         0         0         0         0         0         0         0         0
         0         0         0         0         0         0         0         0
         0         0         0         0         0         0         0         0
         0         0         0         0         0         0         0         0
         0         0         0         0         0         0         0         0
         0         0         0         0         0         0         0         0
         0         0         0         0         0         0         0         0
         0         0         0         0         0         0         0         0
         0         0         0         0         0         0         0         0
         0         0         0         0         0         0         0         0
         0         0         0         0         0         0         0         0
         0         0         0         0         0         0         0         0
         0         0         0         0         0         0         0         0
         0         0         0         0         0         0         0         0
         0         0         0         0         0         0         0         0
         0         0         0         0         0         0         0         0
         0         0         0         0         0         0         0         0
         0         0         0         0         0         0         0         0
         0         0         0         0         0         0         0         0
         0         0         0         0         0         0         0         0
         0         0         0         0         0         0         0         0
         0         0         0         0         0         0         0         0
         0         0         0         0         0         0         0         0
         0         0         0         0         0         0         0         0
         0         0         0         0         0         0         0         0
         0         0         0         0         0         0         0         0
         0         0         0         0         0         0         0         0
         0         0         0         0         0         0         0         0
         0         0         0         0         0         0         0         0
         0         0         0         0         0         0         0         0
         0         0         0         0         0         0         0         0
         0         0         0         0         0         0         0         0
         0         0         0         0         0         0         0         0
         0         0         0         0         0         0         0         0
         0         0         0         0         0         0         0         0
         0         0         0         0         0         0         0         0
         0         0         0         0         0         0         0         0
         0         0         0         0         0         0         0         0
         0         0         0         0         0         0         0         0
         0         0         0         0         0         0         0         0
         0         0         0         0         0         0         0         0
         0         0         0         0         0         0         0         0
         0         0         0         0         0         0         0         0
         0         0         0         0         0         0         0         0
         0         0         0         0         0         0         0         0
         0         0         0         0         0         0         0         0
         0         0         0         0         0         0         0         0
         0         0         0         0         0         0         0         0
         0         0         0         0         0         0         0         0
         0         0         0         0         0         0         0         0
         0         0         0         0         0         0         0         0
         0         0         0         0         0         0         0         0
         0         0         0         0         0         0         0         0
         0         0         0         0         0         0         0         0
         0         0         0         0         0         0         0         0
         0         0         0         0         0         0         0         0
         0         0         0         0         0         0         0         0
         0         0         0         0         0         0         0         0
         0         0         0         0         0         0         0         0
         0         0         0         0         0         0         0         0
         0         0         0         0         0         0         0         0
         0         0         0         0         0         0         0         0
         0         0         0         0         0         0         0         0
         0         0         0         0         0         0         0         0
         0         0         0         0         0         0         0         0
         0         0         0         0         0         0         0         0
         0         0         0         0         0         0         0         0
         0         0         0         0         0         0         0         0
         0         0         0         0         0         0         0         0
         0         0         0         0         0         0         0         0
         0         0         0         0         0         0         0         0
         0         0         0         0         0         0         0         0
         0         0         0         0         0         0         0         0
         0         0         0         0         0         0         0         0
         0         0         0         0         0         0         0         0
         0         0         0         0         0         0         0         0
         0         0         0         0         0         0         0         0
         0         0         0         0         0         0         0         0
         0         0         0         0         0         0         0         0
         0         0         0         0         0         0         0         0
         0         0         0         0         0         0         0         0
         0         0         0         0         0         0         0         0
         0         0         0         0         0         0         0         0
         0         0         0         0         0         0         0         0
         0         0         0         0         0         0         0         0
         0         0         0         0         0         0         0         0
         0         0         0         0         0         0         0         0
         0         0         0         0         0         0         0         0
         0         0         0         0         0         0         0         0
         0         0         0         0         0         0         0         0
         0         0         0         0         0         0         0         0
         0         0         0         0         0         0         0         0
         0         0         0         0         0         0         0         0
         0         0         0         0         0         0         0         0
         0         0         0         0         0         0         0         0
         0         0         0         0         0         0         0         0
         0         0         0         0         0         0         0         0
         0         0         0         0         0         0         0         0
         0         0         0         0         0         0         0         0
         0         0         0         0         0         0         0         0
         0         0         0         0         0         0         0         0
         0         0         0         0         0         0         0         0
         0         0         0         0         0         0         0         0
         0         0         0         0         0         0         0         0
         0         0         0         0         0         0         0         0
         0         0         0         0         0         0         0         0
         0         0         0         0         0         0         0         0
         0         0         0         0         0         0         0         0
         0         0         0         0         0         0         0         0
         0         0         0         0         0         0         0         0
         0         0         0         0         0         0         0         0
         0         0         0         0         0         0         0         0
         0         0         0         0         0         0         0         0
         0         0         0         0         0         0         0         0
         0         0         0         0         0         0         0         0
         0         0         0         0         0         0         0         0
         0         0         0         0         0         0         0         0
         0         0         0         0         0         0         0         0
         0         0         0         0         0         0         0         0
         0         0         0         0         0         0         0         0
         0         0         0         0         0         0         0         0
         0         0         0         0         0         0         0         0
         0         0         0         0         0         0         0         0
         0         0         0         0         0         0         0         0
         0         0         0         0         0         0         0         0
         0         0         0         0         0         0         0         0
         0         0         0         0         0         0         0         0
         0         0         0         0         0         0         0         0
         0         0         0         0         0         0         0         0
         0         0         0         0         0         0         0         0
         0         0         0         0         0         0         0         0
         0         0         0         0         0         0         0         0
         0         0         0         0         0         0         0         0
         0         0         0         0         0         0         0         0
         0         0         0         0         0         0         0         0
         0         0         0         0         0         0         0         0
         0         0         0         0         0         0         0         0
         0         0         0         0         0         0         0         0
         0         0         0         0         0         0         0         0
         0         0         0         0         0         0         0         0
         0         0         0         0         0         0         0         0
         0         0         0         0         0         0         0         0
         0         0         0         0         0         0         0         0
         0         0         0         0         0         0         0         0
         0         0         0         0         0         0         0         0
         0         0         0         0         0         0         0         0
         0         0         0         0         0         0         0         0
         0         0         0         0         0         0         0         0
         0         0         0         0         0         0         0         0
         0         0         0         0         0         0         0         0
         0         0         0         0         0         0         0         0
         0         0         0         0         0         0         0         0
         0         0         0         0         0         0         0         0
         0         0         0         0         0         0         0         0
         0         0         0         0         0         0         0         0
         0         0         0         0         0         0         0         0
         0         0         0         0         0         0         0         0
         0         0         0         0         0         0         0         0
         0         0         0         0         0         0         0         0
         0         0         0         0         0         0         0         0
         0         0         0         0         0         0         0         0
         0         0         0         0         0         0         0         0
         0         0         0         0         0         0         0         0
         0         0         0         0         0         0         0         0
         0         0         0         0         0         0         0         0
         0         0         0         0         0         0         0         0
         0         0         0         0         0         0         0         0
         0         0         0         0         0         0         0         0
         0         0         0         0         0         0         0         0
         0         0         0         0         0         0         0         0
         0         0         0         0         0         0         0         0
         0         0         0         0         0         0         0         0
         0         0         0         0         0         0         0         0
         0         0         0         0         0         0         0         0
         0         0         0         0         0         0         0         0
         0         0         0         0         0         0         0         0
         0         0         0         0         0         0         0         0
         0         0         0         0         0         0         0         0
         0         0         0         0         0         0         0         0
         0         0         0         0         0         0         0         0
         0         0         0         0         0         0         0         0
         0         0         0         0         0         0         0         0
         0         0         0         0         0         0         0         0
         0         0         0         0         0         0         0         0
         0         0         0         0         0         0         0         0
         0         0         0         0         0         0         0         0
         0         0         0         0         0         0         0         0
         0         0         0         0         0         0         0         0
         0         0         0         0         0         0         0         0
         0         0         0         0         0         0         0         0
         0         0         0         0         0         0         0         0
         0         0         0         0         0         0         0         0
         0         0         0         0         0         0         0         0
         0         0         0         0         0         0         0         0
         0         0         0         0         0         0         0         0
         0         0         0         0         0         0         0         0
         0         0         0         0         0         0         0         0
         0         0         0         0         0         0         0         0
         0         0         0         0         0         0         0         0
         0         0         0         0         0         0         0         0
         0         0         0         0         0         0         0         0
         0         0         0         0         0         0         0         0
         0         0         0         0         0         0         0         0
         0         0         0         0         0         0         0         0
         0         0         0         0         0         0         0         0
         0         0         0         0         0         0         0         0
         0         0         0         0         0         0         0         0
         0         0         0         0         0         0         0         0
         0         0         0         0         0         0         0         0
         0         0         0         0         0         0         0         0
         0         0         0         0         0         0         0         0
         0         0         0         0         0         0         0         0
         0         0         0         0         0         0         0         0
         0         0         0         0         0         0         0         0
         0         0         0         0         0         0         0         0
         0         0         0         0         0         0         0         0
         0         0         0         0         0         0         0         0
         0         0         0         0         0         0         0         0
         0         0         0         0         0         0         0         0
         0         0         0         0         0         0         0         0
         0         0         0         0         0         0         0         0
         0         0         0         0         0         0         0         0
         0         0         0         0         0         0         0         0
         0         0         0         0         0         0         0         0
         0         0         0         0         0         0         0         0
         0         0         0         0         0         0         0         0
         0         0         0         0         0         0         0         0
         0         0         0         0         0         0         0         0
         0         0         0         0         0         0         0         0
         0         0         0         0         0         0         0         0
         0         0         0         0         0         0         0         0
         0         0         0         0         0         0         0         0
         0         0         0         0         0         0         0         0
         0         0         0         0         0         0         0         0
         0         0         0         0         0         0         0         0
         0         0         0         0         0         0         0         0
         0         0         0         0         0         0         0         0
         0         0         0         0         0         0         0         0
         0         0         0         0         0         0         0         0
         0         0         0         0         0         0         0         0
         0         0         0         0         0         0         0         0
         0         0         0         0         0         0         0         0
         0         0         0         0         0         0         0         0
         0         0         0         0         0         0         0         0
         0         0         0         0         0         0         0         0
         0         0         0         0         0         0         0         0
         0         0         0         0         0         0         0         0
         0         0         0         0         0         0         0         0
         0         0         0         0         0         0         0         0
         0         0         0         0         0         0         0         0
         0         0         0         0         0         0         0         0
         0         0         0         0         0         0         0         0
         0         0         0         0         0         0         0         0
         0         0         0         0         0         0         0         0
         0         0         0         0         0         0         0         0
         0         0         0         0         0         0         0         0
         0         0         0         0         0         0         0         0
         0         0         0         0         0         0         0         0
         0         0         0         0         0         0         0         0
         0         0         0         0         0         0         0         0
         0         0         0         0         0         0         0         0
         0         0         0         0         0         0         0         0
         0         0         0         0         0         0         0         0
         0         0         0         0         0         0         0         0
         0         0         0         0         0         0         0         0
         0         0         0         0         0         0         0         0
         0         0         0         0         0         0         0         0
         0         0         0         0         0         0         0         0
         0         0         0         0         0         0         0         0
         0         0         0         0         0         0         0         0
         0         0         0         0         0         0         0         0
         0         0         0         0         0         0         0         0
         0         0         0         0         0         0         0         0
         0         0         0         0         0         0         0         0
         0         0         0         0         0         0         0         0
         0         0         0         0         0         0         0         0
         0         0         0         0         0         0         0         0
         0         0         0         0         0         0         0         0
         0         0         0         0         0         0         0         0
         0         0         0         0         0         0         0         0
         0         0         0         0         0         0         0         0
         0         0         0         0         0         0         0         0
         0         0         0         0         0         0         0         0
         0         0         0         0         0         0         0         0
         0         0         0         0         0         0         0         0
         0         0         0         0         0         0         0         0
         0         0         0         0         0         0         0         0
         0         0         0         0         0         0         0         0
         0         0         0         0         0         0         0         0
         0         0         0         0         0         0         0         0
         0         0         0         0         0         0         0         0
         0         0         0         0         0         0         0         0
         0         0         0         0         0         0         0         0
         0         0         0         0         0         0         0         0
         0         0         0         0         0         0         0         0
         0         0         0         0         0         0         0         0
         0         0         0         0         0         0         0         0
         0         0         0         0         0         0         0         0
         0         0         0         0         0         0         0         0
         0         0         0         0         0         0         0         0
         0         0         0         0         0         0         0         0
         0         0         0         0         0         0         0         0
         0         0         0         0         0         0         0         0
         0         0         0         0         0         0         0         0
         0         0         0         0         0         0         0         0
         0         0         0         0         0         0         0         0
         0         0         0         0         0         0         0         0
         0         0         0         0         0         0         0         0
         0         0         0         0         0         0         0         0
         0         0         0         0         0         0         0         0
         0         0         0         0         0         0         0         0
         0         0         0         0         0         0         0         0
         0         0         0         0         0         0         0         0
         0         0         0         0         0         0         0         0
         0         0         0         0         0         0         0         0
         0         0         0         0         0         0         0         0
         0         0         0         0         0         0         0         0
         0         0         0         0         0         0         0         0
         0         0         0         0         0         0         0         0
         0         0         0         0         0         0         0         0
         0         0         0         0         0         0         0         0
         0         0         0         0         0         0         0         0
         0         0         0         0         0         0         0         0
         0         0         0         0         0         0         0         0
         0         0         0         0         0         0         0         0
         0         0         0         0         0         0         0         0
         0         0         0         0         0         0         0         0
         0         0         0         0         0         0         0         0
         0         0         0         0         0         0         0         0
         0         0         0         0         0         0         0         0
         0         0         0         0         0         0         0         0
         0         0         0         0         0         0         0         0
         0         0         0         0         0         0         0         0
         0         0         0         0         0         0         0         0
         0         0         0         0         0         0         0         0
         0         0         0         0         0         0         0         0
         0         0         0         0         0         0         0         0
         0         0         0         0         0         0         0         0
         0         0         0         0         0         0         0         0
         0         0         0         0         0         0         0         0
         0         0         0         0         0         0         0         0
         0         0         0         0         0         0         0         0
         0         0         0         0         0         0         0         0
         0         0         0         0         0         0         0         0
         0         0         0         0         0         0         0         0
         0         0         0         0         0         0         0         0
         0         0         0         0         0         0         0         0
         0         0         0         0         0         0         0         0
         0         0         0         0         0         0         0         0
         0         0         0         0         0         0         0         0
         0         0         0         0         0         0         0         0
         0         0         0         0         0         0         0         0
         0         0         0         0         0         0         0         0
         0         0         0         0         0         0         0         0
         0         0         0         0         0         0         0         0
         0         0         0         0         0         0         0         0
         0         0         0         0         0         0         0         0
         0         0         0         0         0         0         0         0
         0         0         0         0         0         0         0         0
         0         0         0         0         0         0         0         0
         0         0         0         0         0         0         0         0
         0         0         0         0         0         0         0         0
         0         0         0         0         0         0         0         0
         0         0         0         0         0         0         0         0
         0         0         0         0         0         0         0         0
         0         0         0         0         0         0         0         0
         0         0         0         0         0         0         0         0
         0         0         0         0         0         0         0         0
         0         0         0         0         0         0         0         0
         0         0         0         0         0         0         0         0
         0         0         0         0         0         0         0         0
         0         0         0         0         0         0         0         0
         0         0         0         0         0         0         0         0
         0         0         0         0         0         0         0         0
         0         0         0         0         0         0         0         0
         0         0         0         0         0         0         0         0
         0         0         0         0         0         0         0         0
         0         0         0         0         0         0         0         0
         0         0         0         0         0         0         0         0
         0         0         0         0         0         0         0         0
         0         0         0         0         0         0         0         0
         0         0         0         0         0         0         0         0
         0         0         0         0         0         0         0         0
         0         0         0         0         0         0         0         0
         0         0         0         0         0         0         0         0
         0         0         0         0         0         0         0         0
         0         0         0         0         0         0         0         0
         0         0         0         0         0         0         0         0
         0         0         0         0         0         0         0         0
         0         0         0         0         0         0         0         0
         0         0         0         0         0         0         0         0
         0         0         0         0         0         0         0         0
         0         0         0         0         0         0         0         0
         0         0         0         0         0         0         0         0
         0         0         0         0         0         0         0         0
         0         0         0         0         0         0         0         0
         0         0         0         0         0         0         0         0
         0         0         0         0         0         0         0         0
         0         0         0         0         0         0         0         0
         0         0         0         0         0         0         0         0
         0         0         0         0         0         0         0         0
         0         0         0         0         0         0         0         0
         0         0         0         0         0         0         0         0
         0         0         0         0         0         0         0         0
         0         0         0         0         0         0         0         0
         0         0         0         0         0         0         0         0
         0         0         0         0         0         0         0         0
         0         0         0         0         0         0         0         0
         0         0         0         0         0         0         0         0
         0         0         0         0         0         0         0         0
         0         0         0         0         0         0         0         0
         0         0         0         0         0         0         0         0
         0         0         0         0         0         0         0         0
         0         0         0         0         0         0         0         0
         0         0         0         0         0         0         0         0
         0         0         0         0         0         0         0         0
         0         0         0         0         0         0         0         0
         0         0         0         0         0         0         0         0
         0         0         0         0         0         0         0         0
         0         0         0         0         0         0         0         0
         0         0         0         0         0         0         0         0
         0         0         0         0         0         0         0         0
         0         0         0         0         0         0         0         0
         0         0         0         0         0         0         0         0
         0         0         0         0         0         0         0         0
         0         0         0         0         0         0         0         0
         0         0         0         0         0         0         0         0
         0         0         0         0         0         0         0         0
         0         0         0         0         0         0         0         0
         0         0         0         0         0         0         0         0
         0         0         0         0         0         0         0         0
         0         0         0         0         0         0         0         0
         0         0         0         0         0         0         0         0
         0         0         0         0         0         0         0         0
         0         0         0         0         0         0         0         0
         0         0         0         0         0         0         0         0
         0         0         0         0         0         0         0         0
         0         0         0         0         0         0         0         0
         0         0         0         0         0         0         0         0
         0         0         0         0         0         0         0         0
         0         0         0         0         0         0         0         0
         0         0         0         0         0         0         0         0
         0         0         0         0         0         0         0         0
         0         0         0         0         0         0         0         0
         0         0         0         0         0         0         0         0
         0         0         0         0         0         0         0         0
         0         0         0         0         0         0         0         0
         0         0         0         0         0         0         0         0
         0         0         0         0         0         0         0         0
         0         0         0         0         0         0         0         0
         0         0         0         0         0         0         0         0
         0         0         0         0         0         0         0         0
         0         0         0         0         0         0         0         0
         0         0         0         0         0         0         0         0
         0         0         0         0         0         0         0         0
         0         0         0         0         0         0         0         0
         0         0         0         0         0         0         0         0
         0         0         0         0         0         0         0         0
         0         0         0         0         0         0         0         0
         0         0         0         0         0         0         0         0
         0         0         0         0         0         0         0         0
         0         0         0         0         0         0         0         0
         0         0         0         0         0         0         0         0
         0         0         0         0         0         0         0         0
         0         0         0         0         0         0         0         0
         0         0         0         0         0         0         0         0
         0         0         0         0         0         0         0         0
         0         0         0         0         0         0         0         0
         0         0         0         0         0         0         0         0
         0         0         0         0         0         0         0         0
         0         0         0         0         0         0         0         0
         0         0         0         0         0         0         0         0
         0         0         0         0         0         0         0         0
         0         0         0         0         0         0         0         0
         0         0         0         0         0         0         0         0
         0         0         0         0         0         0         0         0
         0         0         0         0         0         0         0         0
         0         0         0         0         0         0         0         0
         0         0         0         0         0         0         0         0
         0         0         0         0         0         0         0         0
         0         0         0         0         0         0         0         0
         0         0         0         0         0         0         0         0
         0         0         0         0         0         0         0         0
         0         0         0         0         0         0         0         0
         0         0         0         0         0         0         0         0
         0         0         0         0         0         0         0         0
         0         0         0         0         0         0         0         0
         0         0         0         0         0         0         0         0
         0         0         0         0         0         0         0         0
         0         0         0         0         0         0         0         0
         0         0         0         0         0         0         0         0
         0         0         0         0         0         0         0         0
         0         0         0         0         0         0         0         0
         0         0         0         0         0         0         0         0
         0         0         0         0         0         0         0         0
         0         0         0         0         0         0         0         0
         0         0         0         0         0         0         0         0
         0         0         0         0         0         0         0         0
         0         0         0         0         0         0         0         0
         0         0         0         0         0         0         0         0
         0         0         0         0         0         0         0         0
         0         0         0         0         0         0         0         0
         0         0         0         0         0         0         0         0
         0         0         0         0         0         0         0         0
         0         0         0         0         0         0         0         0
         0         0         0         0         0         0         0         0
         0         0         0         0         0         0         0         0
         0         0         0         0         0         0         0         0
         0         0         0         0         0         0         0         0
         0         0         0         0         0         0         0         0
         0         0         0         0         0         0         0         0
         0         0         0         0         0         0         0         0
         0         0         0         0         0         0         0         0
         0         0         0         0         0         0         0         0
         0         0         0         0         0         0         0         0
         0         0         0         0         0         0         0         0
         0         0         0         0         0         0         0         0
         0         0         0         0         0         0         0         0
         0         0         0         0         0         0         0         0
         0         0         0         0         0         0         0         0
         0         0         0         0         0         0         0         0
         0         0         0         0         0         0         0         0
         0         0         0         0         0         0         0         0
         0         0         0         0         0         0         0         0
         0         0         0         0         0         0         0         0
         0         0         0         0         0         0         0         0
         0         0         0         0         0         0         0         0
         0         0         0         0         0         0         0         0
         0         0         0         0         0         0         0         0
         0         0         0         0         0         0         0         0
         0         0         0         0         0         0         0         0
         0         0         0         0         0         0         0         0
         0         0         0         0         0         0         0         0
         0         0         0         0         0         0         0         0
         0         0         0         0         0         0         0         0
         0         0         0         0         0         0         0         0
         0         0         0         0         0         0         0         0
         0         0         0         0         0         0         0         0
         0         0         0         0         0         0         0         0
         0         0         0         0         0         0         0         0
         0         0         0         0         0         0         0         0
         0         0         0         0         0         0         0         0
         0         0         0         0         0         0         0         0
         0         0         0         0         0         0         0         0
         0         0         0         0         0         0         0         0
         0         0         0         0         0         0         0         0
         0         0         0         0         0         0         0         0
         0         0         0         0         0         0         0         0
         0         0         0         0         0         0         0         0
         0         0         0         0         0         0         0         0
         0         0         0         0         0         0         0         0
         0         0         0         0         0         0         0         0
         0         0         0         0         0         0         0         0
         0         0         0         0         0         0         0         0
         0         0         0         0         0         0         0         0
         0         0         0         0         0         0         0         0
         0         0         0         0         0         0         0         0
         0         0         0         0         0         0         0         0
         0         0         0         0         0         0         0         0
         0         0         0         0         0         0         0         0
         0         0         0         0         0         0         0         0
         0         0         0         0         0         0         0         0
         0         0         0         0         0         0         0         0
         0         0         0         0         0         0         0         0
         0         0         0         0         0         0         0         0
         0         0         0         0         0         0         0         0
         0         0         0         0         0         0         0         0
         0         0         0         0         0         0         0         0
         0         0         0         0         0         0         0         0
         0         0         0         0         0         0         0         0
         0         0         0         0         0         0         0         0
         0         0         0         0         0         0         0         0
         0         0         0         0         0         0         0         0
         0         0         0         0         0         0         0         0
         0         0         0         0         0         0         0         0
         0         0         0         0         0         0         0         0
         0         0         0         0         0         0         0         0
         0         0         0         0         0         0         0         0
         0         0         0         0         0         0         0         0
         0         0         0         0         0         0         0         0
         0         0         0         0         0         0         0         0
         0         0         0         0         0         0         0         0
         0         0         0         0         0         0         0         0
         0         0         0         0         0         0         0         0
         0         0         0         0         0         0         0         0
         0         0         0         0         0         0         0         0
         0         0         0         0         0         0         0         0
         0         0         0         0         0         0         0         0
         0         0         0         0         0         0         0         0
         0         0         0         0         0         0         0         0
         0         0         0         0         0         0         0         0
         0         0         0         0         0         0         0         0
         0         0         0         0         0         0         0         0
         0         0         0         0         0         0         0         0
         0         0         0         0         0         0         0         0
         0         0         0         0         0         0         0         0
         0         0         0         0         0         0         0         0
         0         0         0         0         0         0         0         0
         0         0         0         0         0         0         0         0
         0         0         0         0         0         0         0         0
         0         0         0         0         0         0         0         0
         0         0         0         0         0         0         0         0
         0         0         0         0         0         0         0         0
         0         0         0         0         0         0         0         0
         0         0         0         0         0         0         0         0
         0         0         0         0         0         0         0         0
         0         0         0         0         0         0         0         0
         0         0         0         0         0         0         0         0
         0         0         0         0         0         0         0         0
         0         0         0         0         0         0         0         0
         0         0         0         0         0         0         0         0
         0         0         0         0         0         0         0         0
         0         0         0         0         0         0         0         0
         0         0         0         0         0         0         0         0
         0         0         0         0         0         0         0         0
         0         0         0         0         0         0         0         0
         0         0         0         0         0         0         0         0
         0         0         0         0         0         0         0         0
         0         0         0         0         0         0         0         0
         0         0         0         0         0         0         0         0
         0         0         0         0         0         0         0         0
         0         0         0         0         0         0         0         0
         0         0         0         0         0         0         0         0
         0         0         0         0         0         0         0         0
         0         0         0         0         0         0         0         0
         0         0         0         0         0         0         0         0
         0         0         0         0         0         0         0         0
         0         0         0         0         0         0         0         0
         0         0         0         0         0         0         0         0
         0         0         0         0         0         0         0         0
         0         0         0         0         0         0         0         0
         0         0         0         0         0         0         0         0
         0         0         0         0         0         0         0         0
         0         0         0         0         0         0         0         0
         0         0         0         0         0         0         0         0
         0         0         0         0         0         0         0         0
         0         0         0         0         0         0         0         0
         0         0         0         0         0         0         0         0
         0         0         0         0         0         0         0         0
         0         0         0         0         0         0         0         0
         0         0         0         0         0         0         0         0
         0         0         0         0         0         0         0         0
         0         0         0         0         0         0         0         0
         0         0         0         0         0         0         0         0
         0         0         0         0         0         0         0         0
         0         0         0         0         0         0         0         0
         0         0         0         0         0         0         0         0
         0         0         0         0         0         0         0         0
         0         0         0         0         0         0         0         0
         0         0         0         0         0         0         0         0
         0         0         0         0         0         0         0         0
         0         0         0         0         0         0         0         0
         0         0         0         0         0         0         0         0
         0         0         0         0         0         0         0         0
         0         0         0         0         0         0         0         0
         0         0         0         0         0         0         0         0
         0         0         0         0         0         0         0         0
         0         0         0         0         0         0         0         0
         0         0         0         0         0         0         0         0
         0         0         0         0         0         0         0         0
         0         0         0         0         0         0         0         0
         0         0         0         0         0         0         0         0
         0         0         0         0         0         0         0         0
         0         0         0         0         0         0         0         0
         0         0         0         0         0         0         0         0
         0         0         0         0         0         0         0         0
         0         0         0         0         0         0         0         0
         0         0         0         0         0         0         0         0
         0         0         0         0         0         0         0         0
         0         0         0         0         0         0         0         0
         0         0         0         0         0         0         0         0
         0         0         0         0         0         0         0         0
         0         0         0         0         0         0         0         0
         0         0         0         0         0         0         0         0
         0         0         0         0         0         0         0         0
         0         0         0         0         0         0         0         0
         0         0         0         0         0         0         0         0
         0         0         0         0         0         0         0         0
         0         0         0         0         0         0         0         0
         0         0         0         0         0         0         0         0
         0         0         0         0         0         0         0         0
         0         0         0         0         0         0         0         0
         0         0         0         0         0         0         0         0
         0         0         0         0         0         0         0         0
         0         0         0         0         0         0         0         0
         0         0         0         0         0         0         0         0
         0         0         0         0         0         0         0         0
         0         0         0         0         0         0         0         0
         0         0         0         0         0         0         0         0
         0         0         0         0         0         0         0         0
         0         0         0         0         0         0         0         0
         0         0         0         0         0         0         0         0
         0         0         0         0         0         0         0         0
         0         0         0         0         0         0         0         0
         0         0         0         0         0         0         0         0
         0         0         0         0         0         0         0         0
         0         0         0         0         0         0         0         0
         0         0         0         0         0         0         0         0
         0         0         0         0         0         0         0         0
         0         0         0         0         0         0         0         0
         0         0         0         0         0         0         0         0
         0         0         0         0         0         0         0         0
         0         0         0         0         0         0         0         0
         0         0         0         0         0         0         0         0
         0         0         0         0         0         0         0         0
         0         0         0         0         0         0         0         0
         0         0         0         0         0         0         0         0
         0         0         0         0         0         0         0         0
         0         0         0         0         0         0         0         0
         0         0         0         0         0         0         0         0
         0         0         0         0         0         0         0         0
         0         0         0         0         0         0         0         0
         0         0         0         0         0         0         0         0
         0         0         0         0         0         0         0         0
         0         0         0         0         0         0         0         0
         0         0         0         0         0         0         0         0
         0         0         0         0         0         0         0         0
         0         0         0         0         0         0         0         0
         0         0         0         0         0         0         0         0
         0         0         0         0         0         0         0         0
         0         0         0         0         0         0         0         0
         0         0         0         0         0         0         0         0
         0         0         0         0         0         0         0         0
         0         0         0         0         0         0         0         0
         0         0         0         0         0         0         0         0
         0         0         0         0         0         0         0         0
         0         0         0         0         0         0         0         0
         0         0         0         0         0         0         0         0
         0         0         0         0         0         0         0         0
         0         0         0         0         0         0         0         0
         0         0         0         0         0         0         0         0
         0         0         0         0         0         0         0         0
         0         0         0         0         0         0         0         0
         0         0         0         0         0         0         0         0
         0         0         0         0         0         0         0         0
         0         0         0         0         0         0         0         0
         0         0         0         0         0         0         0         0
         0         0         0         0         0         0         0         0
         0         0         0         0         0         0         0         0
         0         0         0         0         0         0         0         0
         0         0         0         0         0         0         0         0
         0         0         0         0         0         0         0         0
         0         0         0         0         0         0         0         0
         0         0         0         0         0         0         0         0
         0         0         0         0         0         0         0         0
         0         0         0         0         0         0         0         0
         0         0         0         0         0         0         0         0
         0         0         0         0         0         0         0         0
         0         0         0         0         0         0         0         0
         0         0         0         0         0         0         0         0
         0         0         0         0         0         0         0         0
         0         0         0         0         0         0         0         0
         0         0         0         0         0         0         0         0
         0         0         0         0         0         0         0         0
         0         0         0         0         0         0         0         0
         0         0         0         0         0         0         0         0
         0         0         0         0         0         0         0         0
         0         0         0         0         0         0         0         0
         0         0         0         0         0         0         0         0
         0         0         0         0         0         0         0         0
         0         0         0         0         0         0         0         0
         0         0         0         0         0         0         0         0
         0         0         0         0         0         0         0         0
         0         0         0         0         0         0         0         0
         0         0         0         0         0         0         0         0
         0         0         0         0         0         0         0         0
         0         0         0         0         0         0         0         0
         0         0         0         0         0         0         0         0
         0         0         0         0         0         0         0         0
         0         0         0         0         0         0         0         0
         0         0         0         0         0         0         0         0
         0         0         0         0         0         0         0         0
         0         0         0         0         0         0         0         0
         0         0         0         0         0         0         0         0
         0         0         0         0         0         0         0         0
         0         0         0         0         0         0         0         0
         0         0         0         0         0         0         0         0
         0         0         0         0         0         0         0         0
         0         0         0         0         0         0         0         0
         0         0         0         0         0         0         0         0
         0         0         0         0         0         0         0         0
         0         0         0         0         0         0         0         0
         0         0         0         0         0         0         0         0
         0         0         0         0         0         0         0         0
         0         0         0         0         0         0         0         0
         0         0         0         0         0         0         0         0
         0         0         0         0         0         0         0         0
         0         0         0         0         0         0         0         0
         0         0         0         0         0         0         0         0
         0         0         0         0         0         0         0         0
         0         0         0         0         0         0         0         0
         0         0         0         0         0         0         0         0
         0         0         0         0         0         0         0         0
         0         0         0         0         0         0         0         0
         0         0         0         0         0         0         0         0
         0         0         0         0         0         0         0         0
         0         0         0         0         0         0         0         0
         0         0         0         0         0         0         0         0
         0         0         0         0         0         0         0         0
         0         0         0         0         0         0         0         0
         0         0         0         0         0         0         0         0
         0         0         0         0         0         0         0         0
         0         0         0         0         0         0         0         0
         0         0         0         0         0         0         0         0
         0         0         0         0         0         0         0         0
         0         0         0         0         0         0         0         0
         0         0         0         0         0         0         0         0
         0         0         0         0         0         0         0         0
         0         0         0         0         0         0         0         0
         0         0         0         0         0         0         0         0
         0         0         0         0         0         0         0         0
         0         0         0         0         0         0         0         0
         0         0         0         0         0         0         0         0
         0         0         0         0         0         0         0         0
         0         0         0         0         0         0         0         0
         0         0         0         0         0         0         0         0
         0         0         0         0         0         0         0         0
         0         0         0         0         0         0         0         0
         0         0         0         0         0         0         0         0
         0         0         0         0         0         0         0         0
         0         0         0         0         0         0         0         0
         0         0         0         0         0         0         0         0
         0         0         0         0         0         0         0         0
         0         0         0         0         0         0         0         0
         0         0         0         0         0         0         0         0
         0         0         0         0         0         0         0         0
         0         0         0         0         0         0         0         0
         0         0         0         0         0         0         0         0
         0         0         0         0         0         0         0         0
         0         0         0         0         0         0         0         0
         0         0         0         0         0         0         0         0
         0         0         0         0         0         0         0         0
         0         0         0         0         0         0         0         0
         0         0         0         0         0         0         0         0
         0         0         0         0         0         0         0         0
         0         0         0         0         0         0         0         0
         0         0         0         0         0         0         0         0
         0         0         0         0         0         0         0         0
         0         0         0         0         0         0         0         0
         0         0         0         0         0         0         0         0
         0         0         0         0         0         0         0         0
         0         0         0         0         0         0         0         0
         0         0         0         0         0         0         0         0
         0         0         0         0         0         0         0         0
         0         0         0         0         0         0         0         0
         0         0         0         0         0         0         0         0
         0         0         0         0         0         0         0         0
         0         0         0         0         0         0         0         0
         0         0         0         0         0         0         0         0
         0         0         0         0         0         0         0         0
         0         0         0         0         0         0         0         0
         0         0         0         0         0         0         0         0
         0         0         0         0         0         0         0         0
         0         0         0         0         0         0         0         0
         0         0         0         0         0         0         0         0
         0         0         0         0         0         0         0         0
         0         0         0         0         0         0         0         0
         0         0         0         0         0         0         0         0
         0         0         0         0         0         0         0         0
         0         0         0         0         0         0         0         0
         0         0         0         0         0         0         0         0
         0         0         0         0         0         0         0         0
         0         0         0         0         0         0         0         0
         0         0         0         0         0         0         0         0
         0         0         0         0         0         0         0         0
         0         0         0         0         0         0         0         0
         0         0         0         0         0         0         0         0
         0         0         0         0         0         0         0         0
         0         0         0         0         0         0         0         0
         0         0         0         0         0         0         0         0
         0         0         0         0         0         0         0         0
         0         0         0         0         0         0         0         0
         0         0         0         0         0         0         0         0
         0         0         0         0         0         0         0         0
         0         0         0         0         0         0         0         0
         0         0         0         0         0         0         0         0
         0         0         0         0         0         0         0         0
         0         0         0         0         0         0         0         0
         0         0         0         0         0         0         0         0
         0         0         0         0         0         0         0         0
         0         0         0         0         0         0         0         0
         0         0         0         0         0         0         0         0
         0         0         0         0         0         0         0         0
         0         0         0         0         0         0         0         0
         0         0         0         0         0         0         0         0
         0         0         0         0         0         0         0         0
         0         0         0         0         0         0         0         0
         0         0         0         0         0         0         0         0
         0         0         0         0         0         0         0         0
         0         0         0         0         0         0         0         0
         0         0         0         0         0         0         0         0
         0         0         0         0         0         0         0         0
         0         0         0         0         0         0         0         0
         0         0         0         0         0         0         0         0
         0         0         0         0         0         0         0         0
         0         0         0         0         0         0         0         0
         0         0         0         0         0         0         0         0
         0         0         0         0         0         0         0         0
         0         0         0         0         0         0         0         0
         0         0         0         0         0         0         0         0
         0         0         0         0         0         0         0         0
         0         0         0         0         0         0         0         0
         0         0         0         0         0         0         0         0
         0         0         0         0         0         0         0         0
         0         0         0         0         0         0         0         0
         0         0         0         0         0         0         0         0
         0         0         0         0         0         0         0         0
         0         0         0         0         0         0         0         0
         0         0         0         0         0         0         0         0
         0         0         0         0         0         0         0         0
         0         0         0         0         0         0         0         0
         0         0         0         0         0         0         0         0
         0         0         0         0         0         0         0         0
         0         0         0         0         0         0         0         0
         0         0         0         0         0         0         0         0
         0         0         0         0         0         0         0         0
         0         0         0         0         0         0         0         0
         0         0         0         0         0         0         0         0
         0         0         0         0         0         0         0         0
         0         0         0         0         0         0         0         0
         0         0         0         0         0         0         0         0
         0         0         0         0         0         0         0         0
         0         0         0         0         0         0         0         0
         0         0         0         0         0         0         0         0
         0         0         0         0         0         0         0         0
         0         0         0         0         0         0         0         0
         0         0         0         0         0         0         0         0
         0         0         0         0         0         0         0         0
         0         0         0         0         0         0         0         0
         0         0         0         0         0         0         0         0
         0         0         0         0         0         0         0         0
         0         0         0         0         0         0         0         0
         0         0         0         0         0         0         0         0
         0         0         0         0         0         0         0         0
         0         0         0         0         0         0         0         0
         0         0         0         0         0         0         0         0
         0         0         0         0         0         0         0         0
         0         0         0         0         0         0         0         0
         0         0         0         0         0         0         0         0
         0         0         0         0         0         0         0         0
         0         0         0         0         0         0         0         0
         0         0         0         0         0         0         0         0
         0         0         0         0         0         0         0         0
         0         0         0         0         0         0         0         0
         0         0         0         0         0         0         0         0
         0         0         0         0         0         0         0         0
         0         0         0         0         0         0         0         0
         0         0         0         0         0         0         0         0
         0         0         0         0         0         0         0         0
         0         0         0         0         0         0         0         0
         0         0         0         0         0         0         0         0
         0         0         0         0         0         0         0         0
         0         0         0         0         0         0         0         0
         0         0         0         0         0         0         0         0
         0         0         0         0         0         0         0         0
         0         0         0         0         0         0         0         0
         0         0         0         0         0         0         0         0
         0         0         0         0         0         0         0         0
         0         0         0         0         0         0         0         0
         0         0         0         0         0         0         0         0
         0         0         0         0         0         0         0         0
         0         0         0         0         0         0         0         0
         0         0         0         0         0         0         0         0
         0         0         0         0         0         0         0         0
         0         0         0         0         0         0         0         0
         0         0         0         0         0         0         0         0
         0         0         0         0         0         0         0         0
         0         0         0         0         0         0         0         0
         0         0         0         0         0         0         0         0
         0         0         0         0         0         0         0         0
         0         0         0         0         0         0         0         0
         0         0         0         0         0         0         0         0
         0         0         0         0         0         0         0         0
         0         0         0         0         0         0         0         0
         0         0         0         0         0         0         0         0
         0         0         0         0         0         0         0         0
         0         0         0         0         0         0         0         0
         0         0         0         0         0         0         0         0
         0         0         0         0         0         0         0         0
         0         0         0         0         0         0         0         0
         0         0         0         0         0         0         0         0
         0         0         0         0         0         0         0         0
         0         0         0         0         0         0         0         0
         0         0         0         0         0         0         0         0
         0         0         0         0         0         0         0         0
         0         0         0         0         0         0         0         0
         0         0         0         0         0         0         0         0
         0         0         0         0         0         0         0         0
         0         0         0         0         0         0         0         0
         0         0         0         0         0         0         0         0
         0         0         0         0         0         0         0         0
         0         0         0         0         0         0         0         0
         0         0         0         0         0         0         0         0
         0         0         0         0         0         0         0         0
         0         0         0         0         0         0         0         0
         0         0         0         0         0         0         0         0
         0         0         0         0         0         0         0         0
         0         0         0         0         0         0         0         0
         0         0         0         0         0         0         0         0
         0         0         0         0         0         0         0         0
         0         0         0         0         0         0         0         0
         0         0         0         0         0         0         0         0
         0         0         0         0         0         0         0         0
         0         0         0         0         0         0         0         0
         0         0         0         0         0         0         0         0
         0         0         0         0         0         0         0         0
         0         0         0         0         0         0         0         0
         0         0         0         0         0         0         0         0
         0         0         0         0         0         0         0         0
         0         0         0         0         0         0         0         0
         0         0         0         0         0         0         0         0
         0         0         0         0         0         0         0         0
         0         0         0         0         0         0         0         0
         0         0         0         0         0         0         0         0
         0         0         0         0         0         0         0         0
         0         0         0         0         0         0         0         0
         0         0         0         0         0         0         0         0
         0         0         0         0         0         0         0         0
         0         0         0         0         0         0         0         0
         0         0         0         0         0         0         0         0
         0         0         0         0         0         0         0         0
         0         0         0         0         0         0         0         0
         0         0         0         0         0         0         0         0
         0         0         0         0         0         0         0         0
         0         0         0         0         0         0         0         0
         0         0         0         0         0         0         0         0
         0         0         0         0         0         0         0         0
         0         0         0         0         0         0         0         0
         0         0         0         0         0         0         0         0
         0         0         0         0         0         0         0         0
         0         0         0         0         0         0         0         0
         0         0         0         0         0         0         0         0
         0         0         0         0         0         0         0         0
         0         0         0         0         0         0         0         0
         0         0         0         0         0         0         0         0
         0         0         0         0         0         0         0         0
         0         0         0         0         0         0         0         0
         0         0         0         0         0         0         0         0
         0         0         0         0         0         0         0         0
         0         0         0         0         0         0         0         0
         0         0         0         0         0         0         0         0
         0         0         0         0         0         0         0         0
         0         0         0         0         0         0         0         0
         0         0         0         0         0         0         0         0
         0         0         0         0         0         0         0         0
         0         0         0         0         0         0         0         0
         0         0         0         0         0         0         0         0
         0         0         0         0         0         0         0         0
         0         0         0         0         0         0         0         0
         0         0         0         0         0         0         0         0
         0         0         0         0         0         0         0         0
         0         0         0         0         0         0         0         0
         0         0         0         0         0         0         0         0
         0         0         0         0         0         0         0         0
         0         0         0         0         0         0         0         0
         0         0         0         0         0         0         0         0
         0         0         0         0         0         0         0         0
         0         0         0         0         0         0         0         0
         0         0         0         0         0         0         0         0
         0         0         0         0         0         0         0         0
         0         0         0         0         0         0         0         0
         0         0         0         0         0         0         0         0
         0         0         0         0         0         0         0         0
         0         0         0         0         0         0         0         0
         0         0         0         0         0         0         0         0
         0         0         0         0         0         0         0         0
         0         0         0         0         0         0         0         0
         0         0         0         0         0         0         0         0
         0         0         0         0         0         0         0         0
         0         0         0         0         0         0         0         0
         0         0         0         0         0         0         0         0
         0         0         0         0         0         0         0         0
         0         0         0         0         0         0         0         0
         0         0         0         0         0         0         0         0
         0         0         0         0         0         0         0         0
         0         0         0         0         0         0         0         0
         0         0         0         0         0         0         0         0
         0         0         0         0         0         0         0         0
         0         0         0         0         0         0         0         0
         0         0         0         0         0         0         0         0
         0         0         0         0         0         0         0         0
         0         0         0         0         0         0         0         0
         0         0         0         0         0         0         0         0
         0         0         0         0         0         0         0         0
         0         0         0         0         0         0         0         0
         0         0         0         0         0         0         0         0
         0         0         0         0         0         0         0         0
         0         0         0         0         0         0         0         0
         0         0         0         0         0         0         0         0
         0         0         0         0         0         0         0         0
         0         0         0         0         0         0         0         0
         0         0         0         0         0         0         0         0
         0         0         0         0         0         0         0         0
         0         0         0         0         0         0         0         0
         0         0         0         0         0         0         0         0
         0         0         0         0         0         0         0         0
         0         0         0         0         0         0         0         0
         0         0         0         0         0         0         0         0
         0         0         0         0         0         0         0         0
         0         0         0         0         0         0         0         0
         0         0         0         0         0         0         0         0
         0         0         0         0         0         0         0         0
         0         0         0         0         0         0         0         0
         0         0         0         0         0         0         0         0
         0         0         0         0         0         0         0         0
         0         0         0         0         0         0         0         0
         0         0         0         0         0         0         0         0
         0         0         0         0         0         0         0         0
         0         0         0         0         0         0         0         0
         0         0         0         0         0         0         0         0
         0         0         0         0         0         0         0         0
         0         0         0         0         0         0         0         0
         0         0         0         0         0         0         0         0
         0         0         0         0         0         0         0         0
         0         0         0         0         0         0         0         0
         0         0         0         0         0         0         0         0
         0         0         0         0         0         0         0         0
         0         0         0         0         0         0         0         0
         0         0         0         0         0         0         0         0
         0         0         0         0         0         0         0         0
         0         0         0         0         0         0         0         0
         0         0         0         0         0         0         0         0
         0         0         0         0         0         0         0         0
         0         0         0         0         0         0         0         0
         0         0         0         0         0         0         0         0
         0         0         0         0         0         0         0         0
         0         0         0         0         0         0         0         0
         0         0         0         0         0         0         0         0
         0         0         0         0         0         0         0         0
         0         0         0         0         0         0         0         0
         0         0         0         0         0         0         0         0
         0         0         0         0         0         0         0         0
         0         0         0         0         0         0         0         0
         0         0         0         0         0         0         0         0
         0         0         0         0         0         0         0         0
         0         0         0         0         0         0         0         0
         0         0         0         0         0         0         0         0
         0         0         0         0         0         0         0         0
         0         0         0         0         0         0         0         0
         0         0         0         0         0         0         0         0
         0         0         0         0         0         0         0         0
         0         0         0         0         0         0         0         0
         0         0         0         0         0         0         0         0
         0         0         0         0         0         0         0         0
         0         0         0         0         0         0         0         0
         0         0         0         0         0         0         0         0
         0         0         0         0         0         0         0         0
         0         0         0         0         0         0         0         0
         0         0         0         0         0         0         0         0
         0         0         0         0         0         0         0         0
         0         0         0         0         0         0         0         0
         0         0         0         0         0         0         0         0
         0         0         0         0         0         0         0         0
         0         0         0         0         0         0         0         0
         0         0         0         0         0         0         0         0
         0         0         0         0         0         0         0         0
         0         0         0         0         0         0         0         0
         0         0         0         0         0         0         0         0
         0         0         0         0         0         0         0         0
         0         0         0         0         0         0         0         0
         0         0         0         0         0         0         0         0
         0         0         0         0         0         0         0         0
         0         0         0         0         0         0         0         0
         0         0         0         0         0         0         0         0
         0         0         0         0         0         0         0         0
         0         0         0         0         0         0         0         0
         0         0         0         0         0         0         0         0
         0         0         0         0         0         0         0         0
         0         0         0         0         0         0         0         0
         0         0         0         0         0         0         0         0
         0         0         0         0         0         0         0         0
         0         0         0         0         0         0         0         0
         0         0         0         0         0         0         0         0
         0         0         0         0         0         0         0         0
         0         0         0         0         0         0         0         0
         0         0         0         0         0         0         0         0
         0         0         0         0         0         0         0         0
         0         0         0         0         0         0         0         0
         0         0         0         0         0         0         0         0
         0         0         0         0         0         0         0         0
         0         0         0         0         0         0         0         0
         0         0         0         0         0         0         0         0
         0         0         0         0         0         0         0         0
         0         0         0         0         0         0         0         0
         0         0         0         0         0         0         0         0
         0         0         0         0         0         0         0         0
         0         0         0         0         0         0         0         0
         0         0         0         0         0         0         0         0
         0         0         0         0         0         0         0         0
         0         0         0         0         0         0         0         0
         0         0         0         0         0         0         0         0
         0         0         0         0         0         0         0         0
         0         0         0         0         0         0         0         0
         0         0         0         0         0         0         0         0
         0         0         0         0         0         0         0         0
         0         0         0         0         0         0         0         0
         0         0         0         0         0         0         0         0
         0         0         0         0         0         0         0         0
         0         0         0         0         0         0         0         0
         0         0         0         0         0         0         0         0
         0         0         0         0         0         0         0         0
         0         0         0         0         0         0         0         0
         0         0         0         0         0         0         0         0
         0         0         0         0         0         0         0         0
         0         0         0         0         0         0         0         0
         0         0         0         0         0         0         0         0
         0         0         0         0         0         0         0         0
         0         0         0         0         0         0         0         0
         0         0         0         0         0         0         0         0
         0         0         0         0         0         0         0         0
         0         0         0         0         0         0         0         0
         0         0         0         0         0         0         0         0
         0         0         0         0         0         0         0         0
         0         0         0         0         0         0         0         0
         0         0         0         0         0         0         0         0
         0         0         0         0         0         0         0         0
         0         0         0         0         0         0         0         0
         0         0         0         0         0         0         0         0
         0         0         0         0         0         0         0         0
         0         0         0         0         0         0         0         0
         0         0         0         0         0         0         0         0
         0         0         0         0         0         0         0         0
         0         0         0         0         0         0         0         0
         0         0         0         0         0         0         0         0
         0         0         0         0         0         0         0         0
         0         0         0         0         0         0         0         0
         0         0         0         0         0         0         0         0
         0         0         0         0         0         0         0         0
         0         0         0         0         0         0         0         0
         0         0         0         0         0         0         0         0
         0         0         0         0         0         0         0         0
         0         0         0         0         0         0         0         0
         0         0         0         0         0         0         0         0
         0         0         0         0         0         0         0         0
         0         0         0         0         0         0         0         0
         0         0         0         0         0         0         0         0
         0         0         0         0         0         0         0         0
         0         0         0         0         0         0         0         0
         0         0         0         0         0         0         0         0
         0         0         0         0         0         0         0         0
         0         0         0         0         0         0         0         0
         0         0         0         0         0         0         0         0
         0         0         0         0         0         0         0         0
         0         0         0         0         0         0         0         0
         0         0         0         0         0         0         0         0
         0         0         0         0         0         0         0         0
         0         0         0         0         0         0         0         0
         0         0         0         0         0         0         0         0
         0         0         0         0         0         0         0         0
         0         0         0         0         0         0         0         0
         0         0         0         0         0         0         0         0
         0         0         0         0         0         0         0         0
         0         0         0         0         0         0         0         0
         0         0         0         0         0         0         0         0
         0         0         0         0         0         0         0         0
         0         0         0         0         0         0         0         0
         0         0         0         0         0         0         0         0
         0         0         0         0         0         0         0         0
         0         0         0         0         0         0         0         0
         0         0         0         0         0         0         0         0
         0         0         0         0         0         0         0         0
         0         0         0         0         0         0         0         0
         0         0         0         0         0         0         0         0
         0         0         0         0         0         0         0         0
         0         0         0         0         0         0         0         0
         0         0         0         0         0         0         0         0
         0         0         0         0         0         0         0         0
         0         0         0         0         0         0         0         0
         0         0         0         0         0         0         0         0
         0         0         0         0         0         0         0         0
         0         0         0         0         0         0         0         0
         0         0         0         0         0         0         0         0
         0         0         0         0         0         0         0         0
         0         0         0         0         0         0         0         0
         0         0         0         0         0         0         0         0
         0         0         0         0         0         0         0         0
         0         0         0         0         0         0         0         0
         0         0         0         0         0         0         0         0
         0         0         0         0         0         0         0         0
         0         0         0         0         0         0         0         0
         0         0         0         0         0         0         0         0
         0         0         0         0         0         0         0         0
         0         0         0         0         0         0         0         0
         0         0         0         0         0         0         0         0
         0         0         0         0         0         0         0         0
         0         0         0         0         0         0         0         0
         0         0         0         0         0         0         0         0
         0         0         0         0         0         0         0         0
         0         0         0         0         0         0         0         0
         0         0         0         0         0         0         0         0
         0         0         0         0         0         0         0         0
         0         0         0         0         0         0         0         0
         0         0         0         0         0         0         0         0
         0         0         0         0         0         0         0         0
         0         0         0         0         0         0         0         0
         0         0         0         0         0         0         0         0
         0         0         0         0         0         0         0         0
         0         0         0         0         0         0         0         0
         0         0         0         0         0         0         0         0
         0         0         0         0         0         0         0         0
         0         0         0         0         0         0         0         0
         0         0         0         0         0         0         0         0
         0         0         0         0         0         0         0         0
         0         0         0         0         0         0         0         0
         0         0         0         0         0         0         0         0
         0         0         0         0         0         0         0         0
         0         0         0         0         0         0         0         0
         0         0         0         0         0         0         0         0
         0         0         0         0         0         0         0         0
         0         0         0         0         0         0         0         0
         0         0         0         0         0         0         0         0
         0         0         0         0         0         0         0         0
         0         0         0         0         0         0         0         0
         0         0         0         0         0         0         0         0
         0         0         0         0         0         0         0         0
         0         0         0         0         0         0         0         0
         0         0         0         0         0         0         0         0
         0         0         0         0         0         0         0         0
         0         0         0         0         0         0         0         0
         0         0         0         0         0         0         0         0
         0         0         0         0         0         0         0         0
         0         0         0         0         0         0         0         0
         0         0         0         0         0         0         0         0
         0         0         0         0         0         0         0         0
         0         0         0         0         0         0         0         0
         0         0         0         0         0         0         0         0
         0         0         0         0         0         0         0         0
         0         0         0         0         0         0         0         0
         0         0         0         0         0         0         0         0
         0         0         0         0         0         0         0         0
         0         0         0         0         0         0         0         0
         0         0         0         0         0         0         0         0
         0         0         0         0         0         0         0         0
         0         0         0         0         0         0         0         0
         0         0         0         0         0         0         0         0
         0         0         0         0         0         0         0         0
         0         0         0         0         0         0         0         0
         0         0         0         0         0         0         0         0
         0         0         0         0         0         0         0         0
         0         0         0         0         0         0         0         0
         0         0         0         0         0         0         0         0
         0         0         0         0         0         0         0         0
         0         0         0         0         0         0         0         0
         0         0         0         0         0         0         0         0
         0         0         0         0         0         0         0         0
         0         0         0         0         0         0         0         0
         0         0         0         0         0         0         0         0
         0         0         0         0         0         0         0         0
         0         0         0         0         0         0         0         0
         0         0         0         0         0         0         0         0
         0         0         0         0         0         0         0         0
         0         0         0         0         0         0         0         0
         0         0         0         0         0         0         0         0
         0         0         0         0         0         0         0         0
         0         0         0         0         0         0         0         0
         0         0         0         0         0         0         0         0
         0         0         0         0         0         0         0         0
         0         0         0         0         0         0         0         0
         0         0         0         0         0         0         0         0
         0         0         0         0         0         0         0         0
         0         0         0         0         0         0         0         0
         0         0         0         0         0         0         0         0
         0         0         0         0         0         0         0         0
         0         0         0         0         0         0         0         0
         0         0         0         0         0         0         0         0
         0         0         0         0         0         0         0         0
         0         0         0         0         0         0         0         0
         0         0         0         0         0         0         0         0
         0         0         0         0         0         0         0         0
         0         0         0         0         0         0         0         0
         0         0         0         0         0         0         0         0
         0         0         0         0         0         0         0         0
         0         0         0         0         0         0         0         0
         0         0         0         0         0         0         0         0
         0         0         0         0         0         0         0         0
         0         0         0         0         0         0         0         0
         0         0         0         0         0         0         0         0
         0         0         0         0         0         0         0         0
         0         0         0         0         0         0         0         0
         0         0         0         0         0         0         0         0
         0         0         0         0         0         0         0         0
         0         0         0         0         0         0         0         0
         0         0         0         0         0         0         0         0
         0         0         0         0         0         0         0         0
         0         0         0         0         0         0         0         0
         0         0         0         0         0         0         0         0
         0         0         0         0         0         0         0         0
         0         0         0         0         0         0         0         0
         0         0         0         0         0         0         0         0
         0         0         0         0         0         0         0         0
         0         0         0         0         0         0         0         0
         0         0         0         0         0         0         0         0
         0         0         0         0         0         0         0         0
         0         0         0         0         0         0         0         0
         0         0         0         0         0         0         0         0
         0         0         0         0         0         0         0         0
         0         0         0         0         0         0         0         0
         0         0         0         0         0         0         0         0
         0         0         0         0         0         0         0         0
         0         0         0         0         0         0         0         0
         0         0         0         0         0         0         0         0
         0         0         0         0         0         0         0         0
         0         0         0         0         0         0         0         0
         0         0         0         0         0         0         0         0
         0         0         0         0         0         0         0         0
         0         0         0         0         0         0         0         0
         0         0         0         0         0         0         0         0
         0         0         0         0         0         0         0         0
         0         0         0         0         0         0         0         0
         0         0         0         0         0         0         0         0
         0         0         0         0         0         0         0         0
         0         0         0         0         0         0         0         0
         0         0         0         0         0         0         0         0
         0         0         0         0         0         0         0         0
         0         0         0         0         0         0         0         0
         0         0         0         0         0         0         0         0
         0         0         0         0         0         0         0         0
         0         0         0         0         0         0         0         0
         0         0         0         0         0         0         0         0
         0         0         0         0         0         0         0         0
         0         0         0         0         0         0         0         0
         0         0         0         0         0         0         0         0
         0         0         0         0         0         0         0         0
         0         0         0         0         0         0         0         0
         0         0         0         0         0         0         0         0
         0         0         0         0         0         0         0         0
         0         0         0         0         0         0         0         0
         0         0         0         0         0         0         0         0
         0         0         0         0         0         0         0         0
         0         0         0         0         0         0         0         0
         0         0         0         0         0         0         0         0
         0         0         0         0         0         0         0         0
         0         0         0         0         0         0         0         0
         0         0         0         0         0         0         0         0
         0         0         0         0         0         0         0         0
         0         0         0         0         0         0         0         0
         0         0         0         0         0         0         0         0
         0         0         0         0         0         0         0         0
         0         0         0         0         0         0         0         0
         0         0         0         0         0         0         0         0
         0         0         0         0         0         0         0         0
         0         0         0         0         0         0         0         0
         0         0         0         0         0         0         0         0
         0         0         0         0         0         0         0         0
         0         0         0         0         0         0         0         0
         0         0         0         0         0         0         0         0
         0         0         0         0         0         0         0         0
         0         0         0         0         0         0         0         0
         0         0         0         0         0         0         0         0
         0         0         0         0         0         0         0         0
         0         0         0         0         0         0         0         0
         0         0         0         0         0         0         0         0
         0         0         0         0         0         0         0         0
         0         0         0         0         0         0         0         0
         0         0         0         0         0         0         0         0
         0         0         0         0         0         0         0         0
         0         0         0         0         0         0         0         0
         0         0         0         0         0         0         0         0
         0         0         0         0         0         0         0         0
         0         0         0         0         0         0         0         0
         0         0         0         0         0         0         0         0
         0         0         0         0         0         0         0         0
         0         0         0         0         0         0         0         0
         0         0         0         0         0         0         0         0
         0         0         0         0         0         0         0         0
         0         0         0         0         0         0         0         0
         0         0         0         0         0         0         0         0
         0         0         0         0         0         0         0         0
         0         0         0         0         0         0         0         0
         0         0         0         0         0         0         0         0
         0         0         0         0         0         0         0         0
         0         0         0         0         0         0         0         0
         0         0         0         0         0         0         0         0
         0         0         0         0         0         0         0         0
         0         0         0         0         0         0         0         0
         0         0         0         0         0         0         0         0
         0         0         0         0         0         0         0         0
         0         0         0         0         0         0         0         0
         0         0         0         0         0         0         0         0
         0         0         0         0         0         0         0         0
         0         0         0         0         0         0         0         0
         0         0         0         0         0         0         0         0
         0         0         0         0         0         0         0         0
         0         0         0         0         0         0         0         0
         0         0         0         0         0         0         0         0
         0         0         0         0         0         0         0         0
         0         0         0         0         0         0         0         0
         0         0         0         0         0         0         0         0
         0         0         0         0         0         0         0         0
         0         0         0         0         0         0         0         0
         0         0         0         0         0         0         0         0
         0         0         0         0         0         0         0         0
         0         0         0         0         0         0         0         0
         0         0         0         0         0         0         0         0
         0         0         0         0         0         0         0         0
         0         0         0         0         0         0         0         0
         0         0         0         0         0         0         0         0
         0         0         0         0         0         0         0         0
         0         0         0         0         0         0         0         0
         0         0         0         0         0         0         0         0
         0         0         0         0         0         0         0         0
         0         0         0         0         0         0         0         0
         0         0         0         0         0         0         0         0
         0         0         0         0         0         0         0         0
         0         0         0         0         0         0         0         0
         0         0         0         0         0         0         0         0
         0         0         0         0         0         0         0         0
         0         0         0         0         0         0         0         0
         0         0         0         0         0         0         0         0
         0         0         0         0         0         0         0         0
         0         0         0         0         0         0         0         0
         0         0         0         0         0         0         0         0
         0         0         0         0         0         0         0         0
         0         0         0         0         0         0         0         0
         0         0         0         0         0         0         0         0
         0         0         0         0         0         0         0         0
         0         0         0         0         0         0         0         0
         0         0         0         0         0         0         0         0
         0         0         0         0         0         0         0         0
         0         0         0         0         0         0         0         0
         0         0         0         0         0         0         0         0
         0         0         0         0         0         0         0         0
         0         0         0         0         0         0         0         0
         0         0         0         0         0         0         0         0
         0         0         0         0         0         0         0         0
         0         0         0         0         0         0         0         0
         0         0         0         0         0         0         0         0
         0         0         0         0         0         0         0         0
         0         0         0         0         0         0         0         0
         0         0         0         0         0         0         0         0
         0         0         0         0         0         0         0         0
         0         0         0         0         0         0         0         0
         0         0         0         0         0         0         0         0
         0         0         0         0         0         0         0         0
         0         0         0         0         0         0         0         0
         0         0         0         0         0         0         0         0
         0         0         0         0         0         0         0         0
         0         0         0         0         0         0         0         0
         0         0         0         0         0         0         0         0
         0         0         0         0         0         0         0         0
         0         0         0         0         0         0         0         0
         0         0         0         0         0         0         0         0
         0         0         0         0         0         0         0         0
         0         0         0         0         0         0         0         0
         0         0         0         0         0         0         0         0
         0         0         0         0         0         0         0         0
         0         0         0         0         0         0         0         0
         0         0         0         0         0         0         0         0
         0         0         0         0         0         0         0         0
         0         0         0         0         0         0         0         0
         0         0         0         0         0         0         0         0
         0         0         0         0         0         0         0         0
         0         0         0         0         0         0         0         0
         0         0         0         0         0         0         0         0
         0         0         0         0         0         0         0         0
         0         0         0         0         0         0         0         0
         0         0         0         0         0         0         0         0
         0         0         0         0         0         0         0         0
         0         0         0         0         0         0         0         0
         0         0         0         0         0         0         0         0
         0         0         0         0         0         0         0         0
         0         0         0         0         0         0         0         0
         0         0         0         0         0         0         0         0
         0         0         0         0         0         0         0         0
         0         0         0         0         0         0         0         0
         0         0         0         0         0         0         0         0
         0         0         0         0         0         0         0         0
         0         0         0         0         0         0         0         0
         0         0         0         0         0         0         0         0
         0         0         0         0         0         0         0         0
         0         0         0         0         0         0         0         0
         0         0         0         0         0         0         0         0
         0         0         0         0         0         0         0         0
         0         0         0         0         0         0         0         0
         0         0         0         0         0         0         0         0
         0         0         0         0         0         0         0         0
         0         0         0         0         0         0         0         0
         0         0         0         0         0         0         0         0
         0         0         0         0         0         0         0         0
         0         0         0         0         0         0         0         0
         0         0         0         0         0         0         0         0
         0         0         0         0         0         0         0         0
         0         0         0         0         0         0         0         0
         0         0         0         0         0         0         0         0
         0         0         0         0         0         0         0         0
         0         0         0         0         0         0         0         0
         0         0         0         0         0         0         0         0
         0         0         0         0         0         0         0         0
         0         0         0         0         0         0         0         0
         0         0         0         0         0         0         0         0
         0         0         0         0         0         0         0         0
         0         0         0         0         0         0         0         0
         0         0         0         0         0         0         0         0
         0         0         0         0         0         0         0         0
         0         0         0         0         0         0         0         0
         0         0         0         0         0         0         0         0
         0         0         0         0         0         0         0         0
         0         0         0         0         0         0         0         0
         0         0         0         0         0         0         0         0
         0         0         0         0         0         0         0         0
         0         0         0         0         0         0         0         0
         0         0         0         0         0         0         0         0
         0         0         0         0         0         0         0         0
         0         0         0         0         0         0         0         0
         0         0         0         0         0         0         0         0
         0         0         0         0         0         0         0         0
         0         0         0         0         0         0         0         0
         0         0         0         0         0         0         0         0
         0         0         0         0         0         0         0         0
         0         0         0         0         0         0         0         0
         0         0         0         0         0         0         0         0
         0         0         0         0         0         0         0         0
         0         0         0         0         0         0         0         0
         0         0         0         0         0         0         0         0
         0         0         0         0         0         0         0         0
         0         0         0         0         0         0         0         0
         0         0         0         0         0         0         0         0
         0         0         0         0         0         0         0         0
         0         0         0         0         0         0         0         0
         0         0         0         0         0         0         0         0
         0         0         0         0         0         0         0         0
         0         0         0         0         0         0         0         0
         0         0         0         0         0         0         0         0
         0         0         0         0         0         0         0         0
         0         0         0         0         0         0         0         0
         0         0         0         0         0         0         0         0
         0         0         0         0         0         0         0         0
         0         0         0         0         0         0         0         0
         0         0         0         0         0         0         0         0
         0         0         0         0         0         0         0         0
         0         0         0         0         0         0         0         0
         0         0         0         0         0         0         0         0
         0         0         0         0         0         0         0         0
         0         0         0         0         0         0         0         0
         0         0         0         0         0         0         0         0
         0         0         0         0         0         0         0         0
         0         0         0         0         0         0         0         0
         0         0         0         0         0         0         0         0
         0         0         0         0         0         0         0         0
         0         0         0         0         0         0         0         0
         0         0         0         0         0         0         0         0
         0         0         0         0         0         0         0         0
         0         0         0         0         0         0         0         0
         0         0         0         0         0         0         0         0
         0         0         0         0         0         0         0         0
         0         0         0         0         0         0         0         0
         0         0         0         0         0         0         0         0
         0         0         0         0         0         0         0         0
         0         0         0         0         0         0         0         0
         0         0         0         0         0         0         0         0
         0         0         0         0         0         0         0         0
         0         0         0         0         0         0         0         0
         0         0         0         0         0         0         0         0
         0         0         0         0         0         0         0         0
         0         0         0         0         0         0         0         0
         0         0         0         0         0         0         0         0
         0         0         0         0         0         0         0         0
         0         0         0         0         0         0         0         0
         0         0         0         0         0         0         0         0
         0         0         0         0         0         0         0         0
         0         0         0         0         0         0         0         0
         0         0         0         0         0         0         0         0
         0         0         0         0         0         0         0         0
         0         0         0         0         0         0         0         0
         0         0         0         0         0         0         0         0
         0         0         0         0         0         0         0         0
         0         0         0         0         0         0         0         0
         0         0         0         0         0         0         0         0
         0         0         0         0         0         0         0         0
         0         0         0         0         0         0         0         0
         0         0         0         0         0         0         0         0
         0         0         0         0         0         0         0         0
         0         0         0         0         0         0         0         0
         0         0         0         0         0         0         0         0
         0         0         0         0         0         0         0         0
         0         0         0         0         0         0         0         0
         0         0         0         0         0         0         0         0
         0         0         0         0         0         0         0         0
         0         0         0         0         0         0         0         0
         0         0         0         0         0         0         0         0
         0         0         0         0         0         0         0         0
         0         0         0         0         0         0         0         0
         0         0         0         0         0         0         0         0
         0         0         0         0         0         0         0         0
         0         0         0         0         0         0         0         0
         0         0         0         0         0         0         0         0
         0         0         0         0         0         0         0         0
         0         0         0         0         0         0         0         0
         0         0         0         0         0         0         0         0
         0         0         0         0         0         0         0         0
         0         0         0         0         0         0         0         0
         0         0         0         0         0         0         0         0
         0         0         0         0         0         0         0         0
         0         0         0         0         0         0         0         0
         0         0         0         0         0         0         0         0
         0         0         0         0         0         0         0         0
         0         0         0         0         0         0         0         0
         0         0         0         0         0         0         0         0
         0         0         0         0         0         0         0         0
         0         0         0         0         0         0         0         0
         0         0         0         0         0         0         0         0
         0         0         0         0         0         0         0         0
         0         0         0         0         0         0         0         0
         0         0         0         0         0         0         0         0
         0         0         0         0         0         0         0         0
         0         0         0         0         0         0         0         0
         0         0         0         0         0         0         0         0
         0         0         0         0         0         0         0         0
         0         0         0         0         0         0         0         0
         0         0         0         0         0         0         0         0
         0         0         0         0         0         0         0         0
         0         0         0         0         0         0         0         0
         0         0         0         0         0         0         0         0
         0         0         0         0         0         0         0         0
         0         0         0         0         0         0         0         0
         0         0         0         0         0         0         0         0
         0         0         0         0         0         0         0         0
         0         0         0         0         0         0         0         0
         0         0         0         0         0         0         0         0
         0         0         0         0         0         0         0         0
         0         0         0         0         0         0         0         0
         0         0         0         0         0         0         0         0
         0         0         0         0         0         0         0         0
         0         0         0         0         0         0         0         0
         0         0         0         0         0         0         0         0
         0         0         0         0         0         0         0         0
         0         0         0         0         0         0         0         0
         0         0         0         0         0         0         0         0
         0         0         0         0         0         0         0         0
         0         0         0         0         0         0         0         0
         0         0         0         0         0         0         0         0
         0         0         0         0         0         0         0         0
         0         0         0         0         0         0         0         0
         0         0         0         0         0         0         0         0
         0         0         0         0         0         0         0         0
         0         0         0         0         0         0         0         0
         0         0         0         0         0         0         0         0
         0         0         0         0         0         0         0         0
         0         0         0         0         0         0         0         0
         0         0         0         0         0         0         0         0
         0         0         0         0         0         0         0         0
         0         0         0         0         0         0         0         0
         0         0         0         0         0         0         0         0
         0         0         0         0         0         0         0         0
         0         0         0         0         0         0         0         0
         0         0         0         0         0         0         0         0
         0         0         0         0         0         0         0         0
         0         0         0         0         0         0         0         0
         0         0         0         0         0         0         0         0
         0         0         0         0         0         0         0         0
         0         0         0         0         0         0         0         0
         0         0         0         0         0         0         0         0
         0         0         0         0         0         0         0         0
         0         0         0         0         0         0         0         0
         0         0         0         0         0         0         0         0
         0         0         0         0         0         0         0         0
         0         0         0         0         0         0         0         0
         0         0         0         0         0         0         0         0
         0         0         0         0         0         0         0         0
         0         0         0         0         0         0         0         0
         0         0         0         0         0         0         0         0
         0         0         0         0         0         0         0         0
         0         0         0         0         0         0         0         0
         0         0         0         0         0         0         0         0
         0         0         0         0         0         0         0         0
         0         0         0         0         0         0         0         0
         0         0         0         0         0         0         0         0
         0         0         0         0         0         0         0         0
         0         0         0         0         0         0         0         0
         0         0         0         0         0         0         0         0
         0         0         0         0         0         0         0         0
         0         0         0         0         0         0         0         0
         0         0         0         0         0         0         0         0
         0         0         0         0         0         0         0         0
         0         0         0         0         0         0         0         0
         0         0         0         0         0         0         0         0
         0         0         0         0         0         0         0         0
         0         0         0         0         0         0         0         0
         0         0         0         0         0         0         0         0
         0         0         0         0         0         0         0         0
         0         0         0         0         0         0         0         0
         0         0         0         0         0         0         0         0
         0         0         0         0         0         0         0         0
         0         0         0         0         0         0         0         0
         0         0         0         0         0         0         0         0
         0         0         0         0         0         0         0         0
         0         0         0         0         0         0         0         0
         0         0         0         0         0         0         0         0
         0         0         0         0         0         0         0         0
         0         0         0         0         0         0         0         0
         0         0         0         0         0         0         0         0
         0         0         0         0         0         0         0         0
         0         0         0         0         0         0         0         0
         0         0         0         0         0         0         0         0
         0         0         0         0         0         0         0         0
         0         0         0         0         0         0         0         0
         0         0         0         0         0         0         0         0
         0         0         0         0         0         0         0         0
         0         0         0         0         0         0         0         0
         0         0         0         0         0         0         0         0
         0         0         0         0         0         0         0         0
         0         0         0         0         0         0         0         0
         0         0         0         0         0         0         0         0
         0         0         0         0         0         0         0         0
         0         0         0         0         0         0         0         0
         0         0         0         0         0         0         0         0
         0         0         0         0         0         0         0         0
         0         0         0         0         0         0         0         0
         0         0         0         0         0         0         0         0
         0         0         0         0         0         0         0         0
         0         0         0         0         0         0         0         0
         0         0         0         0         0         0         0         0
         0         0         0         0         0         0         0         0
         0         0         0         0         0         0         0         0
         0         0         0         0         0         0         0         0
         0         0         0         0         0         0         0         0
         0         0         0         0         0         0         0         0
         0         0         0         0         0         0         0         0
         0         0         0         0         0         0         0         0
         0         0         0         0         0         0         0         0
         0         0         0         0         0         0         0         0
         0         0         0         0         0         0         0         0
         0         0         0         0         0         0         0         0
         0         0         0         0         0         0         0         0
         0         0         0         0         0         0         0         0
         0         0         0         0         0         0         0         0
         0         0         0         0         0         0         0         0
         0         0         0         0         0         0         0         0
         0         0         0         0         0         0         0         0
         0         0         0         0         0         0         0         0
         0         0         0         0         0         0         0         0
         0         0         0         0         0         0         0         0
         0         0         0         0         0         0         0         0
         0         0         0         0         0         0         0         0
         0         0         0         0         0         0         0         0
         0         0         0         0         0         0         0         0
         0         0         0         0         0         0         0         0
         0         0         0         0         0         0         0         0
         0         0         0         0         0         0         0         0
         0         0         0         0         0         0         0         0
         0         0         0         0         0         0         0         0
         0         0         0         0         0         0         0         0
         0         0         0         0         0         0         0         0
         0         0         0         0         0         0         0         0
         0         0         0         0         0         0         0         0
         0         0         0         0         0         0         0         0
         0         0         0         0         0         0         0         0
         0         0         0         0         0         0         0         0
         0         0         0         0         0         0         0         0
         0         0         0         0         0         0         0         0
         0         0         0         0         0         0         0         0
         0         0         0         0         0         0         0         0
         0         0         0         0         0         0         0         0
         0         0         0         0         0         0         0         0
         0         0         0         0         0         0         0         0
         0         0         0         0         0         0         0         0
         0         0         0         0         0         0         0         0
         0         0         0         0         0         0         0         0
         0         0         0         0         0         0         0         0
         0         0         0         0         0         0         0         0
         0         0         0         0         0         0         0         0
         0         0         0         0         0         0         0         0
         0         0         0         0         0         0         0         0
         0         0         0         0         0         0         0         0
         0         0         0         0         0         0         0         0
         0         0         0         0         0         0         0         0
         0         0         0         0         0         0         0         0
         0         0         0         0         0         0         0         0
         0         0         0         0         0         0         0         0
         0         0         0         0         0         0         0         0
         0         0         0         0         0         0         0         0
         0         0         0         0         0         0         0         0
         0         0         0         0         0         0         0         0
         0         0         0         0         0         0         0         0
         0         0         0         0         0         0         0         0
         0         0         0         0         0         0         0         0
         0         0         0         0         0         0         0         0
         0         0         0         0         0         0         0         0
         0         0         0         0         0         0         0         0
         0         0         0         0         0         0         0         0
         0         0         0         0         0         0         0         0
         0         0         0         0         0         0         0         0
         0         0         0         0         0         0         0         0
         0         0         0         0         0         0         0         0
         0         0         0         0         0         0         0         0
         0         0         0         0         0         0         0         0
         0         0         0         0         0         0         0         0
         0         0         0         0         0         0         0         0
         0         0         0         0         0         0         0         0
         0         0         0         0         0         0         0         0
         0         0         0         0         0         0         0         0
         0         0         0         0         0         0         0         0
         0         0         0         0         0         0         0         0
         0         0         0         0         0         0         0         0
         0         0         0         0         0         0         0         0
         0         0         0         0         0         0         0         0
         0         0         0         0         0         0         0         0
         0         0         0         0         0         0         0         0
         0         0         0         0         0         0         0         0
         0         0         0         0         0         0         0         0
         0         0         0         0         0         0         0         0
         0         0         0         0         0         0         0         0
         0         0         0         0         0         0         0         0
         0         0         0         0         0         0         0         0
         0         0         0         0         0         0         0         0
         0         0         0         0         0         0         0         0
         0         0         0         0         0         0         0         0
         0         0         0         0         0         0         0         0
         0         0         0         0         0         0         0         0
         0         0         0         0         0         0         0         0
         0         0         0         0         0         0         0         0
         0         0         0         0         0         0         0         0
         0         0         0         0         0         0         0         0
         0         0         0         0         0         0         0         0
         0         0         0         0         0         0         0         0
         0         0         0         0         0         0         0         0
         0         0         0         0         0         0         0         0
         0         0         0         0         0         0         0         0
         0         0         0         0         0         0         0         0
         0         0         0         0         0         0         0         0
         0         0         0         0         0         0         0         0
         0         0         0         0         0         0         0         0
         0         0         0         0         0         0         0         0
         0         0         0         0         0         0         0         0
         0         0         0         0         0         0         0         0
         0         0         0         0         0         0         0         0
         0         0         0         0         0         0         0         0
         0         0         0         0         0         0         0         0
         0         0         0         0         0         0         0         0
         0         0         0         0         0         0         0         0
         0         0         0         0         0         0         0         0
         0         0         0         0         0         0         0         0
         0         0         0         0         0         0         0         0
         0         0         0         0         0         0         0         0
         0         0         0         0         0         0         0         0
         0         0         0         0         0         0         0         0
         0         0         0         0         0         0         0         0
         0         0         0         0         0         0         0         0
         0         0         0         0         0         0         0         0
         0         0         0         0         0         0         0         0
         0         0         0         0         0         0         0         0
         0         0         0         0         0         0         0         0
         0         0         0         0         0         0         0         0
         0         0         0         0         0         0         0         0
         0         0         0         0         0         0         0         0
         0         0         0         0         0         0         0         0
         0         0         0         0         0         0         0         0
         0         0         0         0         0         0         0         0
         0         0         0         0         0         0         0         0
         0         0         0         0         0         0         0         0
         0         0         0         0         0         0         0         0
         0         0         0         0         0         0         0         0
         0         0         0         0         0         0         0         0
         0         0         0         0         0         0         0         0
         0         0         0         0         0         0         0         0
         0         0         0         0         0         0         0         0
         0         0         0         0         0         0         0         0
         0         0         0         0         0         0         0         0
         0         0         0         0         0         0         0         0
         0         0         0         0         0         0         0         0
         0         0         0         0         0         0         0         0
         0         0         0         0         0         0         0         0
         0         0         0         0         0         0         0         0
         0         0         0         0         0         0         0         0
         0         0         0         0         0         0         0         0
         0         0         0         0         0         0         0         0
         0         0         0         0         0         0         0         0
         0         0         0         0         0         0         0         0
         0         0         0         0         0         0         0         0
         0         0         0         0         0         0         0         0
         0         0         0         0         0         0         0         0
         0         0         0         0         0         0         0         0
         0         0         0         0         0         0         0         0
         0         0         0         0         0         0         0         0
         0         0         0         0         0         0         0         0
         0         0         0         0         0         0         0         0
         0         0         0         0         0         0         0         0
         0         0         0         0         0         0         0         0
         0         0         0         0         0         0         0         0
         0         0         0         0         0         0         0         0
         0         0         0         0         0         0         0         0
         0         0         0         0         0         0         0         0
         0         0         0         0         0         0         0         0
         0         0         0         0         0         0         0         0
         0         0         0         0         0         0         0         0
         0         0         0         0         0         0         0         0
         0         0         0         0         0         0         0         0
         0         0         0         0         0         0         0         0
         0         0         0         0         0         0         0         0
         0         0         0         0         0         0         0         0
         0         0         0         0         0         0         0         0
         0         0         0         0         0         0         0         0
         0         0         0         0         0         0         0         0
         0         0         0         0         0         0         0         0
         0         0         0         0         0         0         0         0
         0         0         0         0         0         0         0         0
         0         0         0         0         0         0         0         0
         0         0         0         0         0         0         0         0
         0         0         0         0         0         0         0         0
         0         0         0         0         0         0         0         0
         0         0         0         0         0         0         0         0
         0         0         0         0         0         0         0         0
         0         0         0         0         0         0         0         0
         0         0         0         0         0         0         0         0
         0         0         0         0         0         0         0         0
         0         0         0         0         0         0         0         0
         0         0         0         0         0         0         0         0
         0         0         0         0         0         0         0         0
         0         0         0         0         0         0         0         0
         0         0         0         0         0         0         0         0
         0         0         0         0         0         0         0         0
         0         0         0         0         0         0         0         0
         0         0         0         0         0         0         0         0
         0         0         0         0         0         0         0         0
         0         0         0         0         0         0         0         0
         0         0         0         0         0         0         0         0
         0         0         0         0         0         0         0         0
         0         0         0         0         0         0         0         0
         0         0         0         0         0         0         0         0
         0         0         0         0         0         0         0         0
         0         0         0         0         0         0         0         0
         0         0         0         0         0         0         0         0
         0         0         0         0         0         0         0         0
         0         0         0         0         0         0         0         0
         0         0         0         0         0         0         0         0
         0         0         0         0         0         0         0         0
         0         0         0         0         0         0         0         0
         0         0         0         0         0         0         0         0
         0         0         0         0         0         0         0         0
         0         0         0         0         0         0         0         0
         0         0         0         0         0         0         0         0
         0         0         0         0         0         0         0         0
         0         0         0         0         0         0         0         0
         0         0         0         0         0         0         0         0
         0         0         0         0         0         0         0         0
         0         0         0         0         0         0         0         0
         0         0         0         0         0         0         0         0
         0         0         0         0         0         0         0         0
         0         0         0         0         0         0         0         0
         0         0         0         0         0         0         0         0
         0         0         0         0         0         0         0         0
         0         0         0         0         0         0         0         0
         0         0         0         0         0         0         0         0
         0         0         0         0         0         0         0         0
         0         0         0         0         0         0         0         0
         0         0         0         0         0         0         0         0
         0         0         0         0         0         0         0         0
         0         0         0         0         0         0         0         0
         0         0         0         0         0         0         0         0
         0         0         0         0         0         0         0         0
         0         0         0         0         0         0         0         0
         0         0         0         0         0         0         0         0
         0         0         0         0         0         0         0         0
         0         0         0         0         0         0         0         0
         0         0         0         0         0         0         0         0
         0         0         0         0         0         0         0         0
         0         0         0         0         0         0         0         0
         0         0         0         0         0         0         0         0
         0         0         0         0         0         0         0         0
         0         0         0         0         0         0         0         0
         0         0         0         0         0         0         0         0
         0         0         0         0         0         0         0         0
         0         0         0         0         0         0         0         0
         0         0         0         0         0         0         0         0
         0         0         0         0         0         0         0         0
         0         0         0         0         0         0         0         0
         0         0         0         0         0         0         0         0
         0         0         0         0         0         0         0         0
         0         0         0         0         0         0         0         0
         0         0         0         0         0         0         0         0
         0         0         0         0         0         0         0         0
         0         0         0         0         0         0         0         0
         0         0         0         0         0         0         0         0
         0         0         0         0         0         0         0         0
         0         0         0         0         0         0         0         0
         0         0         0         0         0         0         0         0
         0         0         0         0         0         0         0         0
         0         0         0         0         0         0         0         0
         0         0         0         0         0         0         0         0
         0         0         0         0         0         0         0         0
         0         0         0         0         0         0         0         0
         0         0         0         0         0         0         0         0
         0         0         0         0         0         0         0         0
         0         0         0         0         0         0         0         0
         0         0         0         0         0         0         0         0
         0         0         0         0         0         0         0         0
         0         0         0         0         0         0         0         0
         0         0         0         0         0         0         0         0
         0         0         0         0         0         0         0         0
         0         0         0         0         0         0         0         0
         0         0         0         0         0         0         0         0
         0         0         0         0         0         0         0         0
         0         0         0         0         0         0         0         0
         0         0         0         0         0         0         0         0
         0         0         0         0         0         0         0         0
         0         0         0         0         0         0         0         0
         0         0         0         0         0         0         0         0
         0         0         0         0         0         0         0         0
         0         0         0         0         0         0         0         0
         0         0         0         0         0         0         0         0
         0         0         0         0         0         0         0         0
         0         0         0         0         0         0         0         0
         0         0         0         0         0         0         0         0
         0         0         0         0         0         0         0         0
         0         0         0         0         0         0         0         0
         0         0         0         0         0         0         0         0
         0         0         0         0         0         0         0         0
         0         0         0         0         0         0         0         0
         0         0         0         0         0         0         0         0
         0         0         0         0         0         0         0         0
         0         0         0         0         0         0         0         0
         0         0         0         0         0         0         0         0
         0         0         0         0         0         0         0         0
         0         0         0         0         0         0         0         0
         0         0         0         0         0         0         0         0
         0         0         0         0         0         0         0         0
         0         0         0         0         0         0         0         0
         0         0         0         0         0         0         0         0
         0         0         0         0         0         0         0         0
         0         0         0         0         0         0         0         0
         0         0         0         0         0         0         0         0
         0         0         0         0         0         0         0         0
         0         0         0         0         0         0         0         0
         0         0         0         0         0         0         0         0
         0         0         0         0         0         0         0         0
         0         0         0         0         0         0         0         0
         0         0         0         0         0         0         0         0
         0         0         0         0         0         0         0         0
         0         0         0         0         0         0         0         0
         0         0         0         0         0         0         0         0
         0         0         0         0         0         0         0         0
         0         0         0         0         0         0         0         0
         0         0         0         0         0         0         0         0
         0         0         0         0         0         0         0         0
         0         0         0         0         0         0         0         0
         0         0         0         0         0         0         0         0
         0         0         0         0         0         0         0         0
         0         0         0         0         0         0         0         0
         0         0         0         0         0         0         0         0
         0         0         0         0         0         0         0         0
         0         0         0         0         0         0         0         0
         0         0         0         0         0         0         0         0
         0         0         0         0         0         0         0         0
         0         0         0         0         0         0         0         0
         0         0         0         0         0         0         0         0
         0         0         0         0         0         0         0         0
         0         0         0         0         0         0         0         0
         0         0         0         0         0         0         0         0
         0         0         0         0         0         0         0         0
         0         0         0         0         0         0         0         0
         0         0         0         0         0         0         0         0
         0         0         0         0         0         0         0         0
         0         0         0         0         0         0         0         0
         0         0         0         0         0         0         0         0
         0         0         0         0         0         0         0         0
         0         0         0         0         0         0         0         0
         0         0         0         0         0         0         0         0
         0         0         0         0         0         0         0         0
         0         0         0         0         0         0         0         0
         0         0         0         0         0         0         0         0
         0         0         0         0         0         0         0         0
         0         0         0         0         0         0         0         0
         0         0         0         0         0         0         0         0
         0         0         0         0         0         0         0         0
         0         0         0         0         0         0         0         0
         0         0         0         0         0         0         0         0
         0         0         0         0         0         0         0         0
         0         0         0         0         0         0         0         0
         0         0         0         0         0         0         0         0
         0         0         0         0         0         0         0         0
         0         0         0         0         0         0         0         0
         0         0         0         0         0         0         0         0
         0         0         0         0         0         0         0         0
         0         0         0         0         0         0         0         0
         0         0         0         0         0         0         0         0
         0         0         0         0         0         0         0         0
         0         0         0         0         0         0         0         0
         0         0         0         0         0         0         0         0
         0         0         0         0         0         0         0         0
         0         0         0         0         0         0         0         0
         0         0         0         0         0         0         0         0
         0         0         0         0         0         0         0         0
         0         0         0         0         0         0         0         0
         0         0         0         0         0         0         0         0
         0         0         0         0         0         0         0         0
         0         0         0         0         0         0         0         0
         0         0         0         0         0         0         0         0
         0         0         0         0         0         0         0         0
         0         0         0         0         0         0         0         0
         0         0         0         0         0         0         0         0
         0         0         0         0         0         0         0         0
         0         0         0         0         0         0         0         0
         0         0         0         0         0         0         0         0
         0         0         0         0         0         0         0         0
         0         0         0         0         0         0         0         0
         0         0         0         0         0         0         0         0
         0         0         0         0         0         0         0         0
         0         0         0         0         0         0         0         0
         0         0         0         0         0         0         0         0
         0         0         0         0         0         0         0         0
         0         0         0         0         0         0         0         0
         0         0         0         0         0         0         0         0
         0         0         0         0         0         0         0         0
         0         0         0         0         0         0         0         0
         0         0         0         0         0         0         0         0
         0         0         0         0         0         0         0         0
         0         0         0         0         0         0         0         0
         0         0         0         0         0         0         0         0
         0         0         0         0         0         0         0         0
         0         0         0         0         0         0         0         0
         0         0         0         0         0         0         0         0
         0         0         0         0         0         0         0         0
         0         0         0         0         0         0         0         0
         0         0         0         0         0         0         0         0
         0         0         0         0         0         0         0         0
         0         0         0         0         0         0         0         0
         0         0         0         0         0         0         0         0
         0         0         0         0         0         0         0         0
         0         0         0         0         0         0         0         0
         0         0         0         0         0         0         0         0
         0         0         0         0         0         0         0         0
         0         0         0         0         0         0         0         0
         0         0         0         0         0         0         0         0
         0         0         0         0         0         0         0         0
         0         0         0         0         0         0         0         0
         0         0         0         0         0         0         0         0
         0         0         0         0         0         0         0         0
         0         0         0         0         0         0         0         0
         0         0         0         0         0         0         0         0
         0         0         0         0         0         0         0         0
         0         0         0         0         0         0         0         0
         0         0         0         0         0         0         0         0
         0         0         0         0         0         0         0         0
         0         0         0         0         0         0         0         0
         0         0         0         0         0         0         0         0
         0         0         0         0         0         0         0         0
         0         0         0         0         0         0         0         0
         0         0         0         0         0         0         0         0
         0         0         0         0         0         0         0         0
         0         0         0         0         0         0         0         0
         0         0         0         0         0         0         0         0
         0         0         0         0         0         0         0         0
         0         0         0         0         0         0         0         0
         0         0         0         0         0         0         0         0
         0         0         0         0         0         0         0         0
         0         0         0         0         0         0         0         0
         0         0         0         0         0         0         0         0
         0         0         0         0         0         0         0         0
         0         0         0         0         0         0         0         0
         0         0         0         0         0         0         0         0
         0         0         0         0         0         0         0         0
         0         0         0         0         0         0         0         0
         0         0         0         0         0         0         0         0
         0         0         0         0         0         0         0         0
         0         0         0         0         0         0         0         0
         0         0         0         0         0         0         0         0
         0         0         0         0         0         0         0         0
         0         0         0         0         0         0         0         0
         0         0         0         0         0         0         0         0
         0         0         0         0         0         0         0         0
         0         0         0         0         0         0         0         0
         0         0         0         0         0         0         0         0
         0         0         0         0         0         0         0         0
         0         0         0         0         0         0         0         0
         0         0         0         0         0         0         0         0
         0         0         0         0         0         0         0         0
         0         0         0         0         0         0         0         0
         0         0         0         0         0         0         0         0
         0         0         0         0         0         0         0         0
         0         0         0         0         0         0         0         0
         0         0         0         0         0         0         0         0
         0         0         0         0         0         0         0         0
         0         0         0         0         0         0         0         0
         0         0         0         0         0         0         0         0
         0         0         0         0         0         0         0         0
         0         0         0         0         0         0         0         0
         0         0         0         0         0         0         0         0
         0         0         0         0         0         0         0         0
         0         0         0         0         0         0         0         0
         0         0         0         0         0         0         0         0
         0         0         0         0         0         0         0         0
         0         0         0         0         0         0         0         0
         0         0         0         0         0         0         0         0
         0         0         0         0         0         0         0         0
         0         0         0         0         0         0         0         0
         0         0         0         0         0         0         0         0
         0         0         0         0         0         0         0         0
         0         0         0         0         0         0         0         0
         0         0         0         0         0         0         0         0
         0         0         0         0         0         0         0         0
         0         0         0         0         0         0         0         0
         0         0         0         0         0         0         0         0
         0         0         0         0         0         0         0         0
         0         0         0         0         0         0         0         0
         0         0         0         0         0         0         0         0
         0         0         0         0         0         0         0         0
         0         0         0         0         0         0         0         0
         0         0         0         0         0         0         0         0
         0         0         0         0         0         0         0         0
         0         0         0         0         0         0         0         0
         0         0         0         0         0         0         0         0
         0         0         0         0         0         0         0         0
         0         0         0         0         0         0         0         0
         0         0         0         0         0         0         0         0
         0         0         0         0         0         0         0         0
         0         0         0         0         0         0         0         0
         0         0         0         0         0         0         0         0
         0         0         0         0         0         0         0         0
         0         0         0         0         0         0         0         0
         0         0         0         0         0         0         0         0
         0         0         0         0         0         0         0         0
         0         0         0         0         0         0         0         0
         0         0         0         0         0         0         0         0
         0         0         0         0         0         0         0         0
         0         0         0         0         0         0         0         0
         0         0         0         0         0         0         0         0
         0         0         0         0         0         0         0         0
         0         0         0         0         0         0         0         0
         0         0         0         0         0         0         0         0
         0         0         0         0         0         0         0         0
         0         0         0         0         0         0         0         0
         0         0         0         0         0         0         0         0
         0         0         0         0         0         0         0         0
         0         0         0         0         0         0         0         0
         0         0         0         0         0         0         0         0
         0         0         0         0         0         0         0         0
         0         0         0         0         0         0         0         0
         0         0         0         0         0         0         0         0
         0         0         0         0         0         0         0         0
         0         0         0         0         0         0         0         0
         0         0         0         0         0         0         0         0
         0         0         0         0         0         0         0         0
         0         0         0         0         0         0         0         0
         0         0         0         0         0         0         0         0
         0         0         0         0         0         0         0         0
         0         0         0         0         0         0         0         0
         0         0         0         0         0         0         0         0
         0         0         0         0         0         0         0         0
         0         0         0         0         0         0         0         0
         0         0         0         0         0         0         0         0
         0         0         0         0         0         0         0         0
         0         0         0         0         0         0         0         0
         0         0         0         0         0         0         0         0
         0         0         0         0         0         0         0         0
         0         0         0         0         0         0         0         0
         0         0         0         0         0         0         0         0
         0         0         0         0         0         0         0         0
         0         0         0         0         0         0         0         0
         0         0         0         0         0         0         0         0
         0         0         0         0         0         0         0         0
         0         0         0         0         0         0         0         0
         0         0         0         0         0         0         0         0
         0         0         0         0         0         0         0         0
         0         0         0         0         0         0         0         0
         0         0         0         0         0         0         0         0
         0         0         0         0         0         0         0         0
         0         0         0         0         0         0         0         0
         0         0         0         0         0         0         0         0
         0         0         0         0         0         0         0         0
         0         0         0         0         0         0         0         0
         0         0         0         0         0         0         0         0
         0         0         0         0         0         0         0         0
         0         0         0         0         0         0         0         0
         0         0         0         0         0         0         0         0
         0         0         0         0         0         0         0         0
         0         0         0         0         0         0         0         0
         0         0         0         0         0         0         0         0
         0         0         0         0         0         0         0         0
         0         0         0         0         0         0         0         0
         0         0         0         0         0         0         0         0
         0         0         0         0         0         0         0         0
         0         0         0         0         0         0         0         0
         0         0         0         0         0         0         0         0
         0         0         0         0         0         0         0         0
         0         0         0         0         0         0         0         0
         0         0         0         0         0         0         0         0
         0         0         0         0         0         0         0         0
         0         0         0         0         0         0         0         0
         0         0         0         0         0         0         0         0
         0         0         0         0         0         0         0         0
         0         0         0         0         0         0         0         0
         0         0         0         0         0         0         0         0
         0         0         0         0         0         0         0         0
         0         0         0         0         0         0         0         0
         0         0         0         0         0         0         0         0
         0         0         0         0         0         0         0         0
         0         0         0         0         0         0         0         0
         0         0         0         0         0         0         0         0
         0         0         0         0         0         0         0         0
         0         0         0         0         0         0         0         0
         0         0         0         0         0         0         0         0
         0         0         0         0         0         0         0         0
         0         0         0         0         0         0         0         0
         0         0         0         0         0         0         0         0
         0         0         0         0         0         0         0         0
         0         0         0         0         0         0         0         0
         0         0         0         0         0         0         0         0
         0         0         0         0         0         0         0         0
         0         0         0         0         0         0         0         0
         0         0         0         0         0         0         0         0
         0         0         0         0         0         0         0         0
         0         0         0         0         0         0         0         0
         0         0         0         0         0         0         0         0
         0         0         0         0         0         0         0         0
         0         0         0         0         0         0         0         0
         0         0         0         0         0         0         0         0
         0         0         0         0         0         0         0         0
         0         0         0         0         0         0         0         0
         0         0         0         0         0         0         0         0
         0         0         0         0         0         0         0         0
         0         0         0         0         0         0         0         0
         0         0         0         0         0         0         0         0
         0         0         0         0         0         0         0         0
         0         0         0         0         0         0         0         0
         0         0         0         0         0         0         0         0
         0         0         0         0         0         0         0         0
         0         0         0         0         0         0         0         0
         0         0         0         0         0         0         0         0
         0         0         0         0         0         0         0         0
         0         0         0         0         0         0         0         0
         0         0         0         0         0         0         0         0
         0         0         0         0         0         0         0         0
         0         0         0         0         0         0         0         0
         0         0         0         0         0         0         0         0
         0         0         0         0         0         0         0         0
         0         0         0         0         0         0         0         0
         0         0         0         0         0         0         0         0
         0         0         0         0         0         0         0         0
         0         0         0         0         0         0         0         0
         0         0         0         0         0         0         0         0
         0         0         0         0         0         0         0         0
         0         0         0         0         0         0         0         0
         0         0         0         0         0         0         0         0
         0         0         0         0         0         0         0         0
         0         0         0         0         0         0         0         0
         0         0         0         0         0         0         0         0
         0         0         0         0         0         0         0         0
         0         0         0         0         0         0         0         0
         0         0         0         0         0         0         0         0
         0         0         0         0         0         0         0         0
         0         0         0         0         0         0         0         0
         0         0         0         0         0         0         0         0
         0         0         0         0         0         0         0         0
         0         0         0         0         0         0         0         0
         0         0         0         0         0         0         0         0
         0         0         0         0         0         0         0         0
         0         0         0         0         0         0         0         0
         0         0         0         0         0         0         0         0
         0         0         0         0         0         0         0         0
         0         0         0         0         0         0         0         0
         0         0         0         0         0         0         0         0
         0         0         0         0         0         0         0         0
         0         0         0         0         0         0         0         0
         0         0         0         0         0         0         0         0
         0         0         0         0         0         0         0         0
         0         0         0         0         0         0         0         0
         0         0         0         0         0         0         0         0
         0         0         0         0         0         0         0         0
         0         0         0         0         0         0         0         0
         0         0         0         0         0         0         0         0
         0         0         0         0         0         0         0         0
         0         0         0         0         0         0         0         0
         0         0         0         0         0         0         0         0
         0         0         0         0         0         0         0         0
         0         0         0         0         0         0         0         0
         0         0         0         0         0         0         0         0
         0         0         0         0         0         0         0         0
         0         0         0         0         0         0         0         0
         0         0         0         0         0         0         0         0
         0         0         0         0         0         0         0         0
         0         0         0         0         0         0         0         0
         0         0         0         0         0         0         0         0
         0         0         0         0         0         0         0         0
         0         0         0         0         0         0         0         0
         0         0         0         0         0         0         0         0
         0         0         0         0         0         0         0         0
         0         0         0         0         0         0         0         0
         0         0         0         0         0         0         0         0
         0         0         0         0         0         0         0         0
         0         0         0         0         0         0         0         0
         0         0         0         0         0         0         0         0
         0         0         0         0         0         0         0         0
         0         0         0         0         0         0         0         0
         0         0         0         0         0         0         0         0
         0         0         0         0         0         0         0         0
         0         0         0         0         0         0         0         0
         0         0         0         0         0         0         0         0
         0         0         0         0         0         0         0         0
         0         0         0         0         0         0         0         0
         0         0         0         0         0         0         0         0
         0         0         0         0         0         0         0         0
         0         0         0         0         0         0         0         0
         0         0         0         0         0         0         0         0
         0         0         0         0         0         0         0         0
         0         0         0         0         0         0         0         0
         0         0         0         0         0         0         0         0
         0         0         0         0         0         0         0         0
         0         0         0         0         0         0         0         0
         0         0         0         0         0         0         0         0
         0         0         0         0         0         0         0         0
         0         0         0         0         0         0         0         0
         0         0         0         0         0         0         0         0
         0         0         0         0         0         0         0         0
         0         0         0         0         0         0         0         0
         0         0         0         0         0         0         0         0
         0         0         0         0         0         0         0         0
         0         0         0         0         0         0         0         0
         0         0         0         0         0         0         0         0
         0         0         0         0         0         0         0         0
         0         0         0         0         0         0         0         0
         0         0         0         0         0         0         0         0
         0         0         0         0         0         0         0         0
         0         0         0         0         0         0         0         0
         0         0         0         0         0         0         0         0
         0         0         0         0         0         0         0         0
         0         0         0         0         0         0         0         0
         0         0         0         0         0         0         0         0
         0         0         0         0         0         0         0         0
         0         0         0         0         0         0         0         0
         0         0         0         0         0         0         0         0
         0         0         0         0         0         0         0         0
         0         0         0         0         0         0         0         0
         0         0         0         0         0         0         0         0
         0         0         0         0         0         0         0         0
         0         0         0         0         0         0         0         0
         0         0         0         0         0         0         0         0
         0         0         0         0         0         0         0         0
         0         0         0         0         0         0         0         0
         0         0         0         0         0         0         0         0
         0         0         0         0         0         0         0         0
         0         0         0         0         0         0         0         0
         0         0         0         0         0         0         0         0
         0         0         0         0         0         0         0         0
         0         0         0         0         0         0         0         0
         0         0         0         0         0         0         0         0
         0         0         0         0         0         0         0         0
         0         0         0         0         0         0         0         0
         0         0         0         0         0         0         0         0
         0         0         0         0         0         0         0         0
         0         0         0         0         0         0         0         0
         0         0         0         0         0         0         0         0
         0         0         0         0         0         0         0         0
         0         0         0         0         0         0         0         0
         0         0         0         0         0         0         0         0
         0         0         0         0         0         0         0         0
         0         0         0         0         0         0         0         0
         0         0         0         0         0         0         0         0
         0         0         0         0         0         0         0         0
         0         0         0         0         0         0         0         0
         0         0         0         0         0         0         0         0
         0         0         0         0         0         0         0         0
         0         0         0         0         0         0         0         0
         0         0         0         0         0         0         0         0
         0         0         0         0         0         0         0         0
         0         0         0         0         0         0         0         0
         0         0         0         0         0         0         0         0
         0         0         0         0         0         0         0         0
         0         0         0         0         0         0         0         0
         0         0         0         0         0         0         0         0
         0         0         0         0         0         0         0         0
         0         0         0         0         0         0         0         0
         0         0         0         0         0         0         0         0
         0         0         0         0         0         0         0         0
         0         0         0         0         0         0         0         0
         0         0         0         0         0         0         0         0
         0         0         0         0         0         0         0         0
         0         0         0         0         0         0         0         0
         0         0         0         0         0         0         0         0
         0         0         0         0         0         0         0         0
         0         0         0         0         0         0         0         0
         0         0         0         0         0         0         0         0
         0         0         0         0         0         0         0         0
         0         0         0         0         0         0         0         0
         0         0         0         0         0         0         0         0
         0         0         0         0         0         0         0         0
         0         0         0         0         0         0         0         0
         0         0         0         0         0         0         0         0
         0         0         0         0         0         0         0         0
         0         0         0         0         0         0         0         0
         0         0         0         0         0         0         0         0
         0         0         0         0         0         0         0         0
         0         0         0         0         0         0         0         0
         0         0         0         0         0         0         0         0
         0         0         0         0         0         0         0         0
         0         0         0         0         0         0         0         0
         0         0         0         0         0         0         0         0
         0         0         0         0         0         0         0         0
         0         0         0         0         0         0         0         0
         0         0         0         0         0         0         0         0
         0         0         0         0         0         0         0         0
         0         0         0         0         0         0         0         0
         0         0         0         0         0         0         0         0
         0         0         0         0         0         0         0         0
         0         0         0         0         0         0         0         0
         0         0         0         0         0         0         0         0
         0         0         0         0         0         0         0         0
         0         0         0         0         0         0         0         0
         0         0         0         0         0         0         0         0
         0         0         0         0         0         0         0         0
         0         0         0         0         0         0         0         0
         0         0         0         0         0         0         0         0
         0         0         0         0         0         0         0         0
         0         0         0         0         0         0         0         0
         0         0         0         0         0         0         0         0
         0         0         0         0         0         0         0         0
         0         0         0         0         0         0         0         0
         0         0         0         0         0         0         0         0
         0         0         0         0         0         0         0         0
         0         0         0         0         0         0         0         0
         0         0         0         0         0         0         0         0
         0         0         0         0         0         0         0         0
         0         0         0         0         0         0         0         0
         0         0         0         0         0         0         0         0
         0         0         0         0         0         0         0         0
         0         0         0         0         0         0         0         0
         0         0         0         0         0         0         0         0
         0         0         0         0         0         0         0         0
         0         0         0         0         0         0         0         0
         0         0         0         0         0         0         0         0
         0         0         0         0         0         0         0         0
         0         0         0         0         0         0         0         0
         0         0         0         0         0         0         0         0
         0         0         0         0         0         0         0         0
         0         0         0         0         0         0         0         0
         0         0         0         0         0         0         0         0
         0         0         0         0         0         0         0         0
         0         0         0         0         0         0         0         0
         0         0         0         0         0         0         0         0
         0         0         0         0         0         0         0         0
         0         0         0         0         0         0         0         0
         0         0         0         0         0         0         0         0
         0         0         0         0         0         0         0         0
         0         0         0         0         0         0         0         0
         0         0         0         0         0         0         0         0
         0         0         0         0         0         0         0         0
         0         0         0         0         0         0         0         0
         0         0         0         0         0         0         0         0
         0         0         0         0         0         0         0         0
         0         0         0         0         0         0         0         0
         0         0         0         0         0         0         0         0
         0         0         0         0         0         0         0         0
         0         0         0         0         0         0         0         0
         0         0         0         0         0         0         0         0
         0         0         0         0         0         0         0         0
         0         0         0         0         0         0         0         0
         0         0         0         0         0         0         0         0
         0         0         0         0         0         0         0         0
         0         0         0         0         0         0         0         0
         0         0         0         0         0         0         0         0
         0         0         0         0         0         0         0         0
         0         0         0         0         0         0         0         0
         0         0         0         0         0         0         0         0
         0         0         0         0         0         0         0         0
         0         0         0         0         0         0         0         0
         0         0         0         0         0         0         0         0
         0         0         0         0         0         0         0         0
         0         0         0         0         0         0         0         0
         0         0         0         0         0         0         0         0
         0         0         0         0         0         0         0         0
         0         0         0         0         0         0         0         0
         0         0         0         0         0         0         0         0
         0         0         0         0         0         0         0         0
         0         0         0         0         0         0         0         0
         0         0         0         0         0         0         0         0
         0         0         0         0         0         0         0         0
         0         0         0         0         0         0         0         0
         0         0         0         0         0         0         0         0
         0         0         0         0         0         0         0         0
         0         0         0         0         0         0         0         0
         0         0         0         0         0         0         0         0
         0         0         0         0         0         0         0         0
         0         0         0         0         0         0         0         0
         0         0         0         0         0         0         0         0
         0         0         0         0         0         0         0         0
         0         0         0         0         0         0         0         0
         0         0         0         0         0         0         0         0
         0         0         0         0         0         0         0         0
         0         0         0         0         0         0         0         0
         0         0         0         0         0         0         0         0
         0         0         0         0         0         0         0         0
         0         0         0         0         0         0         0         0
         0         0         0         0         0         0         0         0
         0         0         0         0         0         0         0         0
         0         0         0         0         0         0         0         0
         0         0         0         0         0         0         0         0
         0         0         0         0         0         0         0         0
         0         0         0         0         0         0         0         0
         0         0         0         0         0         0         0         0
         0         0         0         0         0         0         0         0
         0         0         0         0         0         0         0         0
         0         0         0         0         0         0         0         0
         0         0         0         0         0         0         0         0
         0         0         0         0         0         0         0         0
         0         0         0         0         0         0         0         0
         0         0         0         0         0         0         0         0
         0         0         0         0         0         0         0         0
         0         0         0         0         0         0         0         0
         0         0         0         0         0         0         0         0
         0         0         0         0         0         0         0         0
         0         0         0         0         0         0         0         0
         0         0         0         0         0         0         0         0
         0         0         0         0         0         0         0         0
         0         0         0         0         0         0         0         0
         0         0         0         0         0         0         0         0
         0         0         0         0         0         0         0         0
         0         0         0         0         0         0         0         0
         0         0         0         0         0         0         0         0
         0         0         0         0         0         0         0         0
         0         0         0         0         0         0         0         0
         0         0         0         0         0         0         0         0
         0         0         0         0         0         0         0         0
         0         0         0         0         0         0         0         0
         0         0         0         0         0         0         0         0
         0         0         0         0         0         0         0         0
         0         0         0         0         0         0         0         0
         0         0         0         0         0         0         0         0
         0         0         0         0         0         0         0         0
         0         0         0         0         0         0         0         0
         0         0         0         0         0         0         0         0
         0         0         0         0         0         0         0         0
         0         0         0         0         0         0         0         0
         0         0         0         0         0         0         0         0
         0         0         0         0         0         0         0         0
         0         0         0         0         0         0         0         0
         0         0         0         0         0         0         0         0
         0         0         0         0         0         0         0         0
         0         0         0         0         0         0         0         0
         0         0         0         0         0         0         0         0
         0         0         0         0         0         0         0         0
         0         0         0         0         0         0         0         0
         0         0         0         0         0         0         0         0
         0         0         0         0         0         0         0         0
         0         0         0         0         0         0         0         0
         0         0         0         0         0         0         0         0
         0         0         0         0         0         0         0         0
         0         0         0         0         0         0         0         0
         0         0         0         0         0         0         0         0
         0         0         0         0         0         0         0         0
         0         0         0         0         0         0         0         0
         0         0         0         0         0         0         0         0
         0         0         0         0         0         0         0         0
         0         0         0         0         0         0         0         0
         0         0         0         0         0         0         0         0
         0         0         0         0         0         0         0         0
         0         0         0         0         0         0         0         0
         0         0         0         0         0         0         0         0
         0         0         0         0         0         0         0         0
         0         0         0         0         0         0         0         0
         0         0         0         0         0         0         0         0
         0         0         0         0         0         0         0         0
         0         0         0         0         0         0         0         0
         0         0         0         0         0         0         0         0
         0         0         0         0         0         0         0         0
         0         0         0         0         0         0         0         0
         0         0         0         0         0         0         0         0
         0         0         0         0         0         0         0         0
         0         0         0         0         0         0         0         0
         0         0         0         0         0         0         0         0
         0         0         0         0         0         0         0         0
         0         0         0         0         0         0         0         0
         0         0         0         0         0         0         0         0
         0         0         0         0         0         0         0         0
         0         0         0         0         0         0         0         0
         0         0         0         0         0         0         0         0
         0         0         0         0         0         0         0         0
         0         0         0         0         0         0         0         0
         0         0         0         0         0         0         0         0
         0         0         0         0         0         0         0         0
         0         0         0         0         0         0         0         0
         0         0         0         0         0         0         0         0
         0         0         0         0         0         0         0         0
         0         0         0         0         0         0         0         0
         0         0         0         0         0         0         0         0
         0         0         0         0         0         0         0         0
         0         0         0         0         0         0         0         0
         0         0         0         0         0         0         0         0
         0         0         0         0         0         0         0         0
         0         0         0         0         0         0         0         0
         0         0         0         0         0         0         0         0
         0         0         0         0         0         0         0         0
         0         0         0         0         0         0         0         0
         0         0         0         0         0         0         0         0
         0         0         0         0         0         0         0         0
         0         0         0         0         0         0         0         0
         0         0         0         0         0         0         0         0
         0         0         0         0         0         0         0         0
         0         0         0         0         0         0         0         0
         0         0         0         0         0         0         0         0
         0         0         0         0         0         0         0         0
         0         0         0         0         0         0         0         0
         0         0         0         0         0         0         0         0
         0         0         0         0         0         0         0         0
         0         0         0         0         0         0         0         0
         0         0         0         0         0         0         0         0
         0         0         0         0         0         0         0         0
         0         0         0         0         0         0         0         0
         0         0         0         0         0         0         0         0
         0         0         0         0         0         0         0         0
         0         0         0         0         0         0         0         0
         0         0         0         0         0         0         0         0
         0         0         0         0         0         0         0         0
         0         0         0         0         0         0         0         0
         0         0         0         0         0         0         0         0
         0         0         0         0         0         0         0         0
         0         0         0         0         0         0         0         0
         0         0         0         0         0         0         0         0
         0         0         0         0         0         0         0         0
         0         0         0         0         0         0         0         0
         0         0         0         0         0         0         0         0
         0         0         0         0         0         0         0         0
         0         0         0         0         0         0         0         0
         0         0         0         0         0         0         0         0
         0         0         0         0         0         0         0         0
         0         0         0         0         0         0         0         0
         0         0         0         0         0         0         0         0
         0         0         0         0         0         0         0         0
         0         0         0         0         0         0         0         0
         0         0         0         0         0         0         0         0
         0         0         0         0         0         0         0         0
         0         0         0         0         0         0         0         0
         0         0         0         0         0         0         0         0
         0         0         0         0         0         0         0         0
         0         0         0         0         0         0         0         0
         0         0         0         0         0         0         0         0
         0         0         0         0         0         0         0         0
         0         0         0         0         0         0         0         0
         0         0         0         0         0         0         0         0
         0         0         0         0         0         0         0         0
         0         0         0         0         0         0         0         0
         0         0         0         0         0         0         0         0
         0         0         0         0         0         0         0         0
         0         0         0         0         0         0         0         0
         0         0         0         0         0         0         0         0
         0         0         0         0         0         0         0         0
         0         0         0         0         0         0         0         0
         0         0         0         0         0         0         0         0
         0         0         0         0         0         0         0         0
         0         0         0         0         0         0         0         0
         0         0         0         0         0         0         0         0
         0         0         0         0         0         0         0         0
         0         0         0         0         0         0         0         0
         0         0         0         0         0         0         0         0
         0         0         0         0         0         0         0         0
         0         0         0         0         0         0         0         0
         0         0         0         0         0         0         0         0
         0         0         0         0         0         0         0         0
         0         0         0         0         0         0         0         0
         0         0         0         0         0         0         0         0
         0         0         0         0         0         0         0         0
         0         0         0         0         0         0         0         0
         0         0         0         0         0         0         0         0
         0         0         0         0         0         0         0         0
         0         0         0         0         0         0         0         0
         0         0         0         0         0         0         0         0
         0         0         0         0         0         0         0         0
         0         0         0         0         0         0         0         0
         0         0         0         0         0         0         0         0
         0         0         0         0         0         0         0         0
         0         0         0         0         0         0         0         0
         0         0         0         0         0         0         0         0
         0         0         0         0         0         0         0         0
         0         0         0         0         0         0         0         0
         0         0         0         0         0         0         0         0
         0         0         0         0         0         0         0         0
         0         0         0         0         0         0         0         0
         0         0         0         0         0         0         0         0
         0         0         0         0         0         0         0         0
         0         0         0         0         0         0         0         0
         0         0         0         0         0         0         0         0
         0         0         0         0         0         0         0         0
         0         0         0         0         0         0         0         0
         0         0         0         0         0         0         0         0
         0         0         0         0         0         0         0         0
         0         0         0         0         0         0         0         0
         0         0         0         0         0         0         0         0
         0         0         0         0         0         0         0         0
         0         0         0         0         0         0         0         0
         0         0         0         0         0         0         0         0
         0         0         0         0         0         0         0         0
         0         0         0         0         0         0         0         0
         0         0         0         0         0         0         0         0
         0         0         0         0         0         0         0         0
         0         0         0         0         0         0         0         0
         0         0         0         0         0         0         0         0
         0         0         0         0         0         0         0         0
         0         0         0         0         0         0         0         0
         0         0         0         0         0         0         0         0
         0         0         0         0         0         0         0         0
         0         0         0         0         0         0         0         0
         0         0         0         0         0         0         0         0
         0         0         0         0         0         0         0         0
         0         0         0         0         0         0         0         0
         0         0         0         0         0         0         0         0
         0         0         0         0         0         0         0         0
         0         0         0         0         0         0         0         0
         0         0         0         0         0         0         0         0
         0         0         0         0         0         0         0         0
         0         0         0         0         0         0         0         0
         0         0         0         0         0         0         0         0
         0         0         0         0         0         0         0         0
         0         0         0         0         0         0         0         0
         0         0         0         0         0         0         0         0
         0         0         0         0         0         0         0         0
         0         0         0         0         0         0         0         0
         0         0         0         0         0         0         0         0
         0         0         0         0         0         0         0         0
         0         0         0         0         0         0         0         0
         0         0         0         0         0         0         0         0
         0         0         0         0         0         0         0         0
         0         0         0         0         0         0         0         0
         0         0         0         0         0         0         0         0
         0         0         0         0         0         0         0         0
         0         0         0         0         0         0         0         0
         0         0         0         0         0         0         0         0
         0         0         0         0         0         0         0         0
         0         0         0         0         0         0         0         0
         0         0         0         0         0         0         0         0
         0         0         0         0         0         0         0         0
         0         0         0         0         0         0         0         0
         0         0         0         0         0         0         0         0
         0         0         0         0         0         0         0         0
         0         0         0         0         0         0         0         0
         0         0         0         0         0         0         0         0
         0         0         0         0         0         0         0         0
         0         0         0         0         0         0         0         0
         0         0         0         0         0         0         0         0
         0         0         0         0         0         0         0         0
         0         0         0         0         0         0         0         0
         0         0         0         0         0         0         0         0
         0         0         0         0         0         0         0         0
         0         0         0         0         0         0         0         0
         0         0         0         0         0         0         0         0
         0         0         0         0         0         0         0         0
         0         0         0         0         0         0         0         0
         0         0         0         0         0         0         0         0
         0         0         0         0         0         0         0         0
         0         0         0         0         0         0         0         0
         0         0         0         0         0         0         0         0
         0         0         0         0         0         0         0         0
         0         0         0         0         0         0         0         0
         0         0         0         0         0         0         0         0
         0         0         0         0         0         0         0         0
         0         0         0         0         0         0         0         0
         0         0         0         0         0         0         0         0
         0         0         0         0         0         0         0         0
         0         0         0         0         0         0         0         0
         0         0         0         0         0         0         0         0
         0         0         0         0         0         0         0         0
         0         0         0         0         0         0         0         0
         0         0         0         0         0         0         0         0
         0         0         0         0         0         0         0         0
         0         0         0         0         0         0         0         0
         0         0         0         0         0         0         0         0
         0         0         0         0         0         0         0         0
         0         0         0         0         0         0         0         0
         0         0         0         0         0         0         0         0
         0         0         0         0         0         0         0         0
         0         0         0         0         0         0         0         0
         0         0         0         0         0         0         0         0
         0         0         0         0         0         0         0         0
         0         0         0         0         0         0         0         0
         0         0         0         0         0         0         0         0
         0         0         0         0         0         0         0         0
         0         0         0         0         0         0         0         0
         0         0         0         0         0         0         0         0
         0         0         0         0         0         0         0         0
         0         0         0         0         0         0         0         0
         0         0         0         0         0         0         0         0
         0         0         0         0         0         0         0         0
         0         0         0         0         0         0         0         0
         0         0         0         0         0         0         0         0
         0         0         0         0         0         0         0         0
         0         0         0         0         0         0         0         0
         0         0         0         0         0         0         0         0
         0         0         0         0         0         0         0         0
         0         0         0         0         0         0         0         0
         0         0         0         0         0         0         0         0
         0         0         0         0         0         0         0         0
         0         0         0         0         0         0         0         0
         0         0         0         0         0         0         0         0
         0         0         0         0         0         0         0         0
         0         0         0         0         0         0         0         0
         0         0         0         0         0         0         0         0
         0         0         0         0         0         0         0         0
         0         0         0         0         0         0         0         0
         0         0         0         0         0         0         0         0
         0         0         0         0         0         0         0         0
         0         0         0         0         0         0         0         0
         0         0         0         0         0         0         0         0
         0         0         0         0         0         0         0         0
         0         0         0         0         0         0         0         0
         0         0         0         0         0         0         0         0
         0         0         0         0         0         0         0         0
         0         0         0         0         0         0         0         0
         0         0         0         0         0         0         0         0
         0         0         0         0         0         0         0         0
         0         0         0         0         0         0         0         0
         0         0         0         0         0         0         0         0
         0         0         0         0         0         0         0         0
         0         0         0         0         0         0         0         0
         0         0         0         0         0         0         0         0
         0         0         0         0         0         0         0         0
         0         0         0         0         0         0         0         0
         0         0         0         0         0         0         0         0
         0         0         0         0         0         0         0         0
         0         0         0         0         0         0         0         0
         0         0         0         0         0         0         0         0
         0         0         0         0         0         0         0         0
         0         0         0         0         0         0         0         0
         0         0         0         0         0         0         0         0
         0         0         0         0         0         0         0         0
         0         0         0         0         0         0         0         0
         0         0         0         0         0         0         0         0
         0         0         0         0         0         0         0         0
         0         0         0         0         0         0         0         0
         0         0         0         0         0         0         0         0
         0         0         0         0         0         0         0         0
         0         0         0         0         0         0         0         0
         0         0         0         0         0         0         0         0
         0         0         0         0         0         0         0         0
         0         0         0         0         0         0         0         0
         0         0         0         0         0         0         0         0
         0         0         0         0         0         0         0         0
         0         0         0         0         0         0         0         0
         0         0         0         0         0         0         0         0
         0         0         0         0         0         0         0         0
         0         0         0         0         0         0         0         0
         0         0         0         0         0         0         0         0
         0         0         0         0         0         0         0         0
         0         0         0         0         0         0         0         0
         0         0         0         0         0         0         0         0
         0         0         0         0         0         0         0         0
         0         0         0         0         0         0         0         0
         0         0         0         0         0         0         0         0
         0         0         0         0         0         0         0         0
         0         0         0         0         0         0         0         0
         0         0         0         0         0         0         0         0
         0         0         0         0         0         0         0         0
         0         0         0         0         0         0         0         0
         0         0         0         0         0         0         0         0
         0         0         0         0         0         0         0         0
         0         0         0         0         0         0         0         0
         0         0         0         0         0         0         0         0
         0         0         0         0         0         0         0         0
         0         0         0         0         0         0         0         0
         0         0         0         0         0         0         0         0
         0         0         0         0         0         0         0         0
         0         0         0         0         0         0         0         0
         0         0         0         0         0         0         0         0
         0         0         0         0         0         0         0         0
         0         0         0         0         0         0         0         0
         0         0         0         0         0         0         0         0
         0         0         0         0         0         0         0         0
         0         0         0         0         0         0         0         0
         0         0         0         0         0         0         0         0
         0         0         0         0         0         0         0         0
         0         0         0         0         0         0         0         0
         0         0         0         0         0         0         0         0
         0         0         0         0         0         0         0         0
         0         0         0         0         0         0         0         0
         0         0         0         0         0         0         0         0
         0         0         0         0         0         0         0         0
         0         0         0         0         0         0         0         0
         0         0         0         0         0         0         0         0
         0         0         0         0         0         0         0         0
         0         0         0         0         0         0         0         0
         0         0         0         0         0         0         0         0
         0         0         0         0         0         0         0         0
         0         0         0         0         0         0         0         0
         0         0         0         0         0         0         0         0
         0         0         0         0         0         0         0         0
         0         0         0         0         0         0         0         0
         0         0         0         0         0         0         0         0
         0         0         0         0         0         0         0         0
         0         0         0         0         0         0         0         0
         0         0         0         0         0         0         0         0
         0         0         0         0         0         0         0         0
         0         0         0         0         0         0         0         0
         0         0         0         0         0         0         0         0
         0         0         0         0         0         0         0         0
         0         0         0         0         0         0         0         0
         0         0         0         0         0         0         0         0
         0         0         0         0         0         0         0         0
         0         0         0         0         0         0         0         0
         0         0         0         0         0         0         0         0
         0         0         0         0         0         0         0         0
         0         0         0         0         0         0         0         0
         0         0         0         0         0         0         0         0
         0         0         0         0         0         0         0         0
         0         0         0         0         0         0         0         0
         0         0         0         0         0         0         0         0
         0         0         0         0         0         0         0         0
         0         0         0         0         0         0         0         0
         0         0         0         0         0         0         0         0
         0         0         0         0         0         0         0         0
         0         0         0         0         0         0         0         0
         0         0         0         0         0         0         0         0
         0         0         0         0         0         0         0         0
         0         0         0         0         0         0         0         0
         0         0         0         0         0         0         0         0
         0         0         0         0         0         0         0         0
         0         0         0         0         0         0         0         0
         0         0         0         0         0         0         0         0
         0         0         0         0         0         0         0         0
         0         0         0         0         0         0         0         0
         0         0         0         0         0         0         0         0
         0         0         0         0         0         0         0         0
         0         0         0         0         0         0         0         0
         0         0         0         0         0         0         0         0
         0         0         0         0         0         0         0         0
         0         0         0         0         0         0         0         0
         0         0         0         0         0         0         0         0
         0         0         0         0         0         0         0         0
         0         0         0         0         0         0         0         0
         0         0         0         0         0         0         0         0
         0         0         0         0         0         0         0         0
         0         0         0         0         0         0         0         0
         0         0         0         0         0         0         0         0
         0         0         0         0         0         0         0         0
         0         0         0         0         0         0         0         0
         0         0         0         0         0         0         0         0
         0         0         0         0         0         0         0         0
         0         0         0         0         0         0         0         0
         0         0         0         0         0         0         0         0
         0         0         0         0         0         0         0         0
         0         0         0         0         0         0         0         0
         0         0         0         0         0         0         0         0
         0         0         0         0         0         0         0         0
         0         0         0         0         0         0         0         0
         0         0         0         0         0         0         0         0
         0         0         0         0         0         0         0         0
         0         0         0         0         0         0         0         0
         0         0         0         0         0         0         0         0
         0         0         0         0         0         0         0         0
         0         0         0         0         0         0         0         0
         0         0         0         0         0         0         0         0
         0         0         0         0         0         0         0         0
         0         0         0         0         0         0         0         0
         0         0         0         0         0         0         0         0
         0         0         0         0         0         0         0         0
         0         0         0         0         0         0         0         0
         0         0         0         0         0         0         0         0
         0         0         0         0         0         0         0         0
         0         0         0         0         0         0         0         0
         0         0         0         0         0         0         0         0
         0         0         0         0         0         0         0         0
         0         0         0         0         0         0         0         0
         0         0         0         0         0         0         0         0
         0         0         0         0         0         0         0         0
         0         0         0         0         0         0         0         0
         0         0         0         0         0         0         0         0
         0         0         0         0         0         0         0         0
         0         0         0         0         0         0         0         0
         0         0         0         0         0         0         0         0
         0         0         0         0         0         0         0         0
         0         0         0         0         0         0         0         0
         0         0         0         0         0         0         0         0
         0         0         0         0         0         0         0         0
         0         0         0         0         0         0         0         0
         0         0         0         0         0         0         0         0
         0         0         0         0         0         0         0         0
         0         0         0         0         0         0         0         0
         0         0         0         0         0         0         0         0
         0         0         0         0         0         0         0         0
         0         0         0         0         0         0         0         0
         0         0         0         0         0         0         0         0
         0         0         0         0         0         0         0         0
         0         0         0         0         0         0         0         0
         0         0         0         0         0         0         0         0
         0         0         0         0         0         0         0         0
         0         0         0         0         0         0         0         0
         0         0         0         0         0         0         0         0
         0         0         0         0         0         0         0         0
         0         0         0         0         0         0         0         0
         0         0         0         0         0         0         0         0
         0         0         0         0         0         0         0         0
         0         0         0         0         0         0         0         0
         0         0         0         0         0         0         0         0
         0         0         0         0         0         0         0         0
         0         0         0         0         0         0         0         0
         0         0         0         0         0         0         0         0
         0         0         0         0         0         0         0         0
         0         0         0         0         0         0         0         0
         0         0         0         0         0         0         0         0
         0         0         0         0         0         0         0         0
         0         0         0         0         0         0         0         0
         0         0         0         0         0         0         0         0
         0         0         0         0         0         0         0         0
         0         0         0         0         0         0         0         0
         0         0         0         0         0         0         0         0
         0         0         0         0         0         0         0         0
         0         0         0         0         0         0         0         0
         0         0         0         0         0         0         0         0
         0         0         0         0         0         0         0         0
         0         0         0         0         0         0         0         0
         0         0         0         0         0         0         0         0
         0         0         0         0         0         0         0         0
         0         0         0         0         0         0         0         0
         0         0         0         0         0         0         0         0
         0         0         0         0         0         0         0         0
         0         0         0         0         0         0         0         0
         0         0         0         0         0         0         0         0
         0         0         0         0         0         0         0         0
         0         0         0         0         0         0         0         0
         0         0         0         0         0         0         0         0
         0         0         0         0         0         0         0         0
         0         0         0         0         0         0         0         0
         0         0         0         0         0         0         0         0
         0         0         0         0         0         0         0         0
         0         0         0         0         0         0         0         0
         0         0         0         0         0         0         0         0
         0         0         0         0         0         0         0         0
         0         0         0         0         0         0         0         0
         0         0         0         0         0         0         0         0
         0         0         0         0         0         0         0         0
         0         0         0         0         0         0         0         0
         0         0         0         0         0         0         0         0
         0         0         0         0         0         0         0         0
         0         0         0         0         0         0         0         0
         0         0         0         0         0         0         0         0
         0         0         0         0         0         0         0         0
         0         0         0         0         0         0         0         0
         0         0         0         0         0         0         0         0
         0         0         0         0         0         0         0         0
         0         0         0         0         0         0         0         0
         0         0         0         0         0         0         0         0
         0         0         0         0         0         0         0         0
         0         0         0         0         0         0         0         0
         0         0         0         0         0         0         0         0
         0         0         0         0         0         0         0         0
         0         0         0         0         0         0         0         0
         0         0         0         0         0         0         0         0
         0         0         0         0         0         0         0         0
         0         0         0         0         0         0         0         0
         0         0         0         0         0         0         0         0
         0         0         0         0         0         0         0         0
         0         0         0         0         0         0         0         0
         0         0         0         0         0         0         0         0
         0         0         0         0         0         0         0         0
         0         0         0         0         0         0         0         0
         0         0         0         0         0         0         0         0
         0         0         0         0         0         0         0         0
         0         0         0         0         0         0         0         0
         0         0         0         0         0         0         0         0
         0         0         0         0         0         0         0         0
         0         0         0         0         0         0         0         0
         0         0         0         0         0         0         0         0
         0         0         0         0         0         0         0         0
         0         0         0         0         0         0         0         0
         0         0         0         0         0         0         0         0
         0         0         0         0         0         0         0         0
         0         0         0         0         0         0         0         0
         0         0         0         0         0         0         0         0
         0         0         0         0         0         0         0         0
         0         0         0         0         0         0         0         0
         0         0         0         0         0         0         0         0
         0         0         0         0         0         0         0         0
         0         0         0         0         0         0         0         0
         0         0         0         0         0         0         0         0
         0         0         0         0         0         0         0         0
         0         0         0         0         0         0         0         0
         0         0         0         0         0         0         0         0
         0         0         0         0         0         0         0         0
         0         0         0         0         0         0         0         0
         0         0         0         0         0         0         0         0
         0         0         0         0         0         0         0         0
         0         0         0         0         0         0         0         0
         0         0         0         0         0         0         0         0
         0         0         0         0         0         0         0         0
         0         0         0         0         0         0         0         0
         0         0         0         0         0         0         0         0
         0         0         0         0         0         0         0         0
         0         0         0         0         0         0         0         0
         0         0         0         0         0         0         0         0
         0         0         0         0         0         0         0         0
         0         0         0         0         0         0         0         0
         0         0         0         0         0         0         0         0
         0         0         0         0         0         0         0         0
         0         0         0         0         0         0         0         0
         0         0         0         0         0         0         0         0
         0         0         0         0         0         0         0         0
         0         0         0         0         0         0         0         0
         0         0         0         0         0         0         0         0
         0         0         0         0         0         0         0         0
         0         0         0         0         0         0         0         0
         0         0         0         0         0         0         0         0
         0         0         0         0         0         0         0         0
         0         0         0         0         0         0         0         0
         0         0         0         0         0         0         0         0
         0         0         0         0         0         0         0         0
         0         0         0         0         0         0         0         0
         0         0         0         0         0         0         0         0
         0         0         0         0         0         0         0         0
         0         0         0         0         0         0         0         0
         0         0         0         0         0         0         0         0
         0         0         0         0         0         0         0         0
         0         0         0         0         0         0         0         0
         0         0         0         0         0         0         0         0
         0         0         0         0         0         0         0         0
         0         0         0         0         0         0         0         0
         0         0         0         0         0         0         0         0
         0         0         0         0         0         0         0         0
         0         0         0         0         0         0         0         0
         0         0         0         0         0         0         0         0
         0         0         0         0         0         0         0         0
         0         0         0         0         0         0         0         0
         0         0         0         0         0         0         0         0
         0         0         0         0         0         0         0         0
         0         0         0         0         0         0         0         0
         0         0         0         0         0         0         0         0
         0         0         0         0         0         0         0         0
         0         0         0         0         0         0         0         0
         0         0         0         0         0         0         0         0
         0         0         0         0         0         0         0         0
         0         0         0         0         0         0         0         0
         0         0         0         0         0         0         0         0
         0         0         0         0         0         0         0         0
         0         0         0         0         0         0         0         0
         0         0         0         0         0         0         0         0
         0         0         0         0         0         0         0         0
         0         0         0         0         0         0         0         0
         0         0         0         0         0         0         0         0
         0         0         0         0         0         0         0         0
         0         0         0         0         0         0         0         0
         0         0         0         0         0         0         0         0
         0         0         0         0         0         0         0         0
         0         0         0         0         0         0         0         0
         0         0         0         0         0         0         0         0
         0         0         0         0         0         0         0         0
         0         0         0         0         0         0         0         0
         0         0         0         0         0         0         0         0
         0         0         0         0         0         0         0         0
         0         0         0         0         0         0         0         0
         0         0         0         0         0         0         0         0
         0         0         0         0         0         0         0         0
         0         0         0         0         0         0         0         0
         0         0         0         0         0         0         0         0
         0         0         0         0         0         0         0         0
         0         0         0         0         0         0         0         0
         0         0         0         0         0         0         0         0
         0         0         0         0         0         0         0         0
         0         0         0         0         0         0         0         0
         0         0         0         0         0         0         0         0
         0         0         0         0         0         0         0         0
         0         0         0         0         0         0         0         0
         0         0         0         0         0         0         0         0
         0         0         0         0         0         0         0         0
         0         0         0         0         0         0         0         0
         0         0         0         0         0         0         0         0
         0         0         0         0         0         0         0         0
         0         0         0         0         0         0         0         0
         0         0         0         0         0         0         0         0
         0         0         0         0         0         0         0         0
         0         0         0         0         0         0         0         0
         0         0         0         0         0         0         0         0
         0         0         0         0         0         0         0         0
         0         0         0         0         0         0         0         0
         0         0         0         0         0         0         0         0
         0         0         0         0         0         0         0         0
         0         0         0         0         0         0         0         0
         0         0         0         0         0         0         0         0
         0         0         0         0         0         0         0         0
         0         0         0         0         0         0         0         0
         0         0         0         0         0         0         0         0
         0         0         0         0         0         0         0         0
         0         0         0         0         0         0         0         0
         0         0         0         0         0         0         0         0
         0         0         0         0         0         0         0         0
         0         0         0         0         0         0         0         0
         0         0         0         0         0         0         0         0
         0         0         0         0         0         0         0         0
         0         0         0         0         0         0         0         0
         0         0         0         0         0         0         0         0
         0         0         0         0         0         0         0         0
         0         0         0         0         0         0         0         0
         0         0         0         0         0         0         0         0
         0         0         0         0         0         0         0         0
         0         0         0         0         0         0         0         0
         0         0         0         0         0         0         0         0
         0         0         0         0         0         0         0         0
         0         0         0         0         0         0         0         0
         0         0         0         0         0         0         0         0
         0         0         0         0         0         0         0         0
         0         0         0         0         0         0         0         0
         0         0         0         0         0         0         0         0
         0         0         0         0         0         0         0         0
         0         0         0         0         0         0         0         0
         0         0         0         0         0         0         0         0
         0         0         0         0         0         0         0         0
         0         0         0         0         0         0         0         0
         0         0         0         0         0         0         0         0
         0         0         0         0         0         0         0         0
         0         0         0         0         0         0         0         0
         0         0         0         0         0         0         0         0
         0         0         0         0         0         0         0         0
         0         0         0         0         0         0         0         0
         0         0         0         0         0         0         0         0
         0         0         0         0         0         0         0         0
         0         0         0         0         0         0         0         0
         0         0         0         0         0         0         0         0
         0         0         0         0         0         0         0         0
         0         0         0         0         0         0         0         0
         0         0         0         0         0         0         0         0
         0         0         0         0         0         0         0         0
         0         0         0         0         0         0         0         0
         0         0         0         0         0         0         0         0
         0         0         0         0         0         0         0         0
         0         0         0         0         0         0         0         0
         0         0         0         0         0         0         0         0
         0         0         0         0         0         0         0         0
         0         0         0         0         0         0         0         0
         0         0         0         0         0         0         0         0
         0         0         0         0         0         0         0         0
         0         0         0         0         0         0         0         0
         0         0         0         0         0         0         0         0
         0         0         0         0         0         0         0         0
         0         0         0         0         0         0         0         0
         0         0         0         0         0         0         0         0
         0         0         0         0         0         0         0         0
         0         0         0         0         0         0         0         0
         0         0         0         0         0         0         0         0
         0         0         0         0         0         0         0         0
         0         0         0         0         0         0         0         0
         0         0         0         0         0         0         0         0
         0         0         0         0         0         0         0         0
         0         0         0         0         0         0         0         0
         0         0         0         0         0         0         0         0
         0         0         0         0         0         0         0         0
         0         0         0         0         0         0         0         0
         0         0         0         0         0         0         0         0
         0         0         0         0         0         0         0         0
         0         0         0         0         0         0         0         0
         0         0         0         0         0         0         0         0
         0         0         0         0         0         0         0         0
         0         0         0         0         0         0         0         0
         0         0         0         0         0         0         0         0
         0         0         0         0         0         0         0         0
         0         0         0         0         0         0         0         0
         0         0         0         0         0         0         0         0
         0         0         0         0         0         0         0         0
         0         0         0         0         0         0         0         0
         0         0         0         0         0         0         0         0
         0         0         0         0         0         0         0         0
         0         0         0         0         0         0         0         0
         0         0         0         0         0         0         0         0
         0         0         0         0         0         0         0         0
         0         0         0         0         0         0         0         0
         0         0         0         0         0         0         0         0
         0         0         0         0         0         0         0         0
         0         0         0         0         0         0         0         0
         0         0         0         0         0         0         0         0
         0         0         0         0         0         0         0         0
         0         0         0         0         0         0         0         0
         0         0         0         0         0         0         0         0
         0         0         0         0         0         0         0         0
         0         0         0         0         0         0         0         0
         0         0         0         0         0         0         0         0
         0         0         0         0         0         0         0         0
         0         0         0         0         0         0         0         0
         0         0         0         0         0         0         0         0
         0         0         0         0         0         0         0         0
         0         0         0         0         0         0         0         0
         0         0         0         0         0         0         0         0
         0         0         0         0         0         0         0         0
         0         0         0         0         0         0         0         0
         0         0         0         0         0         0         0         0
         0         0         0         0         0         0         0         0
         0         0         0         0         0         0         0         0
         0         0         0         0         0         0         0         0
         0         0         0         0         0         0         0         0
         0         0         0         0         0         0         0         0
         0         0         0         0         0         0         0         0
         0         0         0         0         0         0         0         0
         0         0         0         0         0         0         0         0
         0         0         0         0         0         0         0         0
         0         0         0         0         0         0         0         0
         0         0         0         0         0         0         0         0
         0         0         0         0         0         0         0         0
         0         0         0         0         0         0         0         0
         0         0         0         0         0         0         0         0
         0         0         0         0         0         0         0         0
         0         0         0         0         0         0         0         0
         0         0         0         0         0         0         0         0
         0         0         0         0         0         0         0         0
         0         0         0         0         0         0         0         0
         0         0         0         0         0         0         0         0
         0         0         0         0         0         0         0         0
         0         0         0         0         0         0         0         0
         0         0         0         0         0         0         0         0
         0         0         0         0         0         0         0         0
         0         0         0         0         0         0         0         0
         0         0         0         0         0         0         0         0
         0         0         0         0         0         0         0         0
         0         0         0         0         0         0         0         0
         0         0         0         0         0         0         0         0
         0         0         0         0         0         0         0         0
         0         0         0         0         0         0         0         0
         0         0         0         0         0         0         0         0
         0         0         0         0         0         0         0         0
         0         0         0         0         0         0         0         0
         0         0         0         0         0         0         0         0
         0         0         0         0         0         0         0         0
         0         0         0         0         0         0         0         0
         0         0         0         0         0         0         0         0
         0         0         0         0         0         0         0         0
         0         0         0         0         0         0         0         0
         0         0         0         0         0         0         0         0
         0         0         0         0         0         0         0         0
         0         0         0         0         0         0         0         0
         0         0         0         0         0         0         0         0
         0         0         0         0         0         0         0         0
         0         0         0         0         0         0         0         0
         0         0         0         0         0         0         0         0
         0         0         0         0         0         0         0         0
         0         0         0         0         0         0         0         0
         0         0         0         0         0         0         0         0
         0         0         0         0         0         0         0         0
         0         0         0         0         0         0         0         0
         0         0         0         0         0         0         0         0
         0         0         0         0         0         0         0         0
         0         0         0         0         0         0         0         0
         0         0         0         0         0         0         0         0
         0         0         0         0         0         0         0         0
         0         0         0         0         0         0         0         0
         0         0         0         0         0         0         0         0
         0         0         0         0         0         0         0         0
         0         0         0         0         0         0         0         0
         0         0         0         0         0         0         0         0
         0         0         0         0         0         0         0         0
         0         0         0         0         0         0         0         0
         0         0         0         0         0         0         0         0
         0         0         0         0         0         0         0         0
         0         0         0         0         0         0         0         0
         0         0         0         0         0         0         0         0
         0         0         0         0         0         0         0         0
         0         0         0         0         0         0         0         0
         0         0         0         0         0         0         0         0
         0         0         0         0         0         0         0         0
         0         0         0         0         0         0         0         0
         0         0         0         0         0         0         0         0
         0         0         0         0         0         0         0         0
         0         0         0         0         0         0         0         0
         0         0         0         0         0         0         0         0
         0         0         0         0         0         0         0         0
         0         0         0         0         0         0         0         0
         0         0         0         0         0         0         0         0
         0         0         0         0         0         0         0         0
         0         0         0         0         0         0         0         0
         0         0         0         0         0         0         0         0
         0         0         0         0         0         0         0         0
         0         0         0         0         0         0         0         0
         0         0         0         0         0         0         0         0
         0         0         0         0         0         0         0         0
         0         0         0         0         0         0         0         0
         0         0         0         0         0         0         0         0
         0         0         0         0         0         0         0         0
         0         0         0         0         0         0         0         0
         0         0         0         0         0         0         0         0
         0         0         0         0         0         0         0         0
         0         0         0         0         0         0         0         0
         0         0         0         0         0         0         0         0
         0         0         0         0         0         0         0         0
         0         0         0         0         0         0         0         0
         0         0         0         0         0         0         0         0
         0         0         0         0         0         0         0         0
         0         0         0         0         0         0         0         0
         0         0         0         0         0         0         0         0
         0         0         0         0         0         0         0         0
         0         0         0         0         0         0         0         0
         0         0         0         0         0         0         0         0
         0         0         0         0         0         0         0         0
         0         0         0         0         0         0         0         0
         0         0         0         0         0         0         0         0
         0         0         0         0         0         0         0         0
         0         0         0         0         0         0         0         0
         0         0         0         0         0         0         0         0
         0         0         0         0         0         0         0         0
         0         0         0         0         0         0         0         0
         0         0         0         0         0         0         0         0
         0         0         0         0         0         0         0         0
         0         0         0         0         0         0         0         0
         0         0         0         0         0         0         0         0
         0         0         0         0         0         0         0         0
         0         0         0         0         0         0         0         0
         0         0         0         0         0         0         0         0
         0         0         0         0         0         0         0         0
         0         0         0         0         0         0         0         0
         0         0         0         0         0         0         0         0
         0         0         0         0         0         0         0         0
         0         0         0         0         0         0         0         0
         0         0         0         0         0         0         0         0
         0         0         0         0         0         0         0         0
         0         0         0         0         0         0         0         0
         0         0         0         0         0         0         0         0
         0         0         0         0         0         0         0         0
         0         0         0         0         0         0         0         0
         0         0         0         0         0         0         0         0
         0         0         0         0         0         0         0         0
         0         0         0         0         0         0         0         0
         0         0         0         0         0         0         0         0
         0         0         0         0         0         0         0         0
         0         0         0         0         0         0         0         0
         0         0         0         0         0         0         0         0
         0         0         0         0         0         0         0         0
         0         0         0         0         0         0         0         0
         0         0         0         0         0         0         0         0
         0         0         0         0         0         0         0         0
         0         0         0         0         0         0         0         0
         0         0         0         0         0         0         0         0
         0         0         0         0         0         0         0         0
         0         0         0         0         0         0         0         0
         0         0         0         0         0         0         0         0
         0         0         0         0         0         0         0         0
         0         0         0         0         0         0         0         0
         0         0         0         0         0         0         0         0
         0         0         0         0         0         0         0         0
         0         0         0         0         0         0         0         0
         0         0         0         0         0         0         0         0
         0         0         0         0         0         0         0         0
         0         0         0         0         0         0         0         0
         0         0         0         0         0         0         0         0
         0         0         0         0         0         0         0         0
         0         0         0         0         0         0         0         0
         0         0         0         0         0         0         0         0
         0         0         0         0         0         0         0         0
         0         0         0         0         0         0         0         0
         0         0         0         0         0         0         0         0
         0         0         0         0         0         0         0         0
         0         0         0         0         0         0         0         0
         0         0         0         0         0         0         0         0
         0         0         0         0         0         0         0         0
         0         0         0         0         0         0         0         0
         0         0         0         0         0         0         0         0
         0         0         0         0         0         0         0         0
         0         0         0         0         0         0         0         0
         0         0         0         0         0         0         0         0
         0         0         0         0         0         0         0         0
         0         0         0         0         0         0         0         0
         0         0         0         0         0         0         0         0
         0         0         0         0         0         0         0         0
         0         0         0         0         0         0         0         0
         0         0         0         0         0         0         0         0
         0         0         0         0         0         0         0         0
         0         0         0         0         0         0         0         0
         0         0         0         0         0         0         0         0
         0         0         0         0         0         0         0         0
         0         0         0         0         0         0         0         0
         0         0         0         0         0         0         0         0
         0         0         0         0         0         0         0         0
         0         0         0         0         0         0         0         0
         0         0         0         0         0         0         0         0
         0         0         0         0         0         0         0         0
         0         0         0         0         0         0         0         0
         0         0         0         0         0         0         0         0
         0         0         0         0         0         0         0         0
         0         0         0         0         0         0         0         0
         0         0         0         0         0         0         0         0
         0         0         0         0         0         0         0         0
         0         0         0         0         0         0         0         0
         0         0         0         0         0         0         0         0
         0         0         0         0         0         0         0         0
         0         0         0         0         0         0         0         0
         0         0         0         0         0         0         0         0
         0         0         0         0         0         0         0         0
         0         0         0         0         0         0         0         0
         0         0         0         0         0         0         0         0
         0         0         0         0         0         0         0         0
         0         0         0         0         0         0         0         0
         0         0         0         0         0         0         0         0
         0         0         0         0         0         0         0         0
         0         0         0         0         0         0         0         0
         0         0         0         0         0         0         0         0
         0         0         0         0         0         0         0         0
         0         0         0         0         0         0         0         0
         0         0         0         0         0         0         0         0
         0         0         0         0         0         0         0         0
         0         0         0         0         0         0         0         0
         0         0         0         0         0         0         0         0
         0         0         0         0         0         0         0         0
         0         0         0         0         0         0         0         0
         0         0         0         0         0         0         0         0
         0         0         0         0         0         0         0         0
         0         0         0         0         0         0         0         0
         0         0         0         0         0         0         0         0
         0         0         0         0         0         0         0         0
         0         0         0         0         0         0         0         0
         0         0         0         0         0         0         0         0
         0         0         0         0         0         0         0         0
         0         0         0         0         0         0         0         0
         0         0         0         0         0         0         0         0
         0         0         0         0         0         0         0         0
         0         0         0         0         0         0         0         0
         0         0         0         0         0         0         0         0
         0         0         0         0         0         0         0         0
         0         0         0         0         0         0         0         0
         0         0         0         0         0         0         0         0
         0         0         0         0         0         0         0         0
         0         0         0         0         0         0         0         0
         0         0         0         0         0         0         0         0
         0         0         0         0         0         0         0         0
         0         0         0         0         0         0         0         0
         0         0         0         0         0         0         0         0
         0         0         0         0         0         0         0         0
         0         0         0         0         0         0         0         0
         0         0         0         0         0         0         0         0
         0         0         0         0         0         0         0         0
         0         0         0         0         0         0         0         0
         0         0         0         0         0         0         0         0
         0         0         0         0         0         0         0         0
         0         0         0         0         0         0         0         0
         0         0         0         0         0         0         0         0
         0         0         0         0         0         0         0         0
         0         0         0         0         0         0         0         0
         0         0         0         0         0         0         0         0
         0         0         0         0         0         0         0         0
         0         0         0         0         0         0         0         0
         0         0         0         0         0         0         0         0
         0         0         0         0         0         0         0         0
         0         0         0         0         0         0         0         0
         0         0         0         0         0         0         0         0
         0         0         0         0         0         0         0         0
         0         0         0         0         0         0         0         0
         0         0         0         0         0         0         0         0
         0         0         0         0         0         0         0         0
         0         0         0         0         0         0         0         0
         0         0         0         0         0         0         0         0
         0         0         0         0         0         0         0         0
         0         0         0         0         0         0         0         0
         0         0         0         0         0         0         0         0
         0         0         0         0         0         0         0         0
         0         0         0         0         0         0         0         0
         0         0         0         0         0         0         0         0
         0         0         0         0         0         0         0         0
         0         0         0         0         0         0         0         0
         0         0         0         0         0         0         0         0
         0         0         0         0         0         0         0         0
         0         0         0         0         0         0         0         0
         0         0         0         0         0         0         0         0
         0         0         0         0         0         0         0         0
         0         0         0         0         0         0         0         0
         0         0         0         0         0         0         0         0
         0         0         0         0         0         0         0         0
         0         0         0         0         0         0         0         0
         0         0         0         0         0         0         0         0
         0         0         0         0         0         0         0         0
         0         0         0         0         0         0         0         0
         0         0         0         0         0         0         0         0
         0         0         0         0         0         0         0         0
         0         0         0         0         0         0         0         0
         0         0         0         0         0         0         0         0
         0         0         0         0         0         0         0         0
         0         0         0         0         0         0         0         0
         0         0         0         0         0         0         0         0
         0         0         0         0         0         0         0         0
         0         0         0         0         0         0         0         0
         0         0         0         0         0         0         0         0
         0         0         0         0         0         0         0         0
         0         0         0         0         0         0         0         0
         0         0         0         0         0         0         0         0
         0         0         0         0         0         0         0         0
         0         0         0         0         0         0         0         0
         0         0         0         0         0         0         0         0
         0         0         0         0         0         0         0         0
         0         0         0         0         0         0         0         0
         0         0         0         0         0         0         0         0
         0         0         0         0         0         0         0         0
         0         0         0         0         0         0         0         0
         0         0         0         0         0         0         0         0
         0         0         0         0         0         0         0         0
         0         0         0         0         0         0         0         0
         0         0         0         0         0         0         0         0
         0         0         0         0         0         0         0         0
         0         0         0         0         0         0         0         0
         0         0         0         0         0         0         0         0
         0         0         0         0         0         0         0         0
         0         0         0         0         0         0         0         0
         0         0         0         0         0         0         0         0
         0         0         0         0         0         0         0         0
         0         0         0         0         0         0         0         0
         0         0         0         0         0         0         0         0
         0         0         0         0         0         0         0         0
         0         0         0         0         0         0         0         0
         0         0         0         0         0         0         0         0
         0         0         0         0         0         0         0         0
         0         0         0         0         0         0         0         0
         0         0         0         0         0         0         0         0
         0         0         0         0         0         0         0         0
         0         0         0         0         0         0         0         0
         0         0         0         0         0         0         0         0
         0         0         0         0         0         0         0         0
         0         0         0         0         0         0         0         0
         0         0         0         0         0         0         0         0
         0         0         0         0         0         0         0         0
         0         0         0         0         0         0         0         0
         0         0         0         0         0         0         0         0
         0         0         0         0         0         0         0         0
         0         0         0         0         0         0         0         0
         0         0         0         0         0         0         0         0
         0         0         0         0         0         0         0         0
         0         0         0         0         0         0         0         0
         0         0         0         0         0         0         0         0
         0         0         0         0         0         0         0         0
         0         0         0         0         0         0         0         0
         0         0         0         0         0         0         0         0
         0         0         0         0         0         0         0         0
         0         0         0         0         0         0         0         0
         0         0         0         0         0         0         0         0
         0         0         0         0         0         0         0         0
         0         0         0         0         0         0         0         0
         0         0         0         0         0         0         0         0
         0         0         0         0         0         0         0         0
         0         0         0         0         0         0         0         0
         0         0         0         0         0         0         0         0
         0         0         0         0         0         0         0         0
         0         0         0         0         0         0         0         0
         0         0         0         0         0         0         0         0
         0         0         0         0         0         0         0         0
         0         0         0         0         0         0         0         0
         0         0         0         0         0         0         0         0
         0         0         0         0         0         0         0         0
         0         0         0         0         0         0         0         0
         0         0         0         0         0         0         0         0
         0         0         0         0         0         0         0         0
         0         0         0         0         0         0         0         0
         0         0         0         0         0         0         0         0
         0         0         0         0         0         0         0         0
         0         0         0         0         0         0         0         0
         0         0         0         0         0         0         0         0
         0         0         0         0         0         0         0         0
         0         0         0         0         0         0         0         0
         0         0         0         0         0         0         0         0
         0         0         0         0         0         0         0         0
         0         0         0         0         0         0         0         0
         0         0         0         0         0         0         0         0
         0         0         0         0         0         0         0         0
         0         0         0         0         0         0         0         0
         0         0         0         0         0         0         0         0
         0         0         0         0         0         0         0         0
         0         0         0         0         0         0         0         0
         0         0         0         0         0         0         0         0
         0         0         0         0         0         0         0         0
         0         0         0         0         0         0         0         0
         0         0         0         0         0         0         0         0
         0         0         0         0         0         0         0         0
         0         0         0         0         0         0         0         0
         0         0         0         0         0         0         0         0
         0         0         0         0         0         0         0         0
         0         0         0         0         0         0         0         0
         0         0         0         0         0         0         0         0
         0         0         0         0         0         0         0         0
         0         0         0         0         0         0         0         0
         0         0         0         0         0         0         0         0
         0         0         0         0         0         0         0         0
         0         0         0         0         0         0         0         0
         0         0         0         0         0         0         0         0
         0         0         0         0         0         0         0         0
         0         0         0         0         0         0         0         0
         0         0         0         0         0         0         0         0
         0         0         0         0         0         0         0         0
         0         0         0         0         0         0         0         0
         0         0         0         0         0         0         0         0
         0         0         0         0         0         0         0         0
         0         0         0         0         0         0         0         0
         0         0         0         0         0         0         0         0
         0         0         0         0         0         0         0         0
         0         0         0         0         0         0         0         0
         0         0         0         0         0         0         0         0
         0         0         0         0         0         0         0         0
         0         0         0         0         0         0         0         0
         0         0         0         0         0         0         0         0
         0         0         0         0         0         0         0         0
         0         0         0         0         0         0         0         0
         0         0         0         0         0         0         0         0
         0         0         0         0         0         0         0         0
         0         0         0         0         0         0         0         0
         0         0         0         0         0         0         0         0
         0         0         0         0         0         0         0         0
         0         0         0         0         0         0         0         0
         0         0         0         0         0         0         0         0
         0         0         0         0         0         0         0         0
         0         0         0         0         0         0         0         0
         0         0         0         0         0         0         0         0
         0         0         0         0         0         0         0         0
         0         0         0         0         0         0         0         0
         0         0         0         0         0         0         0         0
         0         0         0         0         0         0         0         0
         0         0         0         0         0         0         0         0
         0         0         0         0         0         0         0         0
         0         0         0         0         0         0         0         0
         0         0         0         0         0         0         0         0
         0         0         0         0         0         0         0         0
         0         0         0         0         0         0         0         0
         0         0         0         0         0         0         0         0
         0         0         0         0         0         0         0         0
         0         0         0         0         0         0         0         0
         0         0         0         0         0         0         0         0
         0         0         0         0         0         0         0         0
         0         0         0         0         0         0         0         0
         0         0         0         0         0         0         0         0
         0         0         0         0         0         0         0         0
         0         0         0         0         0         0         0         0
         0         0         0         0         0         0         0         0
         0         0         0         0         0         0         0         0
         0         0         0         0         0         0         0         0
         0         0         0         0         0         0         0         0
         0         0         0         0         0         0         0         0
         0         0         0         0         0         0         0         0
         0         0         0         0         0         0         0         0
         0         0         0         0         0         0         0         0
         0         0         0         0         0         0         0         0
         0         0         0         0         0         0         0         0
         0         0         0         0         0         0         0         0
         0         0         0         0         0         0         0         0
         0         0         0         0         0         0         0         0
         0         0         0         0         0         0         0         0
         0         0         0         0         0         0         0         0
         0         0         0         0         0         0         0         0
         0         0         0         0         0         0         0         0
         0         0         0         0         0         0         0         0
         0         0         0         0         0         0         0         0
         0         0         0         0         0         0         0         0
         0         0         0         0         0         0         0         0
         0         0         0         0         0         0         0         0
         0         0         0         0         0         0         0         0
         0         0         0         0         0         0         0         0
         0         0         0         0         0         0         0         0
         0         0         0         0         0         0         0         0
         0         0         0         0         0         0         0         0
         0         0         0         0         0         0         0         0
         0         0         0         0         0         0         0         0
         0         0         0         0         0         0         0         0
         0         0         0         0         0         0         0         0
         0         0         0         0         0         0         0         0
         0         0         0         0         0         0         0         0
         0         0         0         0         0         0         0         0
         0         0         0         0         0         0         0         0
         0         0         0         0         0         0         0         0
         0         0         0         0         0         0         0         0
         0         0         0         0         0         0         0         0
         0         0         0         0         0         0         0         0
         0         0         0         0         0         0         0         0
         0         0         0         0         0         0         0         0
         0         0         0         0         0         0         0         0
         0         0         0         0         0         0         0         0
         0         0         0         0         0         0         0         0
         0         0         0         0         0         0         0         0
         0         0         0         0         0         0         0         0
         0         0         0         0         0         0         0         0
         0         0         0         0         0         0         0         0
         0         0         0         0         0         0         0         0
         0         0         0         0         0         0         0         0
         0         0         0         0         0         0         0         0
         0         0         0         0         0         0         0         0
         0         0         0         0         0         0         0         0
         0         0         0         0         0         0         0         0
         0         0         0         0         0         0         0         0
         0         0         0         0         0         0         0         0
         0         0         0         0         0         0         0         0
         0         0         0         0         0         0         0         0
         0         0         0         0         0         0         0         0
         0         0         0         0         0         0         0         0
         0         0         0         0         0         0         0         0
         0         0         0         0         0         0         0         0
         0         0         0         0         0         0         0         0
         0         0         0         0         0         0         0         0
         0         0         0         0         0         0         0         0
         0         0         0         0         0         0         0         0
         0         0         0         0         0         0         0         0
         0         0         0         0         0         0         0         0
         0         0         0         0         0         0         0         0
         0         0         0         0         0         0         0         0
         0         0         0         0         0         0         0         0
         0         0         0         0         0         0         0         0
         0         0         0         0         0         0         0         0
         0         0         0         0         0         0         0         0
         0         0         0         0         0         0         0         0
         0         0         0         0         0         0         0         0
         0         0         0         0         0         0         0         0
         0         0         0         0         0         0         0         0
         0         0         0         0         0         0         0         0
         0         0         0         0         0         0         0         0
         0         0         0         0         0         0         0         0
         0         0         0         0         0         0         0         0
         0         0         0         0         0         0         0         0
         0         0         0         0         0         0         0         0
         0         0         0         0         0         0         0         0
         0         0         0         0         0         0         0         0
         0         0         0         0         0         0         0         0
         0         0         0         0         0         0         0         0
         0         0         0         0         0         0         0         0
         0         0         0         0         0         0         0         0
         0         0         0         0         0         0         0         0
         0         0         0         0         0         0         0         0
         0         0         0         0         0         0         0         0
         0         0         0         0         0         0         0         0
         0         0         0         0         0         0         0         0
         0         0         0         0         0         0         0         0
         0         0         0         0         0         0         0         0
         0         0         0         0         0         0         0         0
         0         0         0         0         0         0         0         0
         0         0         0         0         0         0         0         0
         0         0         0         0         0         0         0         0
         0         0         0         0         0         0         0         0
         0         0         0         0         0         0         0         0
         0         0         0         0         0         0         0         0
         0         0         0         0         0         0         0         0
         0         0         0         0         0         0         0         0
         0         0         0         0         0         0         0         0
         0         0         0         0         0         0         0         0
         0         0         0         0         0         0         0         0
         0         0         0         0         0         0         0         0
         0         0         0         0         0         0         0         0
         0         0         0         0         0         0         0         0
         0         0         0         0         0         0         0         0
         0         0         0         0         0         0         0         0
         0         0         0         0         0         0         0         0
         0         0         0         0         0         0         0         0
         0         0         0         0         0         0         0         0
         0         0         0         0         0         0         0         0
         0         0         0         0         0         0         0         0
         0         0         0         0         0         0         0         0
         0         0         0         0         0         0         0         0
         0         0         0         0         0         0         0         0
         0         0         0         0         0         0         0         0
         0         0         0         0         0         0         0         0
         0         0         0         0         0         0         0         0
         0         0         0         0         0         0         0         0
         0         0         0         0         0         0         0         0
         0         0         0         0         0         0         0         0
         0         0         0         0         0         0         0         0
         0         0         0         0         0         0         0         0
         0         0         0         0         0         0         0         0
         0         0         0         0         0         0         0         0
         0         0         0         0         0         0         0         0
         0         0         0         0         0         0         0         0
         0         0         0         0         0         0         0         0
         0         0         0         0         0         0         0         0
         0         0         0         0         0         0         0         0
         0         0         0         0         0         0         0         0
         0         0         0         0         0         0         0         0
         0         0         0         0         0         0         0         0
         0         0         0         0         0         0         0         0
         0         0         0         0         0         0         0         0
         0         0         0         0         0         0         0         0
         0         0         0         0         0         0         0         0
         0         0         0         0         0         0         0         0
         0         0         0         0         0         0         0         0
         0         0         0         0         0         0         0         0
         0         0         0         0         0         0         0         0
         0         0         0         0         0         0         0         0
         0         0         0         0         0         0         0         0
         0         0         0         0         0         0         0         0
         0         0         0         0         0         0         0         0
         0         0         0         0         0         0         0         0
         0         0         0         0         0         0         0         0
         0         0         0         0         0         0         0         0
         0         0         0         0         0         0         0         0
         0         0         0         0         0         0         0         0
         0         0         0         0         0         0         0         0
         0         0         0         0         0         0         0         0
         0         0         0         0         0         0         0         0
         0         0         0         0         0         0         0         0
         0         0         0         0         0         0         0         0
         0         0         0         0         0         0         0         0
         0         0         0         0         0         0         0         0
         0         0         0         0         0         0         0         0
         0         0         0         0         0         0         0         0
         0         0         0         0         0         0         0         0
         0         0         0         0         0         0         0         0
         0         0         0         0         0         0         0         0
         0         0         0         0         0         0         0         0
         0         0         0         0         0         0         0         0
         0         0         0         0         0         0         0         0
         0         0         0         0         0         0         0         0
         0         0         0         0         0         0         0         0
         0         0         0         0         0         0         0         0
         0         0         0         0         0         0         0         0
         0         0         0         0         0         0         0         0
         0         0         0         0         0         0         0         0
         0         0         0         0         0         0         0         0
         0         0         0         0         0         0         0         0
         0         0         0         0         0         0         0         0
         0         0         0         0         0         0         0         0
         0         0         0         0         0         0         0         0
         0         0         0         0         0         0         0         0
         0         0         0         0         0         0         0         0
         0         0         0         0         0         0         0         0
         0         0         0         0         0         0         0         0
         0         0         0         0         0         0         0         0
         0         0         0         0         0         0         0         0
         0         0         0         0         0         0         0         0
         0         0         0         0         0         0         0         0
         0         0         0         0         0         0         0         0
         0         0         0         0         0         0         0         0
         0         0         0         0         0         0         0         0
         0         0         0         0         0         0         0         0
         0         0         0         0         0         0         0         0
         0         0         0         0         0         0         0         0
         0         0         0         0         0         0         0         0
         0         0         0         0         0         0         0         0
         0         0         0         0         0         0         0         0
         0         0         0         0         0         0         0         0
         0         0         0         0         0         0         0         0
         0         0         0         0         0         0         0         0
         0         0         0         0         0         0         0         0
         0         0         0         0         0         0         0         0
         0         0         0         0         0         0         0         0
         0         0         0         0         0         0         0         0
         0         0         0         0         0         0         0         0
         0         0         0         0         0         0         0         0
         0         0         0         0         0         0         0         0
         0         0         0         0         0         0         0         0
         0         0         0         0         0         0         0         0
         0         0         0         0         0         0         0         0
         0         0         0         0         0         0         0         0
         0         0         0         0         0         0         0         0
         0         0         0         0         0         0         0         0
         0         0         0         0         0         0         0         0
         0         0         0         0         0         0         0         0
         0         0         0         0         0         0         0         0
         0         0         0         0         0         0         0         0
         0         0         0         0         0         0         0         0
         0         0         0         0         0         0         0         0
         0         0         0         0         0         0         0         0
         0         0         0         0         0         0         0         0
         0         0         0         0         0         0         0         0
         0         0         0         0         0         0         0         0
         0         0         0         0         0         0         0         0
         0         0         0         0         0         0         0         0
         0         0         0         0         0         0         0         0
         0         0         0         0         0         0         0         0
         0         0         0         0         0         0         0         0
         0         0         0         0         0         0         0         0
         0         0         0         0         0         0         0         0
         0         0         0         0         0         0         0         0
         0         0         0         0         0         0         0         0
         0         0         0         0         0         0         0         0
         0         0         0         0         0         0         0         0
         0         0         0         0         0         0         0         0
         0         0         0         0         0         0         0         0
         0         0         0         0         0         0         0         0
         0         0         0         0         0         0         0         0
         0         0         0         0         0         0         0         0
         0         0         0         0         0         0         0         0
         0         0         0         0         0         0         0         0
         0         0         0         0         0         0         0         0
         0         0         0         0         0         0         0         0
         0         0         0         0         0         0         0         0
         0         0         0         0         0         0         0         0
         0         0         0         0         0         0         0         0
         0         0         0         0         0         0         0         0
         0         0         0         0         0         0         0         0
         0         0         0         0         0         0         0         0
         0         0         0         0         0         0         0         0
         0         0         0         0         0         0         0         0
         0         0         0         0         0         0         0         0
         0         0         0         0         0         0         0         0
         0         0         0         0         0         0         0         0
         0         0         0         0         0         0         0         0
         0         0         0         0         0         0         0         0
         0         0         0         0         0         0         0         0
         0         0         0         0         0         0         0         0
         0         0         0         0         0         0         0         0
         0         0         0         0         0         0         0         0
         0         0         0         0         0         0         0         0
         0         0         0         0         0         0         0         0
         0         0         0         0         0         0         0         0
         0         0         0         0         0         0         0         0
         0         0         0         0         0         0         0         0
         0         0         0         0         0         0         0         0
         0         0         0         0         0         0         0         0
         0         0         0         0         0         0         0         0
         0         0         0         0         0         0         0         0
         0         0         0         0         0         0         0         0
         0         0         0         0         0         0         0         0
         0         0         0         0         0         0         0         0
         0         0         0         0         0         0         0         0
         0         0         0         0         0         0         0         0
         0         0         0         0         0         0         0         0
         0         0         0         0         0         0         0         0
         0         0         0         0         0         0         0         0
         0         0         0         0         0         0         0         0
         0         0         0         0         0         0         0         0
         0         0         0         0         0         0         0         0
         0         0         0         0         0         0         0         0
         0         0         0         0         0         0         0         0
         0         0         0         0         0         0         0         0
         0         0         0         0         0         0         0         0
         0         0         0         0         0         0         0         0
         0         0         0         0         0         0         0         0
         0         0         0         0         0         0         0         0
         0         0         0         0         0         0         0         0
         0         0         0         0         0         0         0         0
         0         0         0         0         0         0         0         0
         0         0         0         0         0         0         0         0
         0         0         0         0         0         0         0         0
         0         0         0         0         0         0         0         0
         0         0         0         0         0         0         0         0
         0         0         0         0         0         0         0         0
         0         0         0         0         0         0         0         0
         0         0         0         0         0         0         0         0
         0         0         0         0         0         0         0         0
         0         0         0         0         0         0         0         0
         0         0         0         0         0         0         0         0
         0         0         0         0         0         0         0         0
         0         0         0         0         0         0         0         0
         0         0         0         0         0         0         0         0
         0         0         0         0         0         0         0         0
         0         0         0         0         0         0         0         0
         0         0         0         0         0         0         0         0
         0         0         0         0         0         0         0         0
         0         0         0         0         0         0         0         0
         0         0         0         0         0         0         0         0
         0         0         0         0         0         0         0         0
         0         0         0         0         0         0         0         0
         0         0         0         0         0         0         0         0
         0         0         0         0         0         0         0         0
         0         0         0         0         0         0         0         0
         0         0         0         0         0         0         0         0
         0         0         0         0         0         0         0         0
         0         0         0         0         0         0         0         0
         0         0         0         0         0         0         0         0
         0         0         0         0         0         0         0         0
         0         0         0         0         0         0         0         0
         0         0         0         0         0         0         0         0
         0         0         0         0         0         0         0         0
         0         0         0         0         0         0         0         0
         0         0         0         0         0         0         0         0
         0         0         0         0         0         0         0         0
         0         0         0         0         0         0         0         0
         0         0         0         0         0         0         0         0
         0         0         0         0         0         0         0         0
         0         0         0         0         0         0         0         0
         0         0         0         0         0         0         0         0
         0         0         0         0         0         0         0         0
         0         0         0         0         0         0         0         0
         0         0         0         0         0         0         0         0
         0         0         0         0         0         0         0         0
         0         0         0         0         0         0         0         0
         0         0         0         0         0         0         0         0
         0         0         0         0         0         0         0         0
         0         0         0         0         0         0         0         0
         0         0         0         0         0         0         0         0
         0         0         0         0         0         0         0         0
         0         0         0         0         0         0         0         0
         0         0         0         0         0         0         0         0
         0         0         0         0         0         0         0         0
         0         0         0         0         0         0         0         0
         0         0         0         0         0         0         0         0
         0         0         0         0         0         0         0         0
         0         0         0         0         0         0         0         0
         0         0         0         0         0         0         0         0
         0         0         0         0         0         0         0         0
         0         0         0         0         0         0         0         0
         0         0         0         0         0         0         0         0
         0         0         0         0         0         0         0         0
         0         0         0         0         0         0         0         0
         0         0         0         0         0         0         0         0
         0         0         0         0         0         0         0         0
         0         0         0         0         0         0         0         0
         0         0         0         0         0         0         0         0
         0         0         0         0         0         0         0         0
         0         0         0         0         0         0         0         0
         0         0         0         0         0         0         0         0
         0         0         0         0         0         0         0         0
         0         0         0         0         0         0         0         0
         0         0         0         0         0         0         0         0
         0         0         0         0         0         0         0         0
         0         0         0         0         0         0         0         0
         0         0         0         0         0         0         0         0
         0         0         0         0         0         0         0         0
         0         0         0         0         0         0         0         0
         0         0         0         0         0         0         0         0
         0         0         0         0         0         0         0         0
         0         0         0         0         0         0         0         0
         0         0         0         0         0         0         0         0
         0         0         0         0         0         0         0         0
         0         0         0         0         0         0         0         0
         0         0         0         0         0         0         0         0
         0         0         0         0         0         0         0         0
         0         0         0         0         0         0         0         0
         0         0         0         0         0         0         0         0
         0         0         0         0         0         0         0         0
         0         0         0         0         0         0         0         0
         0         0         0         0         0         0         0         0
         0         0         0         0         0         0         0         0
         0         0         0         0         0         0         0         0
         0         0         0         0         0         0         0         0
         0         0         0         0         0         0         0         0
         0         0         0         0         0         0         0         0
         0         0         0         0         0         0         0         0
         0         0         0         0         0         0         0         0
         0         0         0         0         0         0         0         0
         0         0         0         0         0         0         0         0
         0         0         0         0         0         0         0         0
         0         0         0         0         0         0         0         0
         0         0         0         0         0         0         0         0
         0         0         0         0         0         0         0         0
         0         0         0         0         0         0         0         0
         0         0         0         0         0         0         0         0
         0         0         0         0         0         0         0         0
         0         0         0         0         0         0         0         0
         0         0         0         0         0         0         0         0
         0         0         0         0         0         0         0         0
         0         0         0         0         0         0         0         0
         0         0         0         0         0         0         0         0
         0         0         0         0         0         0         0         0
         0         0         0         0         0         0         0         0
         0         0         0         0         0         0         0         0
         0         0         0         0         0         0         0         0
         0         0         0         0         0         0         0         0
         0         0         0         0         0         0         0         0
         0         0         0         0         0         0         0         0
         0         0         0         0         0         0         0         0
         0         0         0         0         0         0         0         0
         0         0         0         0         0         0         0         0
         0         0         0         0         0         0         0         0
         0         0         0         0         0         0         0         0
         0         0         0         0         0         0         0         0
         0         0         0         0         0         0         0         0
         0         0         0         0         0         0         0         0
         0         0         0         0         0         0         0         0
         0         0         0         0         0         0         0         0
         0         0         0         0         0         0         0         0
         0         0         0         0         0         0         0         0
         0         0         0         0         0         0         0         0
         0         0         0         0         0         0         0         0
         0         0         0         0         0         0         0         0
         0         0         0         0         0         0         0         0
         0         0         0         0         0         0         0         0
         0         0         0         0         0         0         0         0
         0         0         0         0         0         0         0         0
         0         0         0         0         0         0         0         0
         0         0         0         0         0         0         0         0
         0         0         0         0         0         0         0         0
         0         0         0         0         0         0         0         0
         0         0         0         0         0         0         0         0
         0         0         0         0         0         0         0         0
         0         0         0         0         0         0         0         0
         0         0         0         0         0         0         0         0
         0         0         0         0         0         0         0         0
         0         0         0         0         0         0         0         0
         0         0         0         0         0         0         0         0
         0         0         0         0         0         0         0         0
         0         0         0         0         0         0         0         0
         0         0         0         0         0         0         0         0
         0         0         0         0         0         0         0         0
         0         0         0         0         0         0         0         0
         0         0         0         0         0         0         0         0
         0         0         0         0         0         0         0         0
         0         0         0         0         0         0         0         0
         0         0         0         0         0         0         0         0
         0         0         0         0         0         0         0         0
         0         0         0         0         0         0         0         0
         0         0         0         0         0         0         0         0
         0         0         0         0         0         0         0         0
         0         0         0         0         0         0         0         0
         0         0         0         0         0         0         0         0
         0         0         0         0         0         0         0         0
         0         0         0         0         0         0         0         0
         0         0         0         0         0         0         0         0
         0         0         0         0         0         0         0         0
         0         0         0         0         0         0         0         0
         0         0         0         0         0         0         0         0
         0         0         0         0         0         0         0         0
         0         0         0         0         0         0         0         0
         0         0         0         0         0         0         0         0
         0         0         0         0         0         0         0         0
         0         0         0         0         0         0         0         0
         0         0         0         0         0         0         0         0
         0         0         0         0         0         0         0         0
         0         0         0         0         0         0         0         0
         0         0         0         0         0         0         0         0
         0         0         0         0         0         0         0         0
         0         0         0         0         0         0         0         0
         0         0         0         0         0         0         0         0
         0         0         0         0         0         0         0         0
         0         0         0         0         0         0         0         0
         0         0         0         0         0         0         0         0
         0         0         0         0         0         0         0         0
         0         0         0         0         0         0         0         0
         0         0         0         0         0         0         0         0
         0         0         0         0         0         0         0         0
         0         0         0         0         0         0         0         0
         0         0         0         0         0         0         0         0
         0         0         0         0         0         0         0         0
         0         0         0         0         0         0         0         0
         0         0         0         0         0         0         0         0
         0         0         0         0         0         0         0         0
         0         0         0         0         0         0         0         0
         0         0         0         0         0         0         0         0
         0         0         0         0         0         0         0         0
         0         0         0         0         0         0         0         0
         0         0         0         0         0         0         0         0
         0         0         0         0         0         0         0         0
         0         0         0         0         0         0         0         0
         0         0         0         0         0         0         0         0
         0         0         0         0         0         0         0         0
         0         0         0         0         0         0         0         0
         0         0         0         0         0         0         0         0
         0         0         0         0         0         0         0         0
         0         0         0         0         0         0         0         0
         0         0         0         0         0         0         0         0
         0         0         0         0         0         0         0         0
         0         0         0         0         0         0         0         0
         0         0         0         0         0         0         0         0
         0         0         0         0         0         0         0         0
         0         0         0         0         0         0         0         0
         0         0         0         0         0         0         0         0
         0         0         0         0         0         0         0         0
         0         0         0         0         0         0         0         0
         0         0         0         0         0         0         0         0
         0         0         0         0         0         0         0         0
         0         0         0         0         0         0         0         0
         0         0         0         0         0         0         0         0
         0         0         0         0         0         0         0         0
         0         0         0         0         0         0         0         0
         0         0         0         0         0         0         0         0
         0         0         0         0         0         0         0         0
         0         0         0         0         0         0         0         0
         0         0         0         0         0         0         0         0
         0         0         0         0         0         0         0         0
         0         0         0         0         0         0         0         0
         0         0         0         0         0         0         0         0
         0         0         0         0         0         0         0         0
         0         0         0         0         0         0         0         0
         0         0         0         0         0         0         0         0
         0         0         0         0         0         0         0         0
         0         0         0         0         0         0         0         0
         0         0         0         0         0         0         0         0
         0         0         0         0         0         0         0         0
         0         0         0         0         0         0         0         0
         0         0         0         0         0         0         0         0
         0         0         0         0         0         0         0         0
         0         0         0         0         0         0         0         0
         0         0         0         0         0         0         0         0
         0         0         0         0         0         0         0         0
         0         0         0         0         0         0         0         0
         0         0         0         0         0         0         0         0
         0         0         0         0         0         0         0         0
         0         0         0         0         0         0         0         0
         0         0         0         0         0         0         0         0
         0         0         0         0         0         0         0         0
         0         0         0         0         0         0         0         0
         0         0         0         0         0         0         0         0
         0         0         0         0         0         0         0         0
         0         0         0         0         0         0         0         0
         0         0         0         0         0         0         0         0
         0         0         0         0         0         0         0         0
         0         0         0         0         0         0         0         0
         0         0         0         0         0         0         0         0
         0         0         0         0         0         0         0         0
         0         0         0         0         0         0         0         0
         0         0         0         0         0         0         0         0
         0         0         0         0         0         0         0         0
         0         0         0         0         0         0         0         0
         0         0         0         0         0         0         0         0
         0         0         0         0         0         0         0         0
         0         0         0         0         0         0         0         0
         0         0         0         0         0         0         0         0
         0         0         0         0         0         0         0         0
         0         0         0         0         0         0         0         0
         0         0         0         0         0         0         0         0
         0         0         0         0         0         0         0         0
         0         0         0         0         0         0         0         0
         0         0         0         0         0         0         0         0
         0         0         0         0         0         0         0         0
         0         0         0         0         0         0         0         0
         0         0         0         0         0         0         0         0
         0         0         0         0         0         0         0         0
         0         0         0         0         0         0         0         0
         0         0         0         0         0         0         0         0
         0         0         0         0         0         0         0         0
         0         0         0         0         0         0         0         0
         0         0         0         0         0         0         0         0
         0         0         0         0         0         0         0         0
         0         0         0         0         0         0         0         0
         0         0         0         0         0         0         0         0
         0         0         0         0         0         0         0         0
         0         0         0         0         0         0         0         0
         0         0         0         0         0         0         0         0
         0         0         0         0         0         0         0         0
         0         0         0         0         0         0         0         0
         0         0         0         0         0         0         0         0
         0         0         0         0         0         0         0         0
         0         0         0         0         0         0         0         0
         0         0         0         0         0         0         0         0
         0         0         0         0         0         0         0         0
         0         0         0         0         0         0         0         0
         0         0         0         0         0         0         0         0
         0         0         0         0         0         0         0         0
         0         0         0         0         0         0         0         0
         0         0         0         0         0         0         0         0
         0         0         0         0         0         0         0         0
         0         0         0         0         0         0         0         0
         0         0         0         0         0         0         0         0
         0         0         0         0         0         0         0         0
         0         0         0         0         0         0         0         0
         0         0         0         0         0         0         0         0
         0         0         0         0         0         0         0         0
         0         0         0         0         0         0         0         0
         0         0         0         0         0         0         0         0
         0         0         0         0         0         0         0         0
         0         0         0         0         0         0         0         0
         0         0         0         0         0         0         0         0
         0         0         0         0         0         0         0         0
         0         0         0         0         0         0         0         0
         0         0         0         0         0         0         0         0
         0         0         0         0         0         0         0         0
         0         0         0         0         0         0         0         0
         0         0         0         0         0         0         0         0
         0         0         0         0         0         0         0         0
         0         0         0         0         0         0         0         0
         0         0         0         0         0         0         0         0
         0         0         0         0         0         0         0         0
         0         0         0         0         0         0         0         0
         0         0         0         0         0         0         0         0
         0         0         0         0         0         0         0         0
         0         0         0         0         0         0         0         0
         0         0         0         0         0         0         0         0
         0         0         0         0         0         0         0         0
         0         0         0         0         0         0         0         0
         0         0         0         0         0         0         0         0
         0         0         0         0         0         0         0         0
         0         0         0         0         0         0         0         0
         0         0         0         0         0         0         0         0
         0         0         0         0         0         0         0         0
         0         0         0         0         0         0         0         0
         0         0         0         0         0         0         0         0
         0         0         0         0         0         0         0         0
         0         0         0         0         0         0         0         0
         0         0         0         0         0         0         0         0
         0         0         0         0         0         0         0         0
         0         0         0         0         0         0         0         0
         0         0         0         0         0         0         0         0
         0         0         0         0         0         0         0         0
         0         0         0         0         0         0         0         0
         0         0         0         0         0         0         0         0
         0         0         0         0         0         0         0         0
         0         0         0         0         0         0         0         0
         0         0         0         0         0         0         0         0
         0         0         0         0         0         0         0         0
         0         0         0         0         0         0         0         0
         0         0         0         0         0         0         0         0
         0         0         0         0         0         0         0         0
         0         0         0         0         0         0         0         0
         0         0         0         0         0         0         0         0
         0         0         0         0         0         0         0         0
         0         0         0         0         0         0         0         0
         0         0         0         0         0         0         0         0
         0         0         0         0         0         0         0         0
         0         0         0         0         0         0         0         0
         0         0         0         0         0         0         0         0
         0         0         0         0         0         0         0         0
         0         0         0         0         0         0         0         0
         0         0         0         0         0         0         0         0
         0         0         0         0         0         0         0         0
         0         0         0         0         0         0         0         0
         0         0         0         0         0         0         0         0
         0         0         0         0         0         0         0         0
         0         0         0         0         0         0         0         0
         0         0         0         0         0         0         0         0
         0         0         0         0         0         0         0         0
         0         0         0         0         0         0         0         0
         0         0         0         0         0         0         0         0
         0         0         0         0         0         0         0         0
         0         0         0         0         0         0         0         0
         0         0         0         0         0         0         0         0
         0         0         0         0         0         0         0         0
         0         0         0         0         0         0         0         0
         0         0         0         0         0         0         0         0
         0         0         0         0         0         0         0         0
         0         0         0         0         0         0         0         0
         0         0         0         0         0         0         0         0
         0         0         0         0         0         0         0         0
         0         0         0         0         0         0         0         0
         0         0         0         0         0         0         0         0
         0         0         0         0         0         0         0         0
         0         0         0         0         0         0         0         0
         0         0         0         0         0         0         0         0
         0         0         0         0         0         0         0         0
         0         0         0         0
     18718     18717     18719         0         1
     18721     18720     18722         0         1
     18724     18723     18725         0         1
     18727     18726     18728         0         1
     18730     18729     18731         0         1
     18733     18732     18734         0         1
     18736     18735     18737         0         1
     18739     18738     18740         0         1
     18742     18741     18743         0         1
     18745     18744     18746         0         1
     18748     18747     18749         0         1
     18751     18750     18752         0         1
     18754     18753     18755         0         1
     18757     18756     18758         0         1
     18760     18759     18761         0         1
     18763     18762     18764         0         1
     18766     18765     18767         0         1
     18769     18768     18770         0         1
     18772     18771     18773         0         1
     18775     18774     18776         0         1
     18778     18777     18779         0         1
     18781     18780     18782         0         1
     18784     18783     18785         0         1
     18787     18786     18788         0         1
     18790     18789     18791         0         1
     18793     18792     18794         0         1
     18796     18795     18797         0         1
     18799     18798     18800         0         1
     18802     18801     18803         0         1
     18805     18804     18806         0         1
     18808     18807     18809         0         1
     18811     18810     18812         0         1
     18814     18813     18815         0         1
     18817     18816     18818         0         1
     18820     18819     18821         0         1
     18823     18822     18824         0         1
     18826     18825     18827         0         1
     18829     18828     18830         0         1
     18832     18831     18833         0         1
     18835     18834     18836         0         1
     18838     18837     18839         0         1
     18841     18840     18842         0         1
     18844     18843     18845         0         1
     18847     18846     18848         0         1
     18850     18849     18851         0         1
     18853     18852     18854         0         1
     18856     18855     18857         0         1
     18859     18858     18860         0         1
     18862     18861     18863         0         1
     18865     18864     18866         0         1
     18868     18867     18869         0         1
     18871     18870     18872         0         1
     18874     18873     18875         0         1
     18877     18876     18878         0         1
     18880     18879     18881         0         1
     18883     18882     18884         0         1
     18886     18885     18887         0         1
     18889     18888     18890         0         1
     18892     18891     18893         0         1
     18895     18894     18896         0         1
     18898     18897     18899         0         1
     18901     18900     18902         0         1
     18904     18903     18905         0         1
     18907     18906     18908         0         1
     18910     18909     18911         0         1
     18913     18912     18914         0         1
     18916     18915     18917         0         1
     18919     18918     18920         0         1
     18922     18921     18923         0         1
     18925     18924     18926         0         1
     18928     18927     18929         0         1
     18931     18930     18932         0         1
     18934     18933     18935         0         1
     18937     18936     18938         0         1
     18940     18939     18941         0         1
     18943     18942     18944         0         1
     18946     18945     18947         0         1
     18949     18948     18950         0         1
     18952     18951     18953         0         1
     18955     18954     18956         0         1
     18958     18957     18959         0         1
     18961     18960     18962         0         1
     18964     18963     18965         0         1
     18967     18966     18968         0         1
     18970     18969     18971         0         1
     18973     18972     18974         0         1
     18976     18975     18977         0         1
     18979     18978     18980         0         1
     18982     18981     18983         0         1
     18985     18984     18986         0         1
     18988     18987     18989         0         1
     18991     18990     18992         0         1
     18994     18993     18995         0         1
     18997     18996     18998         0         1
     19000     18999     19001         0         1
     19003     19002     19004         0         1
     19006     19005     19007         0         1
     19009     19008     19010         0         1
     19012     19011     19013         0         1
     19015     19014     19016         0         1
     19018     19017     19019         0         1
     19021     19020     19022         0         1
     19024     19023     19025         0         1
     19027     19026     19028         0         1
     19030     19029     19031         0         1
     19033     19032     19034         0         1
     19036     19035     19037         0         1
     19039     19038     19040         0         1
     19042     19041     19043         0         1
     19045     19044     19046         0         1
     19048     19047     19049         0         1
     19051     19050     19052         0         1
     19054     19053     19055         0         1
     19057     19056     19058         0         1
     19060     19059     19061         0         1
     19063     19062     19064         0         1
     19066     19065     19067         0         1
     19069     19068     19070         0         1
     19072     19071     19073         0         1
     19075     19074     19076         0         1
     19078     19077     19079         0         1
     19081     19080     19082         0         1
     19084     19083     19085         0         1
     19087     19086     19088         0         1
     19090     19089     19091         0         1
     19093     19092     19094         0         1
     19096     19095     19097         0         1
     19099     19098     19100         0         1
     19102     19101     19103         0         1
     19105     19104     19106         0         1
     19108     19107     19109         0         1
     19111     19110     19112         0         1
     19114     19113     19115         0         1
     19117     19116     19118         0         1
     19120     19119     19121         0         1
     19123     19122     19124         0         1
     19126     19125     19127         0         1
     19129     19128     19130         0         1
     19132     19131     19133         0         1
     19135     19134     19136         0         1
     19138     19137     19139         0         1
     19141     19140     19142         0         1
     19144     19143     19145         0         1
     19147     19146     19148         0         1
     19150     19149     19151         0         1
     19153     19152     19154         0         1
     19156     19155     19157         0         1
     19159     19158     19160         0         1
     19162     19161     19163         0         1
     19165     19164     19166         0         1
     19168     19167     19169         0         1
     19171     19170     19172         0         1
     19174     19173     19175         0         1
     19177     19176     19178         0         1
     19180     19179     19181         0         1
     19183     19182     19184         0         1
     19186     19185     19187         0         1
     19189     19188     19190         0         1
     19192     19191     19193         0         1
     19195     19194     19196         0         1
     19198     19197     19199         0         1
     19201     19200     19202         0         1
     19204     19203     19205         0         1
     19207     19206     19208         0         1
     19210     19209     19211         0         1
     19213     19212     19214         0         1
     19216     19215     19217         0         1
     19219     19218     19220         0         1
     19222     19221     19223         0         1
     19225     19224     19226         0         1
     19228     19227     19229         0         1
     19231     19230     19232         0         1
     19234     19233     19235         0         1
     19237     19236     19238         0         1
     19240     19239     19241         0         1
     19243     19242     19244         0         1
     19246     19245     19247         0         1
     19249     19248     19250         0         1
     19252     19251     19253         0         1
     19255     19254     19256         0         1
     19258     19257     19259         0         1
     19261     19260     19262         0         1
     19264     19263     19265         0         1
     19267     19266     19268         0         1
     19270     19269     19271         0         1
     19273     19272     19274         0         1
     19276     19275     19277         0         1
     19279     19278     19280         0         1
     19282     19281     19283         0         1
     19285     19284     19286         0         1
     19288     19287     19289         0         1
     19291     19290     19292         0         1
     19294     19293     19295         0         1
     19297     19296     19298         0         1
     19300     19299     19301         0         1
     19303     19302     19304         0         1
     19306     19305     19307         0         1
     19309     19308     19310         0         1
     19312     19311     19313         0         1
     19315     19314     19316         0         1
     19318     19317     19319         0         1
     19321     19320     19322         0         1
     19324     19323     19325         0         1
     19327     19326     19328         0         1
     19330     19329     19331         0         1
     19333     19332     19334         0         1
     19336     19335     19337         0         1
     19339     19338     19340         0         1
     19342     19341     19343         0         1
     19345     19344     19346         0         1
     19348     19347     19349         0         1
     19351     19350     19352         0         1
     19354     19353     19355         0         1
     19357     19356     19358         0         1
     19360     19359     19361         0         1
     19363     19362     19364         0         1
     19366     19365     19367         0         1
     19369     19368     19370         0         1
     19372     19371     19373         0         1
     19375     19374     19376         0         1
     19378     19377     19379         0         1
     19381     19380     19382         0         1
     19384     19383     19385         0         1
     19387     19386     19388         0         1
     19390     19389     19391         0         1
     19393     19392     19394         0         1
     19396     19395     19397         0         1
     19399     19398     19400         0         1
     19402     19401     19403         0         1
     19405     19404     19406         0         1
     19408     19407     19409         0         1
     19411     19410     19412         0         1
     19414     19413     19415         0         1
     19417     19416     19418         0         1
     19420     19419     19421         0         1
     19423     19422     19424         0         1
     19426     19425     19427         0         1
     19429     19428     19430         0         1
     19432     19431     19433         0         1
     19435     19434     19436         0         1
     19438     19437     19439         0         1
     19441     19440     19442         0         1
     19444     19443     19445         0         1
     19447     19446     19448         0         1
     19450     19449     19451         0         1
     19453     19452     19454         0         1
     19456     19455     19457         0         1
     19459     19458     19460         0         1
     19462     19461     19463         0         1
     19465     19464     19466         0         1
     19468     19467     19469         0         1
     19471     19470     19472         0         1
     19474     19473     19475         0         1
     19477     19476     19478         0         1
     19480     19479     19481         0         1
     19483     19482     19484         0         1
     19486     19485     19487         0         1
     19489     19488     19490         0         1
     19492     19491     19493         0         1
     19495     19494     19496         0         1
     19498     19497     19499         0         1
     19501     19500     19502         0         1
     19504     19503     19505         0         1
     19507     19506     19508         0         1
     19510     19509     19511         0         1
     19513     19512     19514         0         1
     19516     19515     19517         0         1
     19519     19518     19520         0         1
     19522     19521     19523         0         1
     19525     19524     19526         0         1
     19528     19527     19529         0         1
     19531     19530     19532         0         1
     19534     19533     19535         0         1
     19537     19536     19538         0         1
     19540     19539     19541         0         1
     19543     19542     19544         0         1
     19546     19545     19547         0         1
     19549     19548     19550         0         1
     19552     19551     19553         0         1
     19555     19554     19556         0         1
     19558     19557     19559         0         1
     19561     19560     19562         0         1
     19564     19563     19565         0         1
     19567     19566     19568         0         1
     19570     19569     19571         0         1
     19573     19572     19574         0         1
     19576     19575     19577         0         1
     19579     19578     19580         0         1
     19582     19581     19583         0         1
     19585     19584     19586         0         1
     19588     19587     19589         0         1
     19591     19590     19592         0         1
     19594     19593     19595         0         1
     19597     19596     19598         0         1
     19600     19599     19601         0         1
     19603     19602     19604         0         1
     19606     19605     19607         0         1
     19609     19608     19610         0         1
     19612     19611     19613         0         1
     19615     19614     19616         0         1
     19618     19617     19619         0         1
     19621     19620     19622         0         1
     19624     19623     19625         0         1
     19627     19626     19628         0         1
     19630     19629     19631         0         1
     19633     19632     19634         0         1
     19636     19635     19637         0         1
     19639     19638     19640         0         1
     19642     19641     19643         0         1
     19645     19644     19646         0         1
     19648     19647     19649         0         1
     19651     19650     19652         0         1
     19654     19653     19655         0         1
     19657     19656     19658         0         1
     19660     19659     19661         0         1
     19663     19662     19664         0         1
     19666     19665     19667         0         1
     19669     19668     19670         0         1
     19672     19671     19673         0         1
     19675     19674     19676         0         1
     19678     19677     19679         0         1
     19681     19680     19682         0         1
     19684     19683     19685         0         1
     19687     19686     19688         0         1
     19690     19689     19691         0         1
     19693     19692     19694         0         1
     19696     19695     19697         0         1
     19699     19698     19700         0         1
     19702     19701     19703         0         1
     19705     19704     19706         0         1
     19708     19707     19709         0         1
     19711     19710     19712         0         1
     19714     19713     19715         0         1
     19717     19716     19718         0         1
     19720     19719     19721         0         1
     19723     19722     19724         0         1
     19726     19725     19727         0         1
     19729     19728     19730         0         1
     19732     19731     19733         0         1
     19735     19734     19736         0         1
     19738     19737     19739         0         1
     19741     19740     19742         0         1
     19744     19743     19745         0         1
     19747     19746     19748         0         1
     19750     19749     19751         0         1
     19753     19752     19754         0         1
     19756     19755     19757         0         1
     19759     19758     19760         0         1
     19762     19761     19763         0         1
     19765     19764     19766         0         1
     19768     19767     19769         0         1
     19771     19770     19772         0         1
     19774     19773     19775         0         1
     19777     19776     19778         0         1
     19780     19779     19781         0         1
     19783     19782     19784         0         1
     19786     19785     19787         0         1
     19789     19788     19790         0         1
     19792     19791     19793         0         1
     19795     19794     19796         0         1
     19798     19797     19799         0         1
     19801     19800     19802         0         1
     19804     19803     19805         0         1
     19807     19806     19808         0         1
     19810     19809     19811         0         1
     19813     19812     19814         0         1
     19816     19815     19817         0         1
     19819     19818     19820         0         1
     19822     19821     19823         0         1
     19825     19824     19826         0         1
     19828     19827     19829         0         1
     19831     19830     19832         0         1
     19834     19833     19835         0         1
     19837     19836     19838         0         1
     19840     19839     19841         0         1
     19843     19842     19844         0         1
     19846     19845     19847         0         1
     19849     19848     19850         0         1
     19852     19851     19853         0         1
     19855     19854     19856         0         1
     19858     19857     19859         0         1
     19861     19860     19862         0         1
     19864     19863     19865         0         1
     19867     19866     19868         0         1
     19870     19869     19871         0         1
     19873     19872     19874         0         1
     19876     19875     19877         0         1
     19879     19878     19880         0         1
     19882     19881     19883         0         1
     19885     19884     19886         0         1
     19888     19887     19889         0         1
     19891     19890     19892         0         1
     19894     19893     19895         0         1
     19897     19896     19898         0         1
     19900     19899     19901         0         1
     19903     19902     19904         0         1
     19906     19905     19907         0         1
     19909     19908     19910         0         1
     19912     19911     19913         0         1
     19915     19914     19916         0         1
     19918     19917     19919         0         1
     19921     19920     19922         0         1
     19924     19923     19925         0         1
     19927     19926     19928         0         1
     19930     19929     19931         0         1
     19933     19932     19934         0         1
     19936     19935     19937         0         1
     19939     19938     19940         0         1
     19942     19941     19943         0         1
     19945     19944     19946         0         1
     19948     19947     19949         0         1
     19951     19950     19952         0         1
     19954     19953     19955         0         1
     19957     19956     19958         0         1
     19960     19959     19961         0         1
     19963     19962     19964         0         1
     19966     19965     19967         0         1
     19969     19968     19970         0         1
     19972     19971     19973         0         1
     19975     19974     19976         0         1
     19978     19977     19979         0         1
     19981     19980     19982         0         1
     19984     19983     19985         0         1
     19987     19986     19988         0         1
     19990     19989     19991         0         1
     19993     19992     19994         0         1
     19996     19995     19997         0         1
     19999     19998     20000         0         1
     20002     20001     20003         0         1
     20005     20004     20006         0         1
     20008     20007     20009         0         1
     20011     20010     20012         0         1
     20014     20013     20015         0         1
     20017     20016     20018         0         1
     20020     20019     20021         0         1
     20023     20022     20024         0         1
     20026     20025     20027         0         1
     20029     20028     20030         0         1
     20032     20031     20033         0         1
     20035     20034     20036         0         1
     20038     20037     20039         0         1
     20041     20040     20042         0         1
     20044     20043     20045         0         1
     20047     20046     20048         0         1
     20050     20049     20051         0         1
     20053     20052     20054         0         1
     20056     20055     20057         0         1
     20059     20058     20060         0         1
     20062     20061     20063         0         1
     20065     20064     20066         0         1
     20068     20067     20069         0         1
     20071     20070     20072         0         1
     20074     20073     20075         0         1
     20077     20076     20078         0         1
     20080     20079     20081         0         1
     20083     20082     20084         0         1
     20086     20085     20087         0         1
     20089     20088     20090         0         1
     20092     20091     20093         0         1
     20095     20094     20096         0         1
     20098     20097     20099         0         1
     20101     20100     20102         0         1
     20104     20103     20105         0         1
     20107     20106     20108         0         1
     20110     20109     20111         0         1
     20113     20112     20114         0         1
     20116     20115     20117         0         1
     20119     20118     20120         0         1
     20122     20121     20123         0         1
     20125     20124     20126         0         1
     20128     20127     20129         0         1
     20131     20130     20132         0         1
     20134     20133     20135         0         1
     20137     20136     20138         0         1
     20140     20139     20141         0         1
     20143     20142     20144         0         1
     20146     20145     20147         0         1
     20149     20148     20150         0         1
     20152     20151     20153         0         1
     20155     20154     20156         0         1
     20158     20157     20159         0         1
     20161     20160     20162         0         1
     20164     20163     20165         0         1
     20167     20166     20168         0         1
     20170     20169     20171         0         1
     20173     20172     20174         0         1
     20176     20175     20177         0         1
     20179     20178     20180         0         1
     20182     20181     20183         0         1
     20185     20184     20186         0         1
     20188     20187     20189         0         1
     20191     20190     20192         0         1
     20194     20193     20195         0         1
     20197     20196     20198         0         1
     20200     20199     20201         0         1
     20203     20202     20204         0         1
     20206     20205     20207         0         1
     20209     20208     20210         0         1
     20212     20211     20213         0         1
     20215     20214     20216         0         1
     20218     20217     20219         0         1
     20221     20220     20222         0         1
     20224     20223     20225         0         1
     20227     20226     20228         0         1
     20230     20229     20231         0         1
     20233     20232     20234         0         1
     20236     20235     20237         0         1
     20239     20238     20240         0         1
     20242     20241     20243         0         1
     20245     20244     20246         0         1
     20248     20247     20249         0         1
     20251     20250     20252         0         1
     20254     20253     20255         0         1
     20257     20256     20258         0         1
     20260     20259     20261         0         1
     20263     20262     20264         0         1
     20266     20265     20267         0         1
     20269     20268     20270         0         1
     20272     20271     20273         0         1
     20275     20274     20276         0         1
     20278     20277     20279         0         1
     20281     20280     20282         0         1
     20284     20283     20285         0         1
     20287     20286     20288         0         1
     20290     20289     20291         0         1
     20293     20292     20294         0         1
     20296     20295     20297         0         1
     20299     20298     20300         0         1
     20302     20301     20303         0         1
     20305     20304     20306         0         1
     20308     20307     20309         0         1
     20311     20310     20312         0         1
     20314     20313     20315         0         1
     20317     20316     20318         0         1
     20320     20319     20321         0         1
     20323     20322     20324         0         1
     20326     20325     20327         0         1
     20329     20328     20330         0         1
     20332     20331     20333         0         1
     20335     20334     20336         0         1
     20338     20337     20339         0         1
     20341     20340     20342         0         1
     20344     20343     20345         0         1
     20347     20346     20348         0         1
     20350     20349     20351         0         1
     20353     20352     20354         0         1
     20356     20355     20357         0         1
     20359     20358     20360         0         1
     20362     20361     20363         0         1
     20365     20364     20366         0         1
     20368     20367     20369         0         1
     20371     20370     20372         0         1
     20374     20373     20375         0         1
     20377     20376     20378         0         1
     20380     20379     20381         0         1
     20383     20382     20384         0         1
     20386     20385     20387         0         1
     20389     20388     20390         0         1
     20392     20391     20393         0         1
     20395     20394     20396         0         1
     20398     20397     20399         0         1
     20401     20400     20402         0         1
     20404     20403     20405         0         1
     20407     20406     20408         0         1
     20410     20409     20411         0         1
     20413     20412     20414         0         1
     20416     20415     20417         0         1
     20419     20418     20420         0         1
     20422     20421     20423         0         1
     20425     20424     20426         0         1
     20428     20427     20429         0         1
     20431     20430     20432         0         1
     20434     20433     20435         0         1
     20437     20436     20438         0         1
     20440     20439     20441         0         1
     20443     20442     20444         0         1
     20446     20445     20447         0         1
     20449     20448     20450         0         1
     20452     20451     20453         0         1
     20455     20454     20456         0         1
     20458     20457     20459         0         1
     20461     20460     20462         0         1
     20464     20463     20465         0         1
     20467     20466     20468         0         1
     20470     20469     20471         0         1
     20473     20472     20474         0         1
     20476     20475     20477         0         1
     20479     20478     20480         0         1
     20482     20481     20483         0         1
     20485     20484     20486         0         1
     20488     20487     20489         0         1
     20491     20490     20492         0         1
     20494     20493     20495         0         1
     20497     20496     20498         0         1
     20500     20499     20501         0         1
     20503     20502     20504         0         1
     20506     20505     20507         0         1
     20509     20508     20510         0         1
     20512     20511     20513         0         1
     20515     20514     20516         0         1
     20518     20517     20519         0         1
     20521     20520     20522         0         1
     20524     20523     20525         0         1
     20527     20526     20528         0         1
     20530     20529     20531         0         1
     20533     20532     20534         0         1
     20536     20535     20537         0         1
     20539     20538     20540         0         1
     20542     20541     20543         0         1
     20545     20544     20546         0         1
     20548     20547     20549         0         1
     20551     20550     20552         0         1
     20554     20553     20555         0         1
     20557     20556     20558         0         1
     20560     20559     20561         0         1
     20563     20562     20564         0         1
     20566     20565     20567         0         1
     20569     20568     20570         0         1
     20572     20571     20573         0         1
     20575     20574     20576         0         1
     20578     20577     20579         0         1
     20581     20580     20582         0         1
     20584     20583     20585         0         1
     20587     20586     20588         0         1
     20590     20589     20591         0         1
     20593     20592     20594         0         1
     20596     20595     20597         0         1
     20599     20598     20600         0         1
     20602     20601     20603         0         1
     20605     20604     20606         0         1
     20608     20607     20609         0         1
     20611     20610     20612         0         1
     20614     20613     20615         0         1
     20617     20616     20618         0         1
     20620     20619     20621         0         1
     20623     20622     20624         0         1
     20626     20625     20627         0         1
     20629     20628     20630         0         1
     20632     20631     20633         0         1
     20635     20634     20636         0         1
     20638     20637     20639         0         1
     20641     20640     20642         0         1
     20644     20643     20645         0         1
     20647     20646     20648         0         1
     20650     20649     20651         0         1
     20653     20652     20654         0         1
     20656     20655     20657         0         1
     20659     20658     20660         0         1
     20662     20661     20663         0         1
     20665     20664     20666         0         1
     20668     20667     20669         0         1
     20671     20670     20672         0         1
     20674     20673     20675         0         1
     20677     20676     20678         0         1
     20680     20679     20681         0         1
     20683     20682     20684         0         1
     20686     20685     20687         0         1
     20689     20688     20690         0         1
     20692     20691     20693         0         1
     20695     20694     20696         0         1
     20698     20697     20699         0         1
     20701     20700     20702         0         1
     20704     20703     20705         0         1
     20707     20706     20708         0         1
     20710     20709     20711         0         1
     20713     20712     20714         0         1
     20716     20715     20717         0         1
     20719     20718     20720         0         1
     20722     20721     20723         0         1
     20725     20724     20726         0         1
     20728     20727     20729         0         1
     20731     20730     20732         0         1
     20734     20733     20735         0         1
     20737     20736     20738         0         1
     20740     20739     20741         0         1
     20743     20742     20744         0         1
     20746     20745     20747         0         1
     20749     20748     20750         0         1
     20752     20751     20753         0         1
     20755     20754     20756         0         1
     20758     20757     20759         0         1
     20761     20760     20762         0         1
     20764     20763     20765         0         1
     20767     20766     20768         0         1
     20770     20769     20771         0         1
     20773     20772     20774         0         1
     20776     20775     20777         0         1
     20779     20778     20780         0         1
     20782     20781     20783         0         1
     20785     20784     20786         0         1
     20788     20787     20789         0         1
     20791     20790     20792         0         1
     20794     20793     20795         0         1
     20797     20796     20798         0         1
     20800     20799     20801         0         1
     20803     20802     20804         0         1
     20806     20805     20807         0         1
     20809     20808     20810         0         1
     20812     20811     20813         0         1
     20815     20814     20816         0         1
     20818     20817     20819         0         1
     20821     20820     20822         0         1
     20824     20823     20825         0         1
     20827     20826     20828         0         1
     20830     20829     20831         0         1
     20833     20832     20834         0         1
     20836     20835     20837         0         1
     20839     20838     20840         0         1
     20842     20841     20843         0         1
     20845     20844     20846         0         1
     20848     20847     20849         0         1
     20851     20850     20852         0         1
     20854     20853     20855         0         1
     20857     20856     20858         0         1
     20860     20859     20861         0         1
     20863     20862     20864         0         1
     20866     20865     20867         0         1
     20869     20868     20870         0         1
     20872     20871     20873         0         1
     20875     20874     20876         0         1
     20878     20877     20879         0         1
     20881     20880     20882         0         1
     20884     20883     20885         0         1
     20887     20886     20888         0         1
     20890     20889     20891         0         1
     20893     20892     20894         0         1
     20896     20895     20897         0         1
     20899     20898     20900         0         1
     20902     20901     20903         0         1
     20905     20904     20906         0         1
     20908     20907     20909         0         1
     20911     20910     20912         0         1
     20914     20913     20915         0         1
     20917     20916     20918         0         1
     20920     20919     20921         0         1
     20923     20922     20924         0         1
     20926     20925     20927         0         1
     20929     20928     20930         0         1
     20932     20931     20933         0         1
     20935     20934     20936         0         1
     20938     20937     20939         0         1
     20941     20940     20942         0         1
     20944     20943     20945         0         1
     20947     20946     20948         0         1
     20950     20949     20951         0         1
     20953     20952     20954         0         1
     20956     20955     20957         0         1
     20959     20958     20960         0         1
     20962     20961     20963         0         1
     20965     20964     20966         0         1
     20968     20967     20969         0         1
     20971     20970     20972         0         1
     20974     20973     20975         0         1
     20977     20976     20978         0         1
     20980     20979     20981         0         1
     20983     20982     20984         0         1
     20986     20985     20987         0         1
     20989     20988     20990         0         1
     20992     20991     20993         0         1
     20995     20994     20996         0         1
     20998     20997     20999         0         1
     21001     21000     21002         0         1
     21004     21003     21005         0         1
     21007     21006     21008         0         1
     21010     21009     21011         0         1
     21013     21012     21014         0         1
     21016     21015     21017         0         1
     21019     21018     21020         0         1
     21022     21021     21023         0         1
     21025     21024     21026         0         1
     21028     21027     21029         0         1
     21031     21030     21032         0         1
     21034     21033     21035         0         1
     21037     21036     21038         0         1
     21040     21039     21041         0         1
     21043     21042     21044         0         1
     21046     21045     21047         0         1
     21049     21048     21050         0         1
     21052     21051     21053         0         1
     21055     21054     21056         0         1
     21058     21057     21059         0         1
     21061     21060     21062         0         1
     21064     21063     21065         0         1
     21067     21066     21068         0         1
     21070     21069     21071         0         1
     21073     21072     21074         0         1
     21076     21075     21077         0         1
     21079     21078     21080         0         1
     21082     21081     21083         0         1
     21085     21084     21086         0         1
     21088     21087     21089         0         1
     21091     21090     21092         0         1
     21094     21093     21095         0         1
     21097     21096     21098         0         1
     21100     21099     21101         0         1
     21103     21102     21104         0         1
     21106     21105     21107         0         1
     21109     21108     21110         0         1
     21112     21111     21113         0         1
     21115     21114     21116         0         1
     21118     21117     21119         0         1
     21121     21120     21122         0         1
     21124     21123     21125         0         1
     21127     21126     21128         0         1
     21130     21129     21131         0         1
     21133     21132     21134         0         1
     21136     21135     21137         0         1
     21139     21138     21140         0         1
     21142     21141     21143         0         1
     21145     21144     21146         0         1
     21148     21147     21149         0         1
     21151     21150     21152         0         1
     21154     21153     21155         0         1
     21157     21156     21158         0         1
     21160     21159     21161         0         1
     21163     21162     21164         0         1
     21166     21165     21167         0         1
     21169     21168     21170         0         1
     21172     21171     21173         0         1
     21175     21174     21176         0         1
     21178     21177     21179         0         1
     21181     21180     21182         0         1
     21184     21183     21185         0         1
     21187     21186     21188         0         1
     21190     21189     21191         0         1
     21193     21192     21194         0         1
     21196     21195     21197         0         1
     21199     21198     21200         0         1
     21202     21201     21203         0         1
     21205     21204     21206         0         1
     21208     21207     21209         0         1
     21211     21210     21212         0         1
     21214     21213     21215         0         1
     21217     21216     21218         0         1
     21220     21219     21221         0         1
     21223     21222     21224         0         1
     21226     21225     21227         0         1
     21229     21228     21230         0         1
     21232     21231     21233         0         1
     21235     21234     21236         0         1
     21238     21237     21239         0         1
     21241     21240     21242         0         1
     21244     21243     21245         0         1
     21247     21246     21248         0         1
     21250     21249     21251         0         1
     21253     21252     21254         0         1
     21256     21255     21257         0         1
     21259     21258     21260         0         1
     21262     21261     21263         0         1
     21265     21264     21266         0         1
     21268     21267     21269         0         1
     21271     21270     21272         0         1
     21274     21273     21275         0         1
     21277     21276     21278         0         1
     21280     21279     21281         0         1
     21283     21282     21284         0         1
     21286     21285     21287         0         1
     21289     21288     21290         0         1
     21292     21291     21293         0         1
     21295     21294     21296         0         1
     21298     21297     21299         0         1
     21301     21300     21302         0         1
     21304     21303     21305         0         1
     21307     21306     21308         0         1
     21310     21309     21311         0         1
     21313     21312     21314         0         1
     21316     21315     21317         0         1
     21319     21318     21320         0         1
     21322     21321     21323         0         1
     21325     21324     21326         0         1
     21328     21327     21329         0         1
     21331     21330     21332         0         1
     21334     21333     21335         0         1
     21337     21336     21338         0         1
     21340     21339     21341         0         1
     21343     21342     21344         0         1
     21346     21345     21347         0         1
     21349     21348     21350         0         1
     21352     21351     21353         0         1
     21355     21354     21356         0         1
     21358     21357     21359         0         1
     21361     21360     21362         0         1
     21364     21363     21365         0         1
     21367     21366     21368         0         1
     21370     21369     21371         0         1
     21373     21372     21374         0         1
     21376     21375     21377         0         1
     21379     21378     21380         0         1
     21382     21381     21383         0         1
     21385     21384     21386         0         1
     21388     21387     21389         0         1
     21391     21390     21392         0         1
     21394     21393     21395         0         1
     21397     21396     21398         0         1
     21400     21399     21401         0         1
     21403     21402     21404         0         1
     21406     21405     21407         0         1
     21409     21408     21410         0         1
     21412     21411     21413         0         1
     21415     21414     21416         0         1
     21418     21417     21419         0         1
     21421     21420     21422         0         1
     21424     21423     21425         0         1
     21427     21426     21428         0         1
     21430     21429     21431         0         1
     21433     21432     21434         0         1
     21436     21435     21437         0         1
     21439     21438     21440         0         1
     21442     21441     21443         0         1
     21445     21444     21446         0         1
     21448     21447     21449         0         1
     21451     21450     21452         0         1
     21454     21453     21455         0         1
     21457     21456     21458         0         1
     21460     21459     21461         0         1
     21463     21462     21464         0         1
     21466     21465     21467         0         1
     21469     21468     21470         0         1
     21472     21471     21473         0         1
     21475     21474     21476         0         1
     21478     21477     21479         0         1
     21481     21480     21482         0         1
     21484     21483     21485         0         1
     21487     21486     21488         0         1
     21490     21489     21491         0         1
     21493     21492     21494         0         1
     21496     21495     21497         0         1
     21499     21498     21500         0         1
     21502     21501     21503         0         1
     21505     21504     21506         0         1
     21508     21507     21509         0         1
     21511     21510     21512         0         1
     21514     21513     21515         0         1
     21517     21516     21518         0         1
     21520     21519     21521         0         1
     21523     21522     21524         0         1
     21526     21525     21527         0         1
     21529     21528     21530         0         1
     21532     21531     21533         0         1
     21535     21534     21536         0         1
     21538     21537     21539         0         1
     21541     21540     21542         0         1
     21544     21543     21545         0         1
     21547     21546     21548         0         1
     21550     21549     21551         0         1
     21553     21552     21554         0         1
     21556     21555     21557         0         1
     21559     21558     21560         0         1
     21562     21561     21563         0         1
     21565     21564     21566         0         1
     21568     21567     21569         0         1
     21571     21570     21572         0         1
     21574     21573     21575         0         1
     21577     21576     21578         0         1
     21580     21579     21581         0         1
     21583     21582     21584         0         1
     21586     21585     21587         0         1
     21589     21588     21590         0         1
     21592     21591     21593         0         1
     21595     21594     21596         0         1
     21598     21597     21599         0         1
     21601     21600     21602         0         1
     21604     21603     21605         0         1
     21607     21606     21608         0         1
     21610     21609     21611         0         1
     21613     21612     21614         0         1
     21616     21615     21617         0         1
     21619     21618     21620         0         1
     21622     21621     21623         0         1
     21625     21624     21626         0         1
     21628     21627     21629         0         1
     21631     21630     21632         0         1
     21634     21633     21635         0         1
     21637     21636     21638         0         1
     21640     21639     21641         0         1
     21643     21642     21644         0         1
     21646     21645     21647         0         1
     21649     21648     21650         0         1
     21652     21651     21653         0         1
     21655     21654     21656         0         1
     21658     21657     21659         0         1
     21661     21660     21662         0         1
     21664     21663     21665         0         1
     21667     21666     21668         0         1
     21670     21669     21671         0         1
     21673     21672     21674         0         1
     21676     21675     21677         0         1
     21679     21678     21680         0         1
     21682     21681     21683         0         1
     21685     21684     21686         0         1
     21688     21687     21689         0         1
     21691     21690     21692         0         1
     21694     21693     21695         0         1
     21697     21696     21698         0         1
     21700     21699     21701         0         1
     21703     21702     21704         0         1
     21706     21705     21707         0         1
     21709     21708     21710         0         1
     21712     21711     21713         0         1
     21715     21714     21716         0         1
     21718     21717     21719         0         1
     21721     21720     21722         0         1
     21724     21723     21725         0         1
     21727     21726     21728         0         1
     21730     21729     21731         0         1
     21733     21732     21734         0         1
     21736     21735     21737         0         1
     21739     21738     21740         0         1
     21742     21741     21743         0         1
     21745     21744     21746         0         1
     21748     21747     21749         0         1
     21751     21750     21752         0         1
     21754     21753     21755         0         1
     21757     21756     21758         0         1
     21760     21759     21761         0         1
     21763     21762     21764         0         1
     21766     21765     21767         0         1
     21769     21768     21770         0         1
     21772     21771     21773         0         1
     21775     21774     21776         0         1
     21778     21777     21779         0         1
     21781     21780     21782         0         1
     21784     21783     21785         0         1
     21787     21786     21788         0         1
     21790     21789     21791         0         1
     21793     21792     21794         0         1
     21796     21795     21797         0         1
     21799     21798     21800         0         1
     21802     21801     21803         0         1
     21805     21804     21806         0         1
     21808     21807     21809         0         1
     21811     21810     21812         0         1
     21814     21813     21815         0         1
     21817     21816     21818         0         1
     21820     21819     21821         0         1
     21823     21822     21824         0         1
     21826     21825     21827         0         1
     21829     21828     21830         0         1
     21832     21831     21833         0         1
     21835     21834     21836         0         1
     21838     21837     21839         0         1
     21841     21840     21842         0         1
     21844     21843     21845         0         1
     21847     21846     21848         0         1
     21850     21849     21851         0         1
     21853     21852     21854         0         1
     21856     21855     21857         0         1
     21859     21858     21860         0         1
     21862     21861     21863         0         1
     21865     21864     21866         0         1
     21868     21867     21869         0         1
     21871     21870     21872         0         1
     21874     21873     21875         0         1
     21877     21876     21878         0         1
     21880     21879     21881         0         1
     21883     21882     21884         0         1
     21886     21885     21887         0         1
     21889     21888     21890         0         1
     21892     21891     21893         0         1
     21895     21894     21896         0         1
     21898     21897     21899         0         1
     21901     21900     21902         0         1
     21904     21903     21905         0         1
     21907     21906     21908         0         1
     21910     21909     21911         0         1
     21913     21912     21914         0         1
     21916     21915     21917         0         1
     21919     21918     21920         0         1
     21922     21921     21923         0         1
     21925     21924     21926         0         1
     21928     21927     21929         0         1
     21931     21930     21932         0         1
     21934     21933     21935         0         1
     21937     21936     21938         0         1
     21940     21939     21941         0         1
     21943     21942     21944         0         1
     21946     21945     21947         0         1
     21949     21948     21950         0         1
     21952     21951     21953         0         1
     21955     21954     21956         0         1
     21958     21957     21959         0         1
     21961     21960     21962         0         1
     21964     21963     21965         0         1
     21967     21966     21968         0         1
     21970     21969     21971         0         1
     21973     21972     21974         0         1
     21976     21975     21977         0         1
     21979     21978     21980         0         1
     21982     21981     21983         0         1
     21985     21984     21986         0         1
     21988     21987     21989         0         1
     21991     21990     21992         0         1
     21994     21993     21995         0         1
     21997     21996     21998         0         1
     22000     21999     22001         0         1
     22003     22002     22004         0         1
     22006     22005     22007         0         1
     22009     22008     22010         0         1
     22012     22011     22013         0         1
     22015     22014     22016         0         1
     22018     22017     22019         0         1
     22021     22020     22022         0         1
     22024     22023     22025         0         1
     22027     22026     22028         0         1
     22030     22029     22031         0         1
     22033     22032     22034         0         1
     22036     22035     22037         0         1
     22039     22038     22040         0         1
     22042     22041     22043         0         1
     22045     22044     22046         0         1
     22048     22047     22049         0         1
     22051     22050     22052         0         1
     22054     22053     22055         0         1
     22057     22056     22058         0         1
     22060     22059     22061         0         1
     22063     22062     22064         0         1
     22066     22065     22067         0         1
     22069     22068     22070         0         1
     22072     22071     22073         0         1
     22075     22074     22076         0         1
     22078     22077     22079         0         1
     22081     22080     22082         0         1
     22084     22083     22085         0         1
     22087     22086     22088         0         1
     22090     22089     22091         0         1
     22093     22092     22094         0         1
     22096     22095     22097         0         1
     22099     22098     22100         0         1
     22102     22101     22103         0         1
     22105     22104     22106         0         1
     22108     22107     22109         0         1
     22111     22110     22112         0         1
     22114     22113     22115         0         1
     22117     22116     22118         0         1
     22120     22119     22121         0         1
     22123     22122     22124         0         1
     22126     22125     22127         0         1
     22129     22128     22130         0         1
     22132     22131     22133         0         1
     22135     22134     22136         0         1
     22138     22137     22139         0         1
     22141     22140     22142         0         1
     22144     22143     22145         0         1
     22147     22146     22148         0         1
     22150     22149     22151         0         1
     22153     22152     22154         0         1
     22156     22155     22157         0         1
     22159     22158     22160         0         1
     22162     22161     22163         0         1
     22165     22164     22166         0         1
     22168     22167     22169         0         1
     22171     22170     22172         0         1
     22174     22173     22175         0         1
     22177     22176     22178         0         1
     22180     22179     22181         0         1
     22183     22182     22184         0         1
     22186     22185     22187         0         1
     22189     22188     22190         0         1
     22192     22191     22193         0         1
     22195     22194     22196         0         1
     22198     22197     22199         0         1
     22201     22200     22202         0         1
     22204     22203     22205         0         1
     22207     22206     22208         0         1
     22210     22209     22211         0         1
     22213     22212     22214         0         1
     22216     22215     22217         0         1
     22219     22218     22220         0         1
     22222     22221     22223         0         1
     22225     22224     22226         0         1
     22228     22227     22229         0         1
     22231     22230     22232         0         1
     22234     22233     22235         0         1
     22237     22236     22238         0         1
     22240     22239     22241         0         1
     22243     22242     22244         0         1
     22246     22245     22247         0         1
     22249     22248     22250         0         1
     22252     22251     22253         0         1
     22255     22254     22256         0         1
     22258     22257     22259         0         1
     22261     22260     22262         0         1
     22264     22263     22265         0         1
     22267     22266     22268         0         1
     22270     22269     22271         0         1
     22273     22272     22274         0         1
     22276     22275     22277         0         1
     22279     22278     22280         0         1
     22282     22281     22283         0         1
     22285     22284     22286         0         1
     22288     22287     22289         0         1
     22291     22290     22292         0         1
     22294     22293     22295         0         1
     22297     22296     22298         0         1
     22300     22299     22301         0         1
     22303     22302     22304         0         1
     22306     22305     22307         0         1
     22309     22308     22310         0         1
     22312     22311     22313         0         1
     22315     22314     22316         0         1
     22318     22317     22319         0         1
     22321     22320     22322         0         1
     22324     22323     22325         0         1
     22327     22326     22328         0         1
     22330     22329     22331         0         1
     22333     22332     22334         0         1
     22336     22335     22337         0         1
     22339     22338     22340         0         1
     22342     22341     22343         0         1
     22345     22344     22346         0         1
     22348     22347     22349         0         1
     22351     22350     22352         0         1
     22354     22353     22355         0         1
     22357     22356     22358         0         1
     22360     22359     22361         0         1
     22363     22362     22364         0         1
     22366     22365     22367         0         1
     22369     22368     22370         0         1
     22372     22371     22373         0         1
     22375     22374     22376         0         1
     22378     22377     22379         0         1
     22381     22380     22382         0         1
     22384     22383     22385         0         1
     22387     22386     22388         0         1
     22390     22389     22391         0         1
     22393     22392     22394         0         1
     22396     22395     22397         0         1
     22399     22398     22400         0         1
     22402     22401     22403         0         1
     22405     22404     22406         0         1
     22408     22407     22409         0         1
     22411     22410     22412         0         1
     22414     22413     22415         0         1
     22417     22416     22418         0         1
     22420     22419     22421         0         1
     22423     22422     22424         0         1
     22426     22425     22427         0         1
     22429     22428     22430         0         1
     22432     22431     22433         0         1
     22435     22434     22436         0         1
     22438     22437     22439         0         1
     22441     22440     22442         0         1
     22444     22443     22445         0         1
     22447     22446     22448         0         1
     22450     22449     22451         0         1
     22453     22452     22454         0         1
     22456     22455     22457         0         1
     22459     22458     22460         0         1
     22462     22461     22463         0         1
     22465     22464     22466         0         1
     22468     22467     22469         0         1
     22471     22470     22472         0         1
     22474     22473     22475         0         1
     22477     22476     22478         0         1
     22480     22479     22481         0         1
     22483     22482     22484         0         1
     22486     22485     22487         0         1
     22489     22488     22490         0         1
     22492     22491     22493         0         1
     22495     22494     22496         0         1
     22498     22497     22499         0         1
     22501     22500     22502         0         1
     22504     22503     22505         0         1
     22507     22506     22508         0         1
     22510     22509     22511         0         1
     22513     22512     22514         0         1
     22516     22515     22517         0         1
     22519     22518     22520         0         1
     22522     22521     22523         0         1
     22525     22524     22526         0         1
     22528     22527     22529         0         1
     22531     22530     22532         0         1
     22534     22533     22535         0         1
     22537     22536     22538         0         1
     22540     22539     22541         0         1
     22543     22542     22544         0         1
     22546     22545     22547         0         1
     22549     22548     22550         0         1
     22552     22551     22553         0         1
     22555     22554     22556         0         1
     22558     22557     22559         0         1
     22561     22560     22562         0         1
     22564     22563     22565         0         1
     22567     22566     22568         0         1
     22570     22569     22571         0         1
     22573     22572     22574         0         1
     22576     22575     22577         0         1
     22579     22578     22580         0         1
     22582     22581     22583         0         1
     22585     22584     22586         0         1
     22588     22587     22589         0         1
     22591     22590     22592         0         1
     22594     22593     22595         0         1
     22597     22596     22598         0         1
     22600     22599     22601         0         1
     22603     22602     22604         0         1
     22606     22605     22607         0         1
     22609     22608     22610         0         1
     22612     22611     22613         0         1
     22615     22614     22616         0         1
     22618     22617     22619         0         1
     22621     22620     22622         0         1
     22624     22623     22625         0         1
     22627     22626     22628         0         1
     22630     22629     22631         0         1
     22633     22632     22634         0         1
     22636     22635     22637         0         1
     22639     22638     22640         0         1
     22642     22641     22643         0         1
     22645     22644     22646         0         1
     22648     22647     22649         0         1
     22651     22650     22652         0         1
     22654     22653     22655         0         1
     22657     22656     22658         0         1
     22660     22659     22661         0         1
     22663     22662     22664         0         1
     22666     22665     22667         0         1
     22669     22668     22670         0         1
     22672     22671     22673         0         1
     22675     22674     22676         0         1
     22678     22677     22679         0         1
     22681     22680     22682         0         1
     22684     22683     22685         0         1
     22687     22686     22688         0         1
     22690     22689     22691         0         1
     22693     22692     22694         0         1
     22696     22695     22697         0         1
     22699     22698     22700         0         1
     22702     22701     22703         0         1
     22705     22704     22706         0         1
     22708     22707     22709         0         1
     22711     22710     22712         0         1
     22714     22713     22715         0         1
     22717     22716     22718         0         1
     22720     22719     22721         0         1
     22723     22722     22724         0         1
     22726     22725     22727         0         1
     22729     22728     22730         0         1
     22732     22731     22733         0         1
     22735     22734     22736         0         1
     22738     22737     22739         0         1
     22741     22740     22742         0         1
     22744     22743     22745         0         1
     22747     22746     22748         0         1
     22750     22749     22751         0         1
     22753     22752     22754         0         1
     22756     22755     22757         0         1
     22759     22758     22760         0         1
     22762     22761     22763         0         1
     22765     22764     22766         0         1
     22768     22767     22769         0         1
     22771     22770     22772         0         1
     22774     22773     22775         0         1
     22777     22776     22778         0         1
     22780     22779     22781         0         1
     22783     22782     22784         0         1
     22786     22785     22787         0         1
     22789     22788     22790         0         1
     22792     22791     22793         0         1
     22795     22794     22796         0         1
     22798     22797     22799         0         1
     22801     22800     22802         0         1
     22804     22803     22805         0         1
     22807     22806     22808         0         1
     22810     22809     22811         0         1
     22813     22812     22814         0         1
     22816     22815     22817         0         1
     22819     22818     22820         0         1
     22822     22821     22823         0         1
     22825     22824     22826         0         1
     22828     22827     22829         0         1
     22831     22830     22832         0         1
     22834     22833     22835         0         1
     22837     22836     22838         0         1
     22840     22839     22841         0         1
     22843     22842     22844         0         1
     22846     22845     22847         0         1
     22849     22848     22850         0         1
     22852     22851     22853         0         1
     22855     22854     22856         0         1
     22858     22857     22859         0         1
     22861     22860     22862         0         1
     22864     22863     22865         0         1
     22867     22866     22868         0         1
     22870     22869     22871         0         1
     22873     22872     22874         0         1
     22876     22875     22877         0         1
     22879     22878     22880         0         1
     22882     22881     22883         0         1
     22885     22884     22886         0         1
     22888     22887     22889         0         1
     22891     22890     22892         0         1
     22894     22893     22895         0         1
     22897     22896     22898         0         1
     22900     22899     22901         0         1
     22903     22902     22904         0         1
     22906     22905     22907         0         1
     22909     22908     22910         0         1
     22912     22911     22913         0         1
     22915     22914     22916         0         1
     22918     22917     22919         0         1
     22921     22920     22922         0         1
     22924     22923     22925         0         1
     22927     22926     22928         0         1
     22930     22929     22931         0         1
     22933     22932     22934         0         1
     22936     22935     22937         0         1
     22939     22938     22940         0         1
     22942     22941     22943         0         1
     22945     22944     22946         0         1
     22948     22947     22949         0         1
     22951     22950     22952         0         1
     22954     22953     22955         0         1
     22957     22956     22958         0         1
     22960     22959     22961         0         1
     22963     22962     22964         0         1
     22966     22965     22967         0         1
     22969     22968     22970         0         1
     22972     22971     22973         0         1
     22975     22974     22976         0         1
     22978     22977     22979         0         1
     22981     22980     22982         0         1
     22984     22983     22985         0         1
     22987     22986     22988         0         1
     22990     22989     22991         0         1
     22993     22992     22994         0         1
     22996     22995     22997         0         1
     22999     22998     23000         0         1
     23002     23001     23003         0         1
     23005     23004     23006         0         1
     23008     23007     23009         0         1
     23011     23010     23012         0         1
     23014     23013     23015         0         1
     23017     23016     23018         0         1
     23020     23019     23021         0         1
     23023     23022     23024         0         1
     23026     23025     23027         0         1
     23029     23028     23030         0         1
     23032     23031     23033         0         1
     23035     23034     23036         0         1
     23038     23037     23039         0         1
     23041     23040     23042         0         1
     23044     23043     23045         0         1
     23047     23046     23048         0         1
     23050     23049     23051         0         1
     23053     23052     23054         0         1
     23056     23055     23057         0         1
     23059     23058     23060         0         1
     23062     23061     23063         0         1
     23065     23064     23066         0         1
     23068     23067     23069         0         1
     23071     23070     23072         0         1
     23074     23073     23075         0         1
     23077     23076     23078         0         1
     23080     23079     23081         0         1
     23083     23082     23084         0         1
     23086     23085     23087         0         1
     23089     23088     23090         0         1
     23092     23091     23093         0         1
     23095     23094     23096         0         1
     23098     23097     23099         0         1
     23101     23100     23102         0         1
     23104     23103     23105         0         1
     23107     23106     23108         0         1
     23110     23109     23111         0         1
     23113     23112     23114         0         1
     23116     23115     23117         0         1
     23119     23118     23120         0         1
     23122     23121     23123         0         1
     23125     23124     23126         0         1
     23128     23127     23129         0         1
     23131     23130     23132         0         1
     23134     23133     23135         0         1
     23137     23136     23138         0         1
     23140     23139     23141         0         1
     23143     23142     23144         0         1
     23146     23145     23147         0         1
     23149     23148     23150         0         1
     23152     23151     23153         0         1
     23155     23154     23156         0         1
     23158     23157     23159         0         1
     23161     23160     23162         0         1
     23164     23163     23165         0         1
     23167     23166     23168         0         1
     23170     23169     23171         0         1
     23173     23172     23174         0         1
     23176     23175     23177         0         1
     23179     23178     23180         0         1
     23182     23181     23183         0         1
     23185     23184     23186         0         1
     23188     23187     23189         0         1
     23191     23190     23192         0         1
     23194     23193     23195         0         1
     23197     23196     23198         0         1
     23200     23199     23201         0         1
     23203     23202     23204         0         1
     23206     23205     23207         0         1
     23209     23208     23210         0         1
     23212     23211     23213         0         1
     23215     23214     23216         0         1
     23218     23217     23219         0         1
     23221     23220     23222         0         1
     23224     23223     23225         0         1
     23227     23226     23228         0         1
     23230     23229     23231         0         1
     23233     23232     23234         0         1
     23236     23235     23237         0         1
     23239     23238     23240         0         1
     23242     23241     23243         0         1
     23245     23244     23246         0         1
     23248     23247     23249         0         1
     23251     23250     23252         0         1
     23254     23253     23255         0         1
     23257     23256     23258         0         1
     23260     23259     23261         0         1
     23263     23262     23264         0         1
     23266     23265     23267         0         1
     23269     23268     23270         0         1
     23272     23271     23273         0         1
     23275     23274     23276         0         1
     23278     23277     23279         0         1
     23281     23280     23282         0         1
     23284     23283     23285         0         1
     23287     23286     23288         0         1
     23290     23289     23291         0         1
     23293     23292     23294         0         1
     23296     23295     23297         0         1
     23299     23298     23300         0         1
     23302     23301     23303         0         1
     23305     23304     23306         0         1
     23308     23307     23309         0         1
     23311     23310     23312         0         1
     23314     23313     23315         0         1
     23317     23316     23318         0         1
     23320     23319     23321         0         1
     23323     23322     23324         0         1
     23326     23325     23327         0         1
     23329     23328     23330         0         1
     23332     23331     23333         0         1
     23335     23334     23336         0         1
     23338     23337     23339         0         1
     23341     23340     23342         0         1
     23344     23343     23345         0         1
     23347     23346     23348         0         1
     23350     23349     23351         0         1
     23353     23352     23354         0         1
     23356     23355     23357         0         1
     23359     23358     23360         0         1
     23362     23361     23363         0         1
     23365     23364     23366         0         1
     23368     23367     23369         0         1
     23371     23370     23372         0         1
     23374     23373     23375         0         1
     23377     23376     23378         0         1
     23380     23379     23381         0         1
     23383     23382     23384         0         1
     23386     23385     23387         0         1
     23389     23388     23390         0         1
     23392     23391     23393         0         1
     23395     23394     23396         0         1
     23398     23397     23399         0         1
     23401     23400     23402         0         1
     23404     23403     23405         0         1
     23407     23406     23408         0         1
     23410     23409     23411         0         1
     23413     23412     23414         0         1
     23416     23415     23417         0         1
     23419     23418     23420         0         1
     23422     23421     23423         0         1
     23425     23424     23426         0         1
     23428     23427     23429         0         1
     23431     23430     23432         0         1
     23434     23433     23435         0         1
     23437     23436     23438         0         1
     23440     23439     23441         0         1
     23443     23442     23444         0         1
     23446     23445     23447         0         1
     23449     23448     23450         0         1
     23452     23451     23453         0         1
     23455     23454     23456         0         1
     23458     23457     23459         0         1
     23461     23460     23462         0         1
     23464     23463     23465         0         1
     23467     23466     23468         0         1
     23470     23469     23471         0         1
     23473     23472     23474         0         1
     23476     23475     23477         0         1
     23479     23478     23480         0         1
     23482     23481     23483         0         1
     23485     23484     23486         0         1
     23488     23487     23489         0         1
     23491     23490     23492         0         1
     23494     23493     23495         0         1
     23497     23496     23498         0         1
     23500     23499     23501         0         1
     23503     23502     23504         0         1
     23506     23505     23507         0         1
     23509     23508     23510         0         1
     23512     23511     23513         0         1
     23515     23514     23516         0         1
     23518     23517     23519         0         1
     23521     23520     23522         0         1
     23524     23523     23525         0         1
     23527     23526     23528         0         1
     23530     23529     23531         0         1
     23533     23532     23534         0         1
     23536     23535     23537         0         1
     23539     23538     23540         0         1
     23542     23541     23543         0         1
     23545     23544     23546         0         1
     23548     23547     23549         0         1
     23551     23550     23552         0         1
     23554     23553     23555         0         1
     23557     23556     23558         0         1
     23560     23559     23561         0         1
     23563     23562     23564         0         1
     23566     23565     23567         0         1
     23569     23568     23570         0         1
     23572     23571     23573         0         1
     23575     23574     23576         0         1
     23578     23577     23579         0         1
     23581     23580     23582         0         1
     23584     23583     23585         0         1
     23587     23586     23588         0         1
     23590     23589     23591         0         1
     23593     23592     23594         0         1
     23596     23595     23597         0         1
     23599     23598     23600         0         1
     23602     23601     23603         0         1
     23605     23604     23606         0         1
     23608     23607     23609         0         1
     23611     23610     23612         0         1
     23614     23613     23615         0         1
     23617     23616     23618         0         1
     23620     23619     23621         0         1
     23623     23622     23624         0         1
     23626     23625     23627         0         1
     23629     23628     23630         0         1
     23632     23631     23633         0         1
     23635     23634     23636         0         1
     23638     23637     23639         0         1
     23641     23640     23642         0         1
     23644     23643     23645         0         1
     23647     23646     23648         0         1
     23650     23649     23651         0         1
     23653     23652     23654         0         1
     23656     23655     23657         0         1
     23659     23658     23660         0         1
     23662     23661     23663         0         1
     23665     23664     23666         0         1
     23668     23667     23669         0         1
     23671     23670     23672         0         1
     23674     23673     23675         0         1
     23677     23676     23678         0         1
     23680     23679     23681         0         1
     23683     23682     23684         0         1
     23686     23685     23687         0         1
     23689     23688     23690         0         1
     23692     23691     23693         0         1
     23695     23694     23696         0         1
     23698     23697     23699         0         1
     23701     23700     23702         0         1
     23704     23703     23705         0         1
     23707     23706     23708         0         1
     23710     23709     23711         0         1
     23713     23712     23714         0         1
     23716     23715     23717         0         1
     23719     23718     23720         0         1
     23722     23721     23723         0         1
     23725     23724     23726         0         1
     23728     23727     23729         0         1
     23731     23730     23732         0         1
     23734     23733     23735         0         1
     23737     23736     23738         0         1
     23740     23739     23741         0         1
     23743     23742     23744         0         1
     23746     23745     23747         0         1
     23749     23748     23750         0         1
     23752     23751     23753         0         1
     23755     23754     23756         0         1
     23758     23757     23759         0         1
     23761     23760     23762         0         1
     23764     23763     23765         0         1
     23767     23766     23768         0         1
     23770     23769     23771         0         1
     23773     23772     23774         0         1
     23776     23775     23777         0         1
     23779     23778     23780         0         1
     23782     23781     23783         0         1
     23785     23784     23786         0         1
     23788     23787     23789         0         1
     23791     23790     23792         0         1
     23794     23793     23795         0         1
     23797     23796     23798         0         1
     23800     23799     23801         0         1
     23803     23802     23804         0         1
     23806     23805     23807         0         1
     23809     23808     23810         0         1
     23812     23811     23813         0         1
     23815     23814     23816         0         1
     23818     23817     23819         0         1
     23821     23820     23822         0         1
     23824     23823     23825         0         1
     23827     23826     23828         0         1
     23830     23829     23831         0         1
     23833     23832     23834         0         1
     23836     23835     23837         0         1
     23839     23838     23840         0         1
     23842     23841     23843         0         1
     23845     23844     23846         0         1
     23848     23847     23849         0         1
     23851     23850     23852         0         1
     23854     23853     23855         0         1
     23857     23856     23858         0         1
     23860     23859     23861         0         1
     23863     23862     23864         0         1
     23866     23865     23867         0         1
     23869     23868     23870         0         1
     23872     23871     23873         0         1
     23875     23874     23876         0         1
     23878     23877     23879         0         1
     23881     23880     23882         0         1
     23884     23883     23885         0         1
     23887     23886     23888         0         1
     23890     23889     23891         0         1
     23893     23892     23894         0         1
     23896     23895     23897         0         1
     23899     23898     23900         0         1
     23902     23901     23903         0         1
     23905     23904     23906         0         1
     23908     23907     23909         0         1
     23911     23910     23912         0         1
     23914     23913     23915         0         1
     23917     23916     23918         0         1
     23920     23919     23921         0         1
     23923     23922     23924         0         1
     23926     23925     23927         0         1
     23929     23928     23930         0         1
     23932     23931     23933         0         1
     23935     23934     23936         0         1
     23938     23937     23939         0         1
     23941     23940     23942         0         1
     23944     23943     23945         0         1
     23947     23946     23948         0         1
     23950     23949     23951         0         1
     23953     23952     23954         0         1
     23956     23955     23957         0         1
     23959     23958     23960         0         1
     23962     23961     23963         0         1
     23965     23964     23966         0         1
     23968     23967     23969         0         1
     23971     23970     23972         0         1
     23974     23973     23975         0         1
     23977     23976     23978         0         1
     23980     23979     23981         0         1
     23983     23982     23984         0         1
     23986     23985     23987         0         1
     23989     23988     23990         0         1
     23992     23991     23993         0         1
     23995     23994     23996         0         1
     23998     23997     23999         0         1
     24001     24000     24002         0         1
     24004     24003     24005         0         1
     24007     24006     24008         0         1
     24010     24009     24011         0         1
     24013     24012     24014         0         1
     24016     24015     24017         0         1
     24019     24018     24020         0         1
     24022     24021     24023         0         1
     24025     24024     24026         0         1
     24028     24027     24029         0         1
     24031     24030     24032         0         1
     24034     24033     24035         0         1
     24037     24036     24038         0         1
     24040     24039     24041         0         1
     24043     24042     24044         0         1
     24046     24045     24047         0         1
     24049     24048     24050         0         1
     24052     24051     24053         0         1
     24055     24054     24056         0         1
     24058     24057     24059         0         1
     24061     24060     24062         0         1
     24064     24063     24065         0         1
     24067     24066     24068         0         1
     24070     24069     24071         0         1
     24073     24072     24074         0         1
     24076     24075     24077         0         1
     24079     24078     24080         0         1
     24082     24081     24083         0         1
     24085     24084     24086         0         1
     24088     24087     24089         0         1
     24091     24090     24092         0         1
     24094     24093     24095         0         1
     24097     24096     24098         0         1
     24100     24099     24101         0         1
     24103     24102     24104         0         1
     24106     24105     24107         0         1
     24109     24108     24110         0         1
     24112     24111     24113         0         1
     24115     24114     24116         0         1
     24118     24117     24119         0         1
     24121     24120     24122         0         1
     24124     24123     24125         0         1
     24127     24126     24128         0         1
     24130     24129     24131         0         1
     24133     24132     24134         0         1
     24136     24135     24137         0         1
     24139     24138     24140         0         1
     24142     24141     24143         0         1
     24145     24144     24146         0         1
     24148     24147     24149         0         1
     24151     24150     24152         0         1
     24154     24153     24155         0         1
     24157     24156     24158         0         1
     24160     24159     24161         0         1
     24163     24162     24164         0         1
     24166     24165     24167         0         1
     24169     24168     24170         0         1
     24172     24171     24173         0         1
     24175     24174     24176         0         1
     24178     24177     24179         0         1
     24181     24180     24182         0         1
     24184     24183     24185         0         1
     24187     24186     24188         0         1
     24190     24189     24191         0         1
     24193     24192     24194         0         1
     24196     24195     24197         0         1
     24199     24198     24200         0         1
     24202     24201     24203         0         1
     24205     24204     24206         0         1
     24208     24207     24209         0         1
     24211     24210     24212         0         1
     24214     24213     24215         0         1
     24217     24216     24218         0         1
     24220     24219     24221         0         1
     24223     24222     24224         0         1
     24226     24225     24227         0         1
     24229     24228     24230         0         1
     24232     24231     24233         0         1
     24235     24234     24236         0         1
     24238     24237     24239         0         1
     24241     24240     24242         0         1
     24244     24243     24245         0         1
     24247     24246     24248         0         1
     24250     24249     24251         0         1
     24253     24252     24254         0         1
     24256     24255     24257         0         1
     24259     24258     24260         0         1
     24262     24261     24263         0         1
     24265     24264     24266         0         1
     24268     24267     24269         0         1
     24271     24270     24272         0         1
     24274     24273     24275         0         1
     24277     24276     24278         0         1
     24280     24279     24281         0         1
     24283     24282     24284         0         1
     24286     24285     24287         0         1
     24289     24288     24290         0         1
     24292     24291     24293         0         1
     24295     24294     24296         0         1
     24298     24297     24299         0         1
     24301     24300     24302         0         1
     24304     24303     24305         0         1
     24307     24306     24308         0         1
     24310     24309     24311         0         1
     24313     24312     24314         0         1
     24316     24315     24317         0         1
     24319     24318     24320         0         1
     24322     24321     24323         0         1
     24325     24324     24326         0         1
     24328     24327     24329         0         1
     24331     24330     24332         0         1
     24334     24333     24335         0         1
     24337     24336     24338         0         1
     24340     24339     24341         0         1
     24343     24342     24344         0         1
     24346     24345     24347         0         1
     24349     24348     24350         0         1
     24352     24351     24353         0         1
     24355     24354     24356         0         1
     24358     24357     24359         0         1
     24361     24360     24362         0         1
     24364     24363     24365         0         1
     24367     24366     24368         0         1
     24370     24369     24371         0         1
     24373     24372     24374         0         1
     24376     24375     24377         0         1
     24379     24378     24380         0         1
     24382     24381     24383         0         1
     24385     24384     24386         0         1
     24388     24387     24389         0         1
     24391     24390     24392         0         1
     24394     24393     24395         0         1
     24397     24396     24398         0         1
     24400     24399     24401         0         1
     24403     24402     24404         0         1
     24406     24405     24407         0         1
     24409     24408     24410         0         1
     24412     24411     24413         0         1
     24415     24414     24416         0         1
     24418     24417     24419         0         1
     24421     24420     24422         0         1
     24424     24423     24425         0         1
     24427     24426     24428         0         1
     24430     24429     24431         0         1
     24433     24432     24434         0         1
     24436     24435     24437         0         1
     24439     24438     24440         0         1
     24442     24441     24443         0         1
     24445     24444     24446         0         1
     24448     24447     24449         0         1
     24451     24450     24452         0         1
     24454     24453     24455         0         1
     24457     24456     24458         0         1
     24460     24459     24461         0         1
     24463     24462     24464         0         1
     24466     24465     24467         0         1
     24469     24468     24470         0         1
     24472     24471     24473         0         1
     24475     24474     24476         0         1
     24478     24477     24479         0         1
     24481     24480     24482         0         1
     24484     24483     24485         0         1
     24487     24486     24488         0         1
     24490     24489     24491         0         1
     24493     24492     24494         0         1
     24496     24495     24497         0         1
     24499     24498     24500         0         1
     24502     24501     24503         0         1
     24505     24504     24506         0         1
     24508     24507     24509         0         1
     24511     24510     24512         0         1
     24514     24513     24515         0         1
     24517     24516     24518         0         1
     24520     24519     24521         0         1
     24523     24522     24524         0         1
     24526     24525     24527         0         1
     24529     24528     24530         0         1
     24532     24531     24533         0         1
     24535     24534     24536         0         1
     24538     24537     24539         0         1
     24541     24540     24542         0         1
     24544     24543     24545         0         1
     24547     24546     24548         0         1
     24550     24549     24551         0         1
     24553     24552     24554         0         1
     24556     24555     24557         0         1
     24559     24558     24560         0         1
     24562     24561     24563         0         1
     24565     24564     24566         0         1
     24568     24567     24569         0         1
     24571     24570     24572         0         1
     24574     24573     24575         0         1
     24577     24576     24578         0         1
     24580     24579     24581         0         1
     24583     24582     24584         0         1
     24586     24585     24587         0         1
     24589     24588     24590         0         1
     24592     24591     24593         0         1
     24595     24594     24596         0         1
     24598     24597     24599         0         1
     24601     24600     24602         0         1
     24604     24603     24605         0         1
     24607     24606     24608         0         1
     24610     24609     24611         0         1
     24613     24612     24614         0         1
     24616     24615     24617         0         1
     24619     24618     24620         0         1
     24622     24621     24623         0         1
     24625     24624     24626         0         1
     24628     24627     24629         0         1
     24631     24630     24632         0         1
     24634     24633     24635         0         1
     24637     24636     24638         0         1
     24640     24639     24641         0         1
     24643     24642     24644         0         1
     24646     24645     24647         0         1
     24649     24648     24650         0         1
     24652     24651     24653         0         1
     24655     24654     24656         0         1
     24658     24657     24659         0         1
     24661     24660     24662         0         1
     24664     24663     24665         0         1
     24667     24666     24668         0         1
     24670     24669     24671         0         1
     24673     24672     24674         0         1
     24676     24675     24677         0         1
     24679     24678     24680         0         1
     24682     24681     24683         0         1
     24685     24684     24686         0         1
     24688     24687     24689         0         1
     24691     24690     24692         0         1
     24694     24693     24695         0         1
     24697     24696     24698         0         1
     24700     24699     24701         0         1
     24703     24702     24704         0         1
     24706     24705     24707         0         1
     24709     24708     24710         0         1
     24712     24711     24713         0         1
     24715     24714     24716         0         1
     24718     24717     24719         0         1
     24721     24720     24722         0         1
     24724     24723     24725         0         1
     24727     24726     24728         0         1
     24730     24729     24731         0         1
     24733     24732     24734         0         1
     24736     24735     24737         0         1
     24739     24738     24740         0         1
     24742     24741     24743         0         1
     24745     24744     24746         0         1
     24748     24747     24749         0         1
     24751     24750     24752         0         1
     24754     24753     24755         0         1
     24757     24756     24758         0         1
     24760     24759     24761         0         1
     24763     24762     24764         0         1
     24766     24765     24767         0         1
     24769     24768     24770         0         1
     24772     24771     24773         0         1
     24775     24774     24776         0         1
     24778     24777     24779         0         1
     24781     24780     24782         0         1
     24784     24783     24785         0         1
     24787     24786     24788         0         1
     24790     24789     24791         0         1
     24793     24792     24794         0         1
     24796     24795     24797         0         1
     24799     24798     24800         0         1
     24802     24801     24803         0         1
     24805     24804     24806         0         1
     24808     24807     24809         0         1
     24811     24810     24812         0         1
     24814     24813     24815         0         1
     24817     24816     24818         0         1
     24820     24819     24821         0         1
     24823     24822     24824         0         1
     24826     24825     24827         0         1
     24829     24828     24830         0         1
     24832     24831     24833         0         1
     24835     24834     24836         0         1
     24838     24837     24839         0         1
     24841     24840     24842         0         1
     24844     24843     24845         0         1
     24847     24846     24848         0         1
     24850     24849     24851         0         1
     24853     24852     24854         0         1
     24856     24855     24857         0         1
     24859     24858     24860         0         1
     24862     24861     24863         0         1
     24865     24864     24866         0         1
     24868     24867     24869         0         1
     24871     24870     24872         0         1
     24874     24873     24875         0         1
     24877     24876     24878         0         1
     24880     24879     24881         0         1
     24883     24882     24884         0         1
     24886     24885     24887         0         1
     24889     24888     24890         0         1
     24892     24891     24893         0         1
     24895     24894     24896         0         1
     24898     24897     24899         0         1
     24901     24900     24902         0         1
     24904     24903     24905         0         1
     24907     24906     24908         0         1
     24910     24909     24911         0         1
     24913     24912     24914         0         1
     24916     24915     24917         0         1
     24919     24918     24920         0         1
     24922     24921     24923         0         1
     24925     24924     24926         0         1
     24928     24927     24929         0         1
     24931     24930     24932         0         1
     24934     24933     24935         0         1
     24937     24936     24938         0         1
     24940     24939     24941         0         1
     24943     24942     24944         0         1
     24946     24945     24947         0         1
     24949     24948     24950         0         1
     24952     24951     24953         0         1
     24955     24954     24956         0         1
     24958     24957     24959         0         1
     24961     24960     24962         0         1
     24964     24963     24965         0         1
     24967     24966     24968         0         1
     24970     24969     24971         0         1
     24973     24972     24974         0         1
     24976     24975     24977         0         1
     24979     24978     24980         0         1
     24982     24981     24983         0         1
     24985     24984     24986         0         1
     24988     24987     24989         0         1
     24991     24990     24992         0         1
     24994     24993     24995         0         1
     24997     24996     24998         0         1
     25000     24999     25001         0         1
     25003     25002     25004         0         1
     25006     25005     25007         0         1
     25009     25008     25010         0         1
     25012     25011     25013         0         1
     25015     25014     25016         0         1
     25018     25017     25019         0         1
     25021     25020     25022         0         1
     25024     25023     25025         0         1
     25027     25026     25028         0         1
     25030     25029     25031         0         1
     25033     25032     25034         0         1
     25036     25035     25037         0         1
     25039     25038     25040         0         1
     25042     25041     25043         0         1
     25045     25044     25046         0         1
     25048     25047     25049         0         1
     25051     25050     25052         0         1
     25054     25053     25055         0         1
     25057     25056     25058         0         1
     25060     25059     25061         0         1
     25063     25062     25064         0         1
     25066     25065     25067         0         1
     25069     25068     25070         0         1
     25072     25071     25073         0         1
     25075     25074     25076         0         1
     25078     25077     25079         0         1
     25081     25080     25082         0         1
     25084     25083     25085         0         1
     25087     25086     25088         0         1
     25090     25089     25091         0         1
     25093     25092     25094         0         1
     25096     25095     25097         0         1
     25099     25098     25100         0         1
     25102     25101     25103         0         1
     25105     25104     25106         0         1
     25108     25107     25109         0         1
     25111     25110     25112         0         1
     25114     25113     25115         0         1
     25117     25116     25118         0         1
     25120     25119     25121         0         1
     25123     25122     25124         0         1
     25126     25125     25127         0         1
     25129     25128     25130         0         1
     25132     25131     25133         0         1
     25135     25134     25136         0         1
     25138     25137     25139         0         1
     25141     25140     25142         0         1
     25144     25143     25145         0         1
     25147     25146     25148         0         1
     25150     25149     25151         0         1
     25153     25152     25154         0         1
     25156     25155     25157         0         1
     25159     25158     25160         0         1
     25162     25161     25163         0         1
     25165     25164     25166         0         1
     25168     25167     25169         0         1
     25171     25170     25172         0         1
     25174     25173     25175         0         1
     25177     25176     25178         0         1
     25180     25179     25181         0         1
     25183     25182     25184         0         1
     25186     25185     25187         0         1
     25189     25188     25190         0         1
     25192     25191     25193         0         1
     25195     25194     25196         0         1
     25198     25197     25199         0         1
     25201     25200     25202         0         1
     25204     25203     25205         0         1
     25207     25206     25208         0         1
     25210     25209     25211         0         1
     25213     25212     25214         0         1
     25216     25215     25217         0         1
     25219     25218     25220         0         1
     25222     25221     25223         0         1
     25225     25224     25226         0         1
     25228     25227     25229         0         1
     25231     25230     25232         0         1
     25234     25233     25235         0         1
     25237     25236     25238         0         1
     25240     25239     25241         0         1
     25243     25242     25244         0         1
     25246     25245     25247         0         1
     25249     25248     25250         0         1
     25252     25251     25253         0         1
     25255     25254     25256         0         1
     25258     25257     25259         0         1
     25261     25260     25262         0         1
     25264     25263     25265         0         1
     25267     25266     25268         0         1
     25270     25269     25271         0         1
     25273     25272     25274         0         1
     25276     25275     25277         0         1
     25279     25278     25280         0         1
     25282     25281     25283         0         1
     25285     25284     25286         0         1
     25288     25287     25289         0         1
     25291     25290     25292         0         1
     25294     25293     25295         0         1
     25297     25296     25298         0         1
     25300     25299     25301         0         1
     25303     25302     25304         0         1
     25306     25305     25307         0         1
     25309     25308     25310         0         1
     25312     25311     25313         0         1
     25315     25314     25316         0         1
     25318     25317     25319         0         1
     25321     25320     25322         0         1
     25324     25323     25325         0         1
     25327     25326     25328         0         1
     25330     25329     25331         0         1
     25333     25332     25334         0         1
     25336     25335     25337         0         1
     25339     25338     25340         0         1
     25342     25341     25343         0         1
     25345     25344     25346         0         1
     25348     25347     25349         0         1
     25351     25350     25352         0         1
     25354     25353     25355         0         1
     25357     25356     25358         0         1
     25360     25359     25361         0         1
     25363     25362     25364         0         1
     25366     25365     25367         0         1
     25369     25368     25370         0         1
     25372     25371     25373         0         1
     25375     25374     25376         0         1
     25378     25377     25379         0         1
     25381     25380     25382         0         1
     25384     25383     25385         0         1
     25387     25386     25388         0         1
     25390     25389     25391         0         1
     25393     25392     25394         0         1
     25396     25395     25397         0         1
     25399     25398     25400         0         1
     25402     25401     25403         0         1
     25405     25404     25406         0         1
     25408     25407     25409         0         1
     25411     25410     25412         0         1
     25414     25413     25415         0         1
     25417     25416     25418         0         1
     25420     25419     25421         0         1
     25423     25422     25424         0         1
     25426     25425     25427         0         1
     25429     25428     25430         0         1
     25432     25431     25433         0         1
     25435     25434     25436         0         1
     25438     25437     25439         0         1
     25441     25440     25442         0         1
     25444     25443     25445         0         1
     25447     25446     25448         0         1
     25450     25449     25451         0         1
     25453     25452     25454         0         1
     25456     25455     25457         0         1
     25459     25458     25460         0         1
     25462     25461     25463         0         1
     25465     25464     25466         0         1
     25468     25467     25469         0         1
     25471     25470     25472         0         1
     25474     25473     25475         0         1
     25477     25476     25478         0         1
     25480     25479     25481         0         1
     25483     25482     25484         0         1
     25486     25485     25487         0         1
     25489     25488     25490         0         1
     25492     25491     25493         0         1
     25495     25494     25496         0         1
     25498     25497     25499         0         1
     25501     25500     25502         0         1
     25504     25503     25505         0         1
     25507     25506     25508         0         1
     25510     25509     25511         0         1
     25513     25512     25514         0         1
     25516     25515     25517         0         1
     25519     25518     25520         0         1
     25522     25521     25523         0         1
     25525     25524     25526         0         1
     25528     25527     25529         0         1
     25531     25530     25532         0         1
     25534     25533     25535         0         1
     25537     25536     25538         0         1
     25540     25539     25541         0         1
     25543     25542     25544         0         1
     25546     25545     25547         0         1
     25549     25548     25550         0         1
     25552     25551     25553         0         1
     25555     25554     25556         0         1
     25558     25557     25559         0         1
     25561     25560     25562         0         1
     25564     25563     25565         0         1
     25567     25566     25568         0         1
     25570     25569     25571         0         1
     25573     25572     25574         0         1
     25576     25575     25577         0         1
     25579     25578     25580         0         1
     25582     25581     25583         0         1
     25585     25584     25586         0         1
     25588     25587     25589         0         1
     25591     25590     25592         0         1
     25594     25593     25595         0         1
     25597     25596     25598         0         1
     25600     25599     25601         0         1
     25603     25602     25604         0         1
     25606     25605     25607         0         1
     25609     25608     25610         0         1
     25612     25611     25613         0         1
     25615     25614     25616         0         1
     25618     25617     25619         0         1
     25621     25620     25622         0         1
     25624     25623     25625         0         1
     25627     25626     25628         0         1
     25630     25629     25631         0         1
     25633     25632     25634         0         1
     25636     25635     25637         0         1
     25639     25638     25640         0         1
     25642     25641     25643         0         1
     25645     25644     25646         0         1
     25648     25647     25649         0         1
     25651     25650     25652         0         1
     25654     25653     25655         0         1
     25657     25656     25658         0         1
     25660     25659     25661         0         1
     25663     25662     25664         0         1
     25666     25665     25667         0         1
     25669     25668     25670         0         1
     25672     25671     25673         0         1
     25675     25674     25676         0         1
     25678     25677     25679         0         1
     25681     25680     25682         0         1
     25684     25683     25685         0         1
     25687     25686     25688         0         1
     25690     25689     25691         0         1
     25693     25692     25694         0         1
     25696     25695     25697         0         1
     25699     25698     25700         0         1
     25702     25701     25703         0         1
     25705     25704     25706         0         1
     25708     25707     25709         0         1
     25711     25710     25712         0         1
     25714     25713     25715         0         1
     25717     25716     25718         0         1
     25720     25719     25721         0         1
     25723     25722     25724         0         1
     25726     25725     25727         0         1
     25729     25728     25730         0         1
     25732     25731     25733         0         1
     25735     25734     25736         0         1
     25738     25737     25739         0         1
     25741     25740     25742         0         1
     25744     25743     25745         0         1
     25747     25746     25748         0         1
     25750     25749     25751         0         1
     25753     25752     25754         0         1
     25756     25755     25757         0         1
     25759     25758     25760         0         1
     25762     25761     25763         0         1
     25765     25764     25766         0         1
     25768     25767     25769         0         1
     25771     25770     25772         0         1
     25774     25773     25775         0         1
     25777     25776     25778         0         1
     25780     25779     25781         0         1
     25783     25782     25784         0         1
     25786     25785     25787         0         1
     25789     25788     25790         0         1
     25792     25791     25793         0         1
     25795     25794     25796         0         1
     25798     25797     25799         0         1
     25801     25800     25802         0         1
     25804     25803     25805         0         1
     25807     25806     25808         0         1
     25810     25809     25811         0         1
     25813     25812     25814         0         1
     25816     25815     25817         0         1
     25819     25818     25820         0         1
     25822     25821     25823         0         1
     25825     25824     25826         0         1
     25828     25827     25829         0         1
     25831     25830     25832         0         1
     25834     25833     25835         0         1
     25837     25836     25838         0         1
     25840     25839     25841         0         1
     25843     25842     25844         0         1
     25846     25845     25847         0         1
     25849     25848     25850         0         1
     25852     25851     25853         0         1
     25855     25854     25856         0         1
     25858     25857     25859         0         1
     25861     25860     25862         0         1
     25864     25863     25865         0         1
     25867     25866     25868         0         1
     25870     25869     25871         0         1
     25873     25872     25874         0         1
     25876     25875     25877         0         1
     25879     25878     25880         0         1
     25882     25881     25883         0         1
     25885     25884     25886         0         1
     25888     25887     25889         0         1
     25891     25890     25892         0         1
     25894     25893     25895         0         1
     25897     25896     25898         0         1
     25900     25899     25901         0         1
     25903     25902     25904         0         1
     25906     25905     25907         0         1
     25909     25908     25910         0         1
     25912     25911     25913         0         1
     25915     25914     25916         0         1
     25918     25917     25919         0         1
     25921     25920     25922         0         1
     25924     25923     25925         0         1
     25927     25926     25928         0         1
     25930     25929     25931         0         1
     25933     25932     25934         0         1
     25936     25935     25937         0         1
     25939     25938     25940         0         1
     25942     25941     25943         0         1
     25945     25944     25946         0         1
     25948     25947     25949         0         1
     25951     25950     25952         0         1
     25954     25953     25955         0         1
     25957     25956     25958         0         1
     25960     25959     25961         0         1
     25963     25962     25964         0         1
     25966     25965     25967         0         1
     25969     25968     25970         0         1
     25972     25971     25973         0         1
     25975     25974     25976         0         1
     25978     25977     25979         0         1
     25981     25980     25982         0         1
     25984     25983     25985         0         1
     25987     25986     25988         0         1
     25990     25989     25991         0         1
     25993     25992     25994         0         1
     25996     25995     25997         0         1
     25999     25998     26000         0         1
     26002     26001     26003         0         1
     26005     26004     26006         0         1
     26008     26007     26009         0         1
     26011     26010     26012         0         1
     26014     26013     26015         0         1
     26017     26016     26018         0         1
     26020     26019     26021         0         1
     26023     26022     26024         0         1
     26026     26025     26027         0         1
     26029     26028     26030         0         1
     26032     26031     26033         0         1
     26035     26034     26036         0         1
     26038     26037     26039         0         1
     26041     26040     26042         0         1
     26044     26043     26045         0         1
     26047     26046     26048         0         1
     26050     26049     26051         0         1
     26053     26052     26054         0         1
     26056     26055     26057         0         1
     26059     26058     26060         0         1
     26062     26061     26063         0         1
     26065     26064     26066         0         1
     26068     26067     26069         0         1
     26071     26070     26072         0         1
     26074     26073     26075         0         1
     26077     26076     26078         0         1
     26080     26079     26081         0         1
     26083     26082     26084         0         1
     26086     26085     26087         0         1
     26089     26088     26090         0         1
     26092     26091     26093         0         1
     26095     26094     26096         0         1
     26098     26097     26099         0         1
     26101     26100     26102         0         1
     26104     26103     26105         0         1
     26107     26106     26108         0         1
     26110     26109     26111         0         1
     26113     26112     26114         0         1
     26116     26115     26117         0         1
     26119     26118     26120         0         1
     26122     26121     26123         0         1
     26125     26124     26126         0         1
     26128     26127     26129         0         1
     26131     26130     26132         0         1
     26134     26133     26135         0         1
     26137     26136     26138         0         1
     26140     26139     26141         0         1
     26143     26142     26144         0         1
     26146     26145     26147         0         1
     26149     26148     26150         0         1
     26152     26151     26153         0         1
     26155     26154     26156         0         1
     26158     26157     26159         0         1
     26161     26160     26162         0         1
     26164     26163     26165         0         1
     26167     26166     26168         0         1
     26170     26169     26171         0         1
     26173     26172     26174         0         1
     26176     26175     26177         0         1
     26179     26178     26180         0         1
     26182     26181     26183         0         1
     26185     26184     26186         0         1
     26188     26187     26189         0         1
     26191     26190     26192         0         1
     26194     26193     26195         0         1
     26197     26196     26198         0         1
     26200     26199     26201         0         1
     26203     26202     26204         0         1
     26206     26205     26207         0         1
     26209     26208     26210         0         1
     26212     26211     26213         0         1
     26215     26214     26216         0         1
     26218     26217     26219         0         1
     26221     26220     26222         0         1
     26224     26223     26225         0         1
     26227     26226     26228         0         1
     26230     26229     26231         0         1
     26233     26232     26234         0         1
     26236     26235     26237         0         1
     26239     26238     26240         0         1
     26242     26241     26243         0         1
     26245     26244     26246         0         1
     26248     26247     26249         0         1
     26251     26250     26252         0         1
     26254     26253     26255         0         1
     26257     26256     26258         0         1
     26260     26259     26261         0         1
     26263     26262     26264         0         1
     26266     26265     26267         0         1
     26269     26268     26270         0         1
     26272     26271     26273         0         1
     26275     26274     26276         0         1
     26278     26277     26279         0         1
     26281     26280     26282         0         1
     26284     26283     26285         0         1
     26287     26286     26288         0         1
     26290     26289     26291         0         1
     26293     26292     26294         0         1
     26296     26295     26297         0         1
     26299     26298     26300         0         1
     26302     26301     26303         0         1
     26305     26304     26306         0         1
     26308     26307     26309         0         1
     26311     26310     26312         0         1
     26314     26313     26315         0         1
     26317     26316     26318         0         1
     26320     26319     26321         0         1
     26323     26322     26324         0         1
     26326     26325     26327         0         1
     26329     26328     26330         0         1
     26332     26331     26333         0         1
     26335     26334     26336         0         1
     26338     26337     26339         0         1
     26341     26340     26342         0         1
     26344     26343     26345         0         1
     26347     26346     26348         0         1
     26350     26349     26351         0         1
     26353     26352     26354         0         1
     26356     26355     26357         0         1
     26359     26358     26360         0         1
     26362     26361     26363         0         1
     26365     26364     26366         0         1
     26368     26367     26369         0         1
     26371     26370     26372         0         1
     26374     26373     26375         0         1
     26377     26376     26378         0         1
     26380     26379     26381         0         1
     26383     26382     26384         0         1
     26386     26385     26387         0         1
     26389     26388     26390         0         1
     26392     26391     26393         0         1
     26395     26394     26396         0         1
     26398     26397     26399         0         1
     26401     26400     26402         0         1
     26404     26403     26405         0         1
     26407     26406     26408         0         1
     26410     26409     26411         0         1
     26413     26412     26414         0         1
     26416     26415     26417         0         1
     26419     26418     26420         0         1
     26422     26421     26423         0         1
     26425     26424     26426         0         1
     26428     26427     26429         0         1
     26431     26430     26432         0         1
     26434     26433     26435         0         1
     26437     26436     26438         0         1
     26440     26439     26441         0         1
     26443     26442     26444         0         1
     26446     26445     26447         0         1
     26449     26448     26450         0         1
     26452     26451     26453         0         1
     26455     26454     26456         0         1
     26458     26457     26459         0         1
     26461     26460     26462         0         1
     26464     26463     26465         0         1
     26467     26466     26468         0         1
     26470     26469     26471         0         1
     26473     26472     26474         0         1
     26476     26475     26477         0         1
     26479     26478     26480         0         1
     26482     26481     26483         0         1
     26485     26484     26486         0         1
     26488     26487     26489         0         1
     26491     26490     26492         0         1
     26494     26493     26495         0         1
     26497     26496     26498         0         1
     26500     26499     26501         0         1
     26503     26502     26504         0         1
     26506     26505     26507         0         1
     26509     26508     26510         0         1
     26512     26511     26513         0         1
     26515     26514     26516         0         1
     26518     26517     26519         0         1
     26521     26520     26522         0         1
     26524     26523     26525         0         1
     26527     26526     26528         0         1
     26530     26529     26531         0         1
     26533     26532     26534         0         1
     26536     26535     26537         0         1
     26539     26538     26540         0         1
     26542     26541     26543         0         1
     26545     26544     26546         0         1
     26548     26547     26549         0         1
     26551     26550     26552         0         1
     26554     26553     26555         0         1
     26557     26556     26558         0         1
     26560     26559     26561         0         1
     26563     26562     26564         0         1
     26566     26565     26567         0         1
     26569     26568     26570         0         1
     26572     26571     26573         0         1
     26575     26574     26576         0         1
     26578     26577     26579         0         1
     26581     26580     26582         0         1
     26584     26583     26585         0         1
     26587     26586     26588         0         1
     26590     26589     26591         0         1
     26593     26592     26594         0         1
     26596     26595     26597         0         1
     26599     26598     26600         0         1
     26602     26601     26603         0         1
     26605     26604     26606         0         1
     26608     26607     26609         0         1
     26611     26610     26612         0         1
     26614     26613     26615         0         1
     26617     26616     26618         0         1
     26620     26619     26621         0         1
     26623     26622     26624         0         1
     26626     26625     26627         0         1
     26629     26628     26630         0         1
     26632     26631     26633         0         1
     26635     26634     26636         0         1
     26638     26637     26639         0         1
     26641     26640     26642         0         1
     26644     26643     26645         0         1
     26647     26646     26648         0         1
     26650     26649     26651         0         1
     26653     26652     26654         0         1
     26656     26655     26657         0         1
     26659     26658     26660         0         1
     26662     26661     26663         0         1
     26665     26664     26666         0         1
     26668     26667     26669         0         1
     26671     26670     26672         0         1
     26674     26673     26675         0         1
     26677     26676     26678         0         1
     26680     26679     26681         0         1
     26683     26682     26684         0         1
     26686     26685     26687         0         1
     26689     26688     26690         0         1
     26692     26691     26693         0         1
     26695     26694     26696         0         1
     26698     26697     26699         0         1
     26701     26700     26702         0         1
     26704     26703     26705         0         1
     26707     26706     26708         0         1
     26710     26709     26711         0         1
     26713     26712     26714         0         1
     26716     26715     26717         0         1
     26719     26718     26720         0         1
     26722     26721     26723         0         1
     26725     26724     26726         0         1
     26728     26727     26729         0         1
     26731     26730     26732         0         1
     26734     26733     26735         0         1
     26737     26736     26738         0         1
     26740     26739     26741         0         1
     26743     26742     26744         0         1
     26746     26745     26747         0         1
     26749     26748     26750         0         1
     26752     26751     26753         0         1
     26755     26754     26756         0         1
     26758     26757     26759         0         1
     26761     26760     26762         0         1
     26764     26763     26765         0         1
     26767     26766     26768         0         1
     26770     26769     26771         0         1
     26773     26772     26774         0         1
     26776     26775     26777         0         1
     26779     26778     26780         0         1
     26782     26781     26783         0         1
     26785     26784     26786         0         1
     26788     26787     26789         0         1
     26791     26790     26792         0         1
     26794     26793     26795         0         1
     26797     26796     26798         0         1
     26800     26799     26801         0         1
     26803     26802     26804         0         1
     26806     26805     26807         0         1
     26809     26808     26810         0         1
     26812     26811     26813         0         1
     26815     26814     26816         0         1
     26818     26817     26819         0         1
     26821     26820     26822         0         1
     26824     26823     26825         0         1
     26827     26826     26828         0         1
     26830     26829     26831         0         1
     26833     26832     26834         0         1
     26836     26835     26837         0         1
     26839     26838     26840         0         1
     26842     26841     26843         0         1
     26845     26844     26846         0         1
     26848     26847     26849         0         1
     26851     26850     26852         0         1
     26854     26853     26855         0         1
     26857     26856     26858         0         1
     26860     26859     26861         0         1
     26863     26862     26864         0         1
     26866     26865     26867         0         1
     26869     26868     26870         0         1
     26872     26871     26873         0         1
     26875     26874     26876         0         1
     26878     26877     26879         0         1
     26881     26880     26882         0         1
     26884     26883     26885         0         1
     26887     26886     26888         0         1
     26890     26889     26891         0         1
     26893     26892     26894         0         1
     26896     26895     26897         0         1
     26899     26898     26900         0         1
     26902     26901     26903         0         1
     26905     26904     26906         0         1
     26908     26907     26909         0         1
     26911     26910     26912         0         1
     26914     26913     26915         0         1
     26917     26916     26918         0         1
     26920     26919     26921         0         1
     26923     26922     26924         0         1
     26926     26925     26927         0         1
     26929     26928     26930         0         1
     26932     26931     26933         0         1
     26935     26934     26936         0         1
     26938     26937     26939         0         1
     26941     26940     26942         0         1
     26944     26943     26945         0         1
     26947     26946     26948         0         1
     26950     26949     26951         0         1
     26953     26952     26954         0         1
     26956     26955     26957         0         1
     26959     26958     26960         0         1
     26962     26961     26963         0         1
     26965     26964     26966         0         1
     26968     26967     26969         0         1
     26971     26970     26972         0         1
     26974     26973     26975         0         1
     26977     26976     26978         0         1
     26980     26979     26981         0         1
     26983     26982     26984         0         1
     26986     26985     26987         0         1
     26989     26988     26990         0         1
     26992     26991     26993         0         1
     26995     26994     26996         0         1
     26998     26997     26999         0         1
     27001     27000     27002         0         1
     27004     27003     27005         0         1
     27007     27006     27008         0         1
     27010     27009     27011         0         1
     27013     27012     27014         0         1
     27016     27015     27017         0         1
     27019     27018     27020         0         1
     27022     27021     27023         0         1
     27025     27024     27026         0         1
     27028     27027     27029         0         1
     27031     27030     27032         0         1
     27034     27033     27035         0         1
     27037     27036     27038         0         1
     27040     27039     27041         0         1
     27043     27042     27044         0         1
     27046     27045     27047         0         1
     27049     27048     27050         0         1
     27052     27051     27053         0         1
     27055     27054     27056         0         1
     27058     27057     27059         0         1
     27061     27060     27062         0         1
     27064     27063     27065         0         1
     27067     27066     27068         0         1
     27070     27069     27071         0         1
     27073     27072     27074         0         1
     27076     27075     27077         0         1
     27079     27078     27080         0         1
     27082     27081     27083         0         1
     27085     27084     27086         0         1
     27088     27087     27089         0         1
     27091     27090     27092         0         1
     27094     27093     27095         0         1
     27097     27096     27098         0         1
     27100     27099     27101         0         1
     27103     27102     27104         0         1
     27106     27105     27107         0         1
     27109     27108     27110         0         1
     27112     27111     27113         0         1
     27115     27114     27116         0         1
     27118     27117     27119         0         1
     27121     27120     27122         0         1
     27124     27123     27125         0         1
     27127     27126     27128         0         1
     27130     27129     27131         0         1
     27133     27132     27134         0         1
     27136     27135     27137         0         1
     27139     27138     27140         0         1
     27142     27141     27143         0         1
     27145     27144     27146         0         1
     27148     27147     27149         0         1
     27151     27150     27152         0         1
     27154     27153     27155         0         1
     27157     27156     27158         0         1
     27160     27159     27161         0         1
     27163     27162     27164         0         1
     27166     27165     27167         0         1
     27169     27168     27170         0         1
     27172     27171     27173         0         1
     27175     27174     27176         0         1
     27178     27177     27179         0         1
     27181     27180     27182         0         1
     27184     27183     27185         0         1
     27187     27186     27188         0         1
     27190     27189     27191         0         1
     27193     27192     27194         0         1
     27196     27195     27197         0         1
     27199     27198     27200         0         1
     27202     27201     27203         0         1
     27205     27204     27206         0         1
     27208     27207     27209         0         1
     27211     27210     27212         0         1
     27214     27213     27215         0         1
     27217     27216     27218         0         1
     27220     27219     27221         0         1
     27223     27222     27224         0         1
     27226     27225     27227         0         1
     27229     27228     27230         0         1
     27232     27231     27233         0         1
     27235     27234     27236         0         1
     27238     27237     27239         0         1
     27241     27240     27242         0         1
     27244     27243     27245         0         1
     27247     27246     27248         0         1
     27250     27249     27251         0         1
     27253     27252     27254         0         1
     27256     27255     27257         0         1
     27259     27258     27260         0         1
     27262     27261     27263         0         1
     27265     27264     27266         0         1
     27268     27267     27269         0         1
     27271     27270     27272         0         1
     27274     27273     27275         0         1
     27277     27276     27278         0         1
     27280     27279     27281         0         1
     27283     27282     27284         0         1
     27286     27285     27287         0         1
     27289     27288     27290         0         1
     27292     27291     27293         0         1
     27295     27294     27296         0         1
     27298     27297     27299         0         1
     27301     27300     27302         0         1
     27304     27303     27305         0         1
     27307     27306     27308         0         1
     27310     27309     27311         0         1
     27313     27312     27314         0         1
     27316     27315     27317         0         1
     27319     27318     27320         0         1
     27322     27321     27323         0         1
     27325     27324     27326         0         1
     27328     27327     27329         0         1
     27331     27330     27332         0         1
     27334     27333     27335         0         1
     27337     27336     27338         0         1
     27340     27339     27341         0         1
     27343     27342     27344         0         1
     27346     27345     27347         0         1
     27349     27348     27350         0         1
     27352     27351     27353         0         1
     27355     27354     27356         0         1
     27358     27357     27359         0         1
     27361     27360     27362         0         1
     27364     27363     27365         0         1
     27367     27366     27368         0         1
     27370     27369     27371         0         1
     27373     27372     27374         0         1
     27376     27375     27377         0         1
     27379     27378     27380         0         1
     27382     27381     27383         0         1
     27385     27384     27386         0         1
     27388     27387     27389         0         1
     27391     27390     27392         0         1
     27394     27393     27395         0         1
     27397     27396     27398         0         1
     27400     27399     27401         0         1
     27403     27402     27404         0         1
     27406     27405     27407         0         1
     27409     27408     27410         0         1
     27412     27411     27413         0         1
     27415     27414     27416         0         1
     27418     27417     27419         0         1
     27421     27420     27422         0         1
     27424     27423     27425         0         1
     27427     27426     27428         0         1
     27430     27429     27431         0         1
     27433     27432     27434         0         1
     27436     27435     27437         0         1
     27439     27438     27440         0         1
     27442     27441     27443         0         1
     27445     27444     27446         0         1
     27448     27447     27449         0         1
     27451     27450     27452         0         1
     27454     27453     27455         0         1
     27457     27456     27458         0         1
     27460     27459     27461         0         1
     27463     27462     27464         0         1
     27466     27465     27467         0         1
     27469     27468     27470         0         1
     27472     27471     27473         0         1
     27475     27474     27476         0         1
     27478     27477     27479         0         1
     27481     27480     27482         0         1
     27484     27483     27485         0         1
     27487     27486     27488         0         1
     27490     27489     27491         0         1
     27493     27492     27494         0         1
     27496     27495     27497         0         1
     27499     27498     27500         0         1
     27502     27501     27503         0         1
     27505     27504     27506         0         1
     27508     27507     27509         0         1
     27511     27510     27512         0         1
     27514     27513     27515         0         1
     27517     27516     27518         0         1
     27520     27519     27521         0         1
     27523     27522     27524         0         1
     27526     27525     27527         0         1
     27529     27528     27530         0         1
     27532     27531     27533         0         1
     27535     27534     27536         0         1
     27538     27537     27539         0         1
     27541     27540     27542         0         1
     27544     27543     27545         0         1
     27547     27546     27548         0         1
     27550     27549     27551         0         1
     27553     27552     27554         0         1
     27556     27555     27557         0         1
     27559     27558     27560         0         1
     27562     27561     27563         0         1
     27565     27564     27566         0         1
     27568     27567     27569         0         1
     27571     27570     27572         0         1
     27574     27573     27575         0         1
     27577     27576     27578         0         1
     27580     27579     27581         0         1
     27583     27582     27584         0         1
     27586     27585     27587         0         1
     27589     27588     27590         0         1
     27592     27591     27593         0         1
     27595     27594     27596         0         1
     27598     27597     27599         0         1
     27601     27600     27602         0         1
     27604     27603     27605         0         1
     27607     27606     27608         0         1
     27610     27609     27611         0         1
     27613     27612     27614         0         1
     27616     27615     27617         0         1
     27619     27618     27620         0         1
     27622     27621     27623         0         1
     27625     27624     27626         0         1
     27628     27627     27629         0         1
     27631     27630     27632         0         1
     27634     27633     27635         0         1
     27637     27636     27638         0         1
     27640     27639     27641         0         1
     27643     27642     27644         0         1
     27646     27645     27647         0         1
     27649     27648     27650         0         1
     27652     27651     27653         0         1
     27655     27654     27656         0         1
     27658     27657     27659         0         1
     27661     27660     27662         0         1
     27664     27663     27665         0         1
     27667     27666     27668         0         1
     27670     27669     27671         0         1
     27673     27672     27674         0         1
     27676     27675     27677         0         1
     27679     27678     27680         0         1
     27682     27681     27683         0         1
     27685     27684     27686         0         1
     27688     27687     27689         0         1
     27691     27690     27692         0         1
     27694     27693     27695         0         1
     27697     27696     27698         0         1
     27700     27699     27701         0         1
     27703     27702     27704         0         1
     27706     27705     27707         0         1
     27709     27708     27710         0         1
     27712     27711     27713         0         1
     27715     27714     27716         0         1
     27718     27717     27719         0         1
     27721     27720     27722         0         1
     27724     27723     27725         0         1
     27727     27726     27728         0         1
     27730     27729     27731         0         1
     27733     27732     27734         0         1
     27736     27735     27737         0         1
     27739     27738     27740         0         1
     27742     27741     27743         0         1
     27745     27744     27746         0         1
     27748     27747     27749         0         1
     27751     27750     27752         0         1
     27754     27753     27755         0         1
     27757     27756     27758         0         1
     27760     27759     27761         0         1
     27763     27762     27764         0         1
     27766     27765     27767         0         1
     27769     27768     27770         0         1
     27772     27771     27773         0         1
     27775     27774     27776         0         1
     27778     27777     27779         0         1
     27781     27780     27782         0         1
     27784     27783     27785         0         1
     27787     27786     27788         0         1
     27790     27789     27791         0         1
     27793     27792     27794         0         1
     27796     27795     27797         0         1
     27799     27798     27800         0         1
     27802     27801     27803         0         1
     27805     27804     27806         0         1
     27808     27807     27809         0         1
     27811     27810     27812         0         1
     27814     27813     27815         0         1
     27817     27816     27818         0         1
     27820     27819     27821         0         1
     27823     27822     27824         0         1
     27826     27825     27827         0         1
     27829     27828     27830         0         1
     27832     27831     27833         0         1
     27835     27834     27836         0         1
     27838     27837     27839         0         1
     27841     27840     27842         0         1
     27844     27843     27845         0         1
     27847     27846     27848         0         1
     27850     27849     27851         0         1
     27853     27852     27854         0         1
     27856     27855     27857         0         1
     27859     27858     27860         0         1
     27862     27861     27863         0         1
     27865     27864     27866         0         1
     27868     27867     27869         0         1
     27871     27870     27872         0         1
     27874     27873     27875         0         1
     27877     27876     27878         0         1
     27880     27879     27881         0         1
     27883     27882     27884         0         1
     27886     27885     27887         0         1
     27889     27888     27890         0         1
     27892     27891     27893         0         1
     27895     27894     27896         0         1
     27898     27897     27899         0         1
     27901     27900     27902         0         1
     27904     27903     27905         0         1
     27907     27906     27908         0         1
     27910     27909     27911         0         1
     27913     27912     27914         0         1
     27916     27915     27917         0         1
     27919     27918     27920         0         1
     27922     27921     27923         0         1
     27925     27924     27926         0         1
     27928     27927     27929         0         1
     27931     27930     27932         0         1
     27934     27933     27935         0         1
     27937     27936     27938         0         1
     27940     27939     27941         0         1
     27943     27942     27944         0         1
     27946     27945     27947         0         1
     27949     27948     27950         0         1
     27952     27951     27953         0         1
     27955     27954     27956         0         1
     27958     27957     27959         0         1
     27961     27960     27962         0         1
     27964     27963     27965         0         1
     27967     27966     27968         0         1
     27970     27969     27971         0         1
     27973     27972     27974         0         1
     27976     27975     27977         0         1
     27979     27978     27980         0         1
     27982     27981     27983         0         1
     27985     27984     27986         0         1
     27988     27987     27989         0         1
     27991     27990     27992         0         1
     27994     27993     27995         0         1
     27997     27996     27998         0         1
     28000     27999     28001         0         1
     28003     28002     28004         0         1
     28006     28005     28007         0         1
     28009     28008     28010         0         1
     28012     28011     28013         0         1
     28015     28014     28016         0         1
     28018     28017     28019         0         1
     28021     28020     28022         0         1
     28024     28023     28025         0         1
     28027     28026     28028         0         1
     28030     28029     28031         0         1
     28033     28032     28034         0         1
     28036     28035     28037         0         1
     28039     28038     28040         0         1
     28042     28041     28043         0         1
     28045     28044     28046         0         1
     28048     28047     28049         0         1
     28051     28050     28052         0         1
     28054     28053     28055         0         1
     28057     28056     28058         0         1
     28060     28059     28061         0         1
     28063     28062     28064         0         1
     28066     28065     28067         0         1
     28069     28068     28070         0         1
     28072     28071     28073         0         1
     28075     28074     28076         0         1
     28078     28077     28079         0         1
     28081     28080     28082         0         1
     28084     28083     28085         0         1
     28087     28086     28088         0         1
     28090     28089     28091         0         1
     28093     28092     28094         0         1
     28096     28095     28097         0         1
     28099     28098     28100         0         1
     28102     28101     28103         0         1
     28105     28104     28106         0         1
     28108     28107     28109         0         1
     28111     28110     28112         0         1
     28114     28113     28115         0         1
     28117     28116     28118         0         1
     28120     28119     28121         0         1
     28123     28122     28124         0         1
     28126     28125     28127         0         1
     28129     28128     28130         0         1
     28132     28131     28133         0         1
     28135     28134     28136         0         1
     28138     28137     28139         0         1
     28141     28140     28142         0         1
     28144     28143     28145         0         1
     28147     28146     28148         0         1
     28150     28149     28151         0         1
     28153     28152     28154         0         1
     28156     28155     28157         0         1
     28159     28158     28160         0         1
     28162     28161     28163         0         1
     28165     28164     28166         0         1
     28168     28167     28169         0         1
     28171     28170     28172         0         1
     28174     28173     28175         0         1
     28177     28176     28178         0         1
     28180     28179     28181         0         1
     28183     28182     28184         0         1
     28186     28185     28187         0         1
     28189     28188     28190         0         1
     28192     28191     28193         0         1
     28195     28194     28196         0         1
     28198     28197     28199         0         1
     28201     28200     28202         0         1
     28204     28203     28205         0         1
     28207     28206     28208         0         1
     28210     28209     28211         0         1
     28213     28212     28214         0         1
     28216     28215     28217         0         1
     28219     28218     28220         0         1
     28222     28221     28223         0         1
     28225     28224     28226         0         1
     28228     28227     28229         0         1
     28231     28230     28232         0         1
     28234     28233     28235         0         1
     28237     28236     28238         0         1
     28240     28239     28241         0         1
     28243     28242     28244         0         1
     28246     28245     28247         0         1
     28249     28248     28250         0         1
     28252     28251     28253         0         1
     28255     28254     28256         0         1
     28258     28257     28259         0         1
     28261     28260     28262         0         1
     28264     28263     28265         0         1
     28267     28266     28268         0         1
     28270     28269     28271         0         1
     28273     28272     28274         0         1
     28276     28275     28277         0         1
     28279     28278     28280         0         1
     28282     28281     28283         0         1
     28285     28284     28286         0         1
     28288     28287     28289         0         1
     28291     28290     28292         0         1
     28294     28293     28295         0         1
     28297     28296     28298         0         1
     28300     28299     28301         0         1
     28303     28302     28304         0         1
     28306     28305     28307         0         1
     28309     28308     28310         0         1
     28312     28311     28313         0         1
     28315     28314     28316         0         1
     28318     28317     28319         0         1
     28321     28320     28322         0         1
     28324     28323     28325         0         1
     28327     28326     28328         0         1
     28330     28329     28331         0         1
     28333     28332     28334         0         1
     28336     28335     28337         0         1
     28339     28338     28340         0         1
     28342     28341     28343         0         1
     28345     28344     28346         0         1
     28348     28347     28349         0         1
     28351     28350     28352         0         1
     28354     28353     28355         0         1
     28357     28356     28358         0         1
     28360     28359     28361         0         1
     28363     28362     28364         0         1
     28366     28365     28367         0         1
     28369     28368     28370         0         1
     28372     28371     28373         0         1
     28375     28374     28376         0         1
     28378     28377     28379         0         1
     28381     28380     28382         0         1
     28384     28383     28385         0         1
     28387     28386     28388         0         1
     28390     28389     28391         0         1
     28393     28392     28394         0         1
     28396     28395     28397         0         1
     28399     28398     28400         0         1
     28402     28401     28403         0         1
     28405     28404     28406         0         1
     28408     28407     28409         0         1
     28411     28410     28412         0         1
     28414     28413     28415         0         1
     28417     28416     28418         0         1
     28420     28419     28421         0         1
     28423     28422     28424         0         1
     28426     28425     28427         0         1
     28429     28428     28430         0         1
     28432     28431     28433         0         1
     28435     28434     28436         0         1
     28438     28437     28439         0         1
     28441     28440     28442         0         1
     28444     28443     28445         0         1
     28447     28446     28448         0         1
     28450     28449     28451         0         1
     28453     28452     28454         0         1
     28456     28455     28457         0         1
     28459     28458     28460         0         1
     28462     28461     28463         0         1
     28465     28464     28466         0         1
     28468     28467     28469         0         1
     28471     28470     28472         0         1
     28474     28473     28475         0         1
     28477     28476     28478         0         1
     28480     28479     28481         0         1
     28483     28482     28484         0         1
     28486     28485     28487         0         1
     28489     28488     28490         0         1
     28492     28491     28493         0         1
     28495     28494     28496         0         1
     28498     28497     28499         0         1
     28501     28500     28502         0         1
     28504     28503     28505         0         1
     28507     28506     28508         0         1
     28510     28509     28511         0         1
     28513     28512     28514         0         1
     28516     28515     28517         0         1
     28519     28518     28520         0         1
     28522     28521     28523         0         1
     28525     28524     28526         0         1
     28528     28527     28529         0         1
     28531     28530     28532         0         1
     28534     28533     28535         0         1
     28537     28536     28538         0         1
     28540     28539     28541         0         1
     28543     28542     28544         0         1
     28546     28545     28547         0         1
     28549     28548     28550         0         1
     28552     28551     28553         0         1
     28555     28554     28556         0         1
     28558     28557     28559         0         1
     28561     28560     28562         0         1
     28564     28563     28565         0         1
     28567     28566     28568         0         1
     28570     28569     28571         0         1
     28573     28572     28574         0         1
     28576     28575     28577         0         1
     28579     28578     28580         0         1
     28582     28581     28583         0         1
     28585     28584     28586         0         1
     28588     28587     28589         0         1
     28591     28590     28592         0         1
     28594     28593     28595         0         1
     28597     28596     28598         0         1
     28600     28599     28601         0         1
     28603     28602     28604         0         1
     28606     28605     28607         0         1
     28609     28608     28610         0         1
     28612     28611     28613         0         1
     28615     28614     28616         0         1
     28618     28617     28619         0         1
     28621     28620     28622         0         1
     28624     28623     28625         0         1
     28627     28626     28628         0         1
     28630     28629     28631         0         1
     28633     28632     28634         0         1
     28636     28635     28637         0         1
     28639     28638     28640         0         1
     28642     28641     28643         0         1
     28645     28644     28646         0         1
     28648     28647     28649         0         1
     28651     28650     28652         0         1
     28654     28653     28655         0         1
     28657     28656     28658         0         1
     28660     28659     28661         0         1
     28663     28662     28664         0         1
     28666     28665     28667         0         1
     28669     28668     28670         0         1
     28672     28671     28673         0         1
     28675     28674     28676         0         1
     28678     28677     28679         0         1
     28681     28680     28682         0         1
     28684     28683     28685         0         1
     28687     28686     28688         0         1
     28690     28689     28691         0         1
     28693     28692     28694         0         1
     28696     28695     28697         0         1
     28699     28698     28700         0         1
     28702     28701     28703         0         1
     28705     28704     28706         0         1
     28708     28707     28709         0         1
     28711     28710     28712         0         1
     28714     28713     28715         0         1
     28717     28716     28718         0         1
     28720     28719     28721         0         1
     28723     28722     28724         0         1
     28726     28725     28727         0         1
     28729     28728     28730         0         1
     28732     28731     28733         0         1
     28735     28734     28736         0         1
     28738     28737     28739         0         1
     28741     28740     28742         0         1
     28744     28743     28745         0         1
     28747     28746     28748         0         1
     28750     28749     28751         0         1
     28753     28752     28754         0         1
     28756     28755     28757         0         1
     28759     28758     28760         0         1
     28762     28761     28763         0         1
     28765     28764     28766         0         1
     28768     28767     28769         0         1
     28771     28770     28772         0         1
     28774     28773     28775         0         1
     28777     28776     28778         0         1
     28780     28779     28781         0         1
     28783     28782     28784         0         1
     28786     28785     28787         0         1
     28789     28788     28790         0         1
     28792     28791     28793         0         1
     28795     28794     28796         0         1
     28798     28797     28799         0         1
     28801     28800     28802         0         1
     28804     28803     28805         0         1
     28807     28806     28808         0         1
     28810     28809     28811         0         1
     28813     28812     28814         0         1
     28816     28815     28817         0         1
     28819     28818     28820         0         1
     28822     28821     28823         0         1
     28825     28824     28826         0         1
     28828     28827     28829         0         1
     28831     28830     28832         0         1
     28834     28833     28835         0         1
     28837     28836     28838         0         1
     28840     28839     28841         0         1
     28843     28842     28844         0         1
     28846     28845     28847         0         1
     28849     28848     28850         0         1
     28852     28851     28853         0         1
     28855     28854     28856         0         1
     28858     28857     28859         0         1
     28861     28860     28862         0         1
     28864     28863     28865         0         1
     28867     28866     28868         0         1
     28870     28869     28871         0         1
     28873     28872     28874         0         1
     28876     28875     28877         0         1
     28879     28878     28880         0         1
     28882     28881     28883         0         1
     28885     28884     28886         0         1
     28888     28887     28889         0         1
     28891     28890     28892         0         1
     28894     28893     28895         0         1
     28897     28896     28898         0         1
     28900     28899     28901         0         1
     28903     28902     28904         0         1
     28906     28905     28907         0         1
     28909     28908     28910         0         1
     28912     28911     28913         0         1
     28915     28914     28916         0         1
     28918     28917     28919         0         1
     28921     28920     28922         0         1
     28924     28923     28925         0         1
     28927     28926     28928         0         1
     28930     28929     28931         0         1
     28933     28932     28934         0         1
     28936     28935     28937         0         1
     28939     28938     28940         0         1
     28942     28941     28943         0         1
     28945     28944     28946         0         1
     28948     28947     28949         0         1
     28951     28950     28952         0         1
     28954     28953     28955         0         1
     28957     28956     28958         0         1
     28960     28959     28961         0         1
     28963     28962     28964         0         1
     28966     28965     28967         0         1
     28969     28968     28970         0         1
     28972     28971     28973         0         1
     28975     28974     28976         0         1
     28978     28977     28979         0         1
     28981     28980     28982         0         1
     28984     28983     28985         0         1
     28987     28986     28988         0         1
     28990     28989     28991         0         1
     28993     28992     28994         0         1
     28996     28995     28997         0         1
     28999     28998     29000         0         1
     29002     29001     29003         0         1
     29005     29004     29006         0         1
     29008     29007     29009         0         1
     29011     29010     29012         0         1
     29014     29013     29015         0         1
     29017     29016     29018         0         1
     29020     29019     29021         0         1
     29023     29022     29024         0         1
     29026     29025     29027         0         1
     29029     29028     29030         0         1
     29032     29031     29033         0         1
     29035     29034     29036         0         1
     29038     29037     29039         0         1
     29041     29040     29042         0         1
     29044     29043     29045         0         1
     29047     29046     29048         0         1
     29050     29049     29051         0         1
     29053     29052     29054         0         1
     29056     29055     29057         0         1
     29059     29058     29060         0         1
     29062     29061     29063         0         1
     29065     29064     29066         0         1
     29068     29067     29069         0         1
     29071     29070     29072         0         1
     29074     29073     29075         0         1
     29077     29076     29078         0         1
     29080     29079     29081         0         1
     29083     29082     29084         0         1
     29086     29085     29087         0         1
     29089     29088     29090         0         1
     29092     29091     29093         0         1
     29095     29094     29096         0         1
     29098     29097     29099         0         1
     29101     29100     29102         0         1
     29104     29103     29105         0         1
     29107     29106     29108         0         1
     29110     29109     29111         0         1
     29113     29112     29114         0         1
     29116     29115     29117         0         1
     29119     29118     29120         0         1
     29122     29121     29123         0         1
     29125     29124     29126         0         1
     29128     29127     29129         0         1
     29131     29130     29132         0         1
     29134     29133     29135         0         1
     29137     29136     29138         0         1
     29140     29139     29141         0         1
     29143     29142     29144         0         1
     29146     29145     29147         0         1
     29149     29148     29150         0         1
     29152     29151     29153         0         1
     29155     29154     29156         0         1
     29158     29157     29159         0         1
     29161     29160     29162         0         1
     29164     29163     29165         0         1
     29167     29166     29168         0         1
     29170     29169     29171         0         1
     29173     29172     29174         0         1
     29176     29175     29177         0         1
     29179     29178     29180         0         1
     29182     29181     29183         0         1
     29185     29184     29186         0         1
     29188     29187     29189         0         1
     29191     29190     29192         0         1
     29194     29193     29195         0         1
     29197     29196     29198         0         1
     29200     29199     29201         0         1
     29203     29202     29204         0         1
     29206     29205     29207         0         1
     29209     29208     29210         0         1
     29212     29211     29213         0         1
     29215     29214     29216         0         1
     29218     29217     29219         0         1
     29221     29220     29222         0         1
     29224     29223     29225         0         1
     29227     29226     29228         0         1
     29230     29229     29231         0         1
     29233     29232     29234         0         1
     29236     29235     29237         0         1
     29239     29238     29240         0         1
     29242     29241     29243         0         1
     29245     29244     29246         0         1
     29248     29247     29249         0         1
     29251     29250     29252         0         1
     29254     29253     29255         0         1
     29257     29256     29258         0         1
     29260     29259     29261         0         1
     29263     29262     29264         0         1
     29266     29265     29267         0         1
     29269     29268     29270         0         1
     29272     29271     29273         0         1
     29275     29274     29276         0         1
     29278     29277     29279         0         1
     29281     29280     29282         0         1
     29284     29283     29285         0         1
     29287     29286     29288         0         1
     29290     29289     29291         0         1
     29293     29292     29294         0         1
     29296     29295     29297         0         1
     29299     29298     29300         0         1
     29302     29301     29303         0         1
     29305     29304     29306         0         1
     29308     29307     29309         0         1
     29311     29310     29312         0         1
     29314     29313     29315         0         1
     29317     29316     29318         0         1
     29320     29319     29321         0         1
     29323     29322     29324         0         1
     29326     29325     29327         0         1
     29329     29328     29330         0         1
     29332     29331     29333         0         1
     29335     29334     29336         0         1
     29338     29337     29339         0         1
     29341     29340     29342         0         1
     29344     29343     29345         0         1
     29347     29346     29348         0         1
     29350     29349     29351         0         1
     29353     29352     29354         0         1
     29356     29355     29357         0         1
     29359     29358     29360         0         1
     29362     29361     29363         0         1
     29365     29364     29366         0         1
     29368     29367     29369         0         1
     29371     29370     29372         0         1
     29374     29373     29375         0         1
     29377     29376     29378         0         1
     29380     29379     29381         0         1
     29383     29382     29384         0         1
     29386     29385     29387         0         1
     29389     29388     29390         0         1
     29392     29391     29393         0         1
     29395     29394     29396         0         1
     29398     29397     29399         0         1
     29401     29400     29402         0         1
     29404     29403     29405         0         1
     29407     29406     29408         0         1
     29410     29409     29411         0         1
     29413     29412     29414         0         1
     29416     29415     29417         0         1
     29419     29418     29420         0         1
     29422     29421     29423         0         1
     29425     29424     29426         0         1
     29428     29427     29429         0         1
     29431     29430     29432         0         1
     29434     29433     29435         0         1
     29437     29436     29438         0         1
     29440     29439     29441         0         1
     29443     29442     29444         0         1
     29446     29445     29447         0         1
     29449     29448     29450         0         1
     29452     29451     29453         0         1
     29455     29454     29456         0         1
     29458     29457     29459         0         1
     29461     29460     29462         0         1
     29464     29463     29465         0         1
     29467     29466     29468         0         1
     29470     29469     29471         0         1
     29473     29472     29474         0         1
     29476     29475     29477         0         1
     29479     29478     29480         0         1
     29482     29481     29483         0         1
     29485     29484     29486         0         1
     29488     29487     29489         0         1
     29491     29490     29492         0         1
     29494     29493     29495         0         1
     29497     29496     29498         0         1
     29500     29499     29501         0         1
     29503     29502     29504         0         1
     29506     29505     29507         0         1
     29509     29508     29510         0         1
     29512     29511     29513         0         1
     29515     29514     29516         0         1
     29518     29517     29519         0         1
     29521     29520     29522         0         1
     29524     29523     29525         0         1
     29527     29526     29528         0         1
     29530     29529     29531         0         1
     29533     29532     29534         0         1
     29536     29535     29537         0         1
     29539     29538     29540         0         1
     29542     29541     29543         0         1
     29545     29544     29546         0         1
     29548     29547     29549         0         1
     29551     29550     29552         0         1
     29554     29553     29555         0         1
     29557     29556     29558         0         1
     29560     29559     29561         0         1
     29563     29562     29564         0         1
     29566     29565     29567         0         1
     29569     29568     29570         0         1
     29572     29571     29573         0         1
     29575     29574     29576         0         1
     29578     29577     29579         0         1
     29581     29580     29582         0         1
     29584     29583     29585         0         1
     29587     29586     29588         0         1
     29590     29589     29591         0         1
     29593     29592     29594         0         1
     29596     29595     29597         0         1
     29599     29598     29600         0         1
     29602     29601     29603         0         1
     29605     29604     29606         0         1
     29608     29607     29609         0         1
     29611     29610     29612         0         1
     29614     29613     29615         0         1
     29617     29616     29618         0         1
     29620     29619     29621         0         1
     29623     29622     29624         0         1
     29626     29625     29627         0         1
     29629     29628     29630         0         1
     29632     29631     29633         0         1
     29635     29634     29636         0         1
     29638     29637     29639         0         1
     29641     29640     29642         0         1
     29644     29643     29645         0         1
     29647     29646     29648         0         1
     29650     29649     29651         0         1
     29653     29652     29654         0         1
     29656     29655     29657         0         1
     29659     29658     29660         0         1
     29662     29661     29663         0         1
     29665     29664     29666         0         1
     29668     29667     29669         0         1
     29671     29670     29672         0         1
     29674     29673     29675         0         1
     29677     29676     29678         0         1
     29680     29679     29681         0         1
     29683     29682     29684         0         1
     29686     29685     29687         0         1
     29689     29688     29690         0         1
     29692     29691     29693         0         1
     29695     29694     29696         0         1
     29698     29697     29699         0         1
     29701     29700     29702         0         1
     29704     29703     29705         0         1
     29707     29706     29708         0         1
     29710     29709     29711         0         1
     29713     29712     29714         0         1
     29716     29715     29717         0         1
     29719     29718     29720         0         1
     29722     29721     29723         0         1
     29725     29724     29726         0         1
     29728     29727     29729         0         1
     29731     29730     29732         0         1
     29734     29733     29735         0         1
     29737     29736     29738         0         1
     29740     29739     29741         0         1
     29743     29742     29744         0         1
     29746     29745     29747         0         1
     29749     29748     29750         0         1
     29752     29751     29753         0         1
     29755     29754     29756         0         1
     29758     29757     29759         0         1
     29761     29760     29762         0         1
     29764     29763     29765         0         1
     29767     29766     29768         0         1
     29770     29769     29771         0         1
     29773     29772     29774         0         1
     29776     29775     29777         0         1
     29779     29778     29780         0         1
     29782     29781     29783         0         1
     29785     29784     29786         0         1
     29788     29787     29789         0         1
     29791     29790     29792         0         1
     29794     29793     29795         0         1
     29797     29796     29798         0         1
     29800     29799     29801         0         1
     29803     29802     29804         0         1
     29806     29805     29807         0         1
     29809     29808     29810         0         1
     29812     29811     29813         0         1
     29815     29814     29816         0         1
     29818     29817     29819         0         1
     29821     29820     29822         0         1
     29824     29823     29825         0         1
     29827     29826     29828         0         1
     29830     29829     29831         0         1
     29833     29832     29834         0         1
     29836     29835     29837         0         1
     29839     29838     29840         0         1
     29842     29841     29843         0         1
     29845     29844     29846         0         1
     29848     29847     29849         0         1
     29851     29850     29852         0         1
     29854     29853     29855         0         1
     29857     29856     29858         0         1
     29860     29859     29861         0         1
     29863     29862     29864         0         1
     29866     29865     29867         0         1
     29869     29868     29870         0         1
     29872     29871     29873         0         1
     29875     29874     29876         0         1
     29878     29877     29879         0         1
     29881     29880     29882         0         1
     29884     29883     29885         0         1
     29887     29886     29888         0         1
     29890     29889     29891         0         1
     29893     29892     29894         0         1
     29896     29895     29897         0         1
     29899     29898     29900         0         1
     29902     29901     29903         0         1
     29905     29904     29906         0         1
     29908     29907     29909         0         1
     29911     29910     29912         0         1
     29914     29913     29915         0         1
     29917     29916     29918         0         1
     29920     29919     29921         0         1
     29923     29922     29924         0         1
     29926     29925     29927         0         1
     29929     29928     29930         0         1
     29932     29931     29933         0         1
     29935     29934     29936         0         1
     29938     29937     29939         0         1
     29941     29940     29942         0         1
     29944     29943     29945         0         1
     29947     29946     29948         0         1
     29950     29949     29951         0         1
     29953     29952     29954         0         1
     29956     29955     29957         0         1
     29959     29958     29960         0         1
     29962     29961     29963         0         1
     29965     29964     29966         0         1
     29968     29967     29969         0         1
     29971     29970     29972         0         1
     29974     29973     29975         0         1
     29977     29976     29978         0         1
     29980     29979     29981         0         1
     29983     29982     29984         0         1
     29986     29985     29987         0         1
     29989     29988     29990         0         1
     29992     29991     29993         0         1
     29995     29994     29996         0         1
     29998     29997     29999         0         1
     30001     30000     30002         0         1
     30004     30003     30005         0         1
     30007     30006     30008         0         1
     30010     30009     30011         0         1
     30013     30012     30014         0         1
     30016     30015     30017         0         1
     30019     30018     30020         0         1
     30022     30021     30023         0         1
     30025     30024     30026         0         1
     30028     30027     30029         0         1
     30031     30030     30032         0         1
     30034     30033     30035         0         1
     30037     30036     30038         0         1
     30040     30039     30041         0         1
     30043     30042     30044         0         1
     30046     30045     30047         0         1
     30049     30048     30050         0         1
     30052     30051     30053         0         1
     30055     30054     30056         0         1
     30058     30057     30059         0         1
     30061     30060     30062         0         1
     30064     30063     30065         0         1
     30067     30066     30068         0         1
     30070     30069     30071         0         1
     30073     30072     30074         0         1
     30076     30075     30077         0         1
     30079     30078     30080         0         1
     30082     30081     30083         0         1
     30085     30084     30086         0         1
     30088     30087     30089         0         1
     30091     30090     30092         0         1
     30094     30093     30095         0         1
     30097     30096     30098         0         1
     30100     30099     30101         0         1
     30103     30102     30104         0         1
     30106     30105     30107         0         1
     30109     30108     30110         0         1
     30112     30111     30113         0         1
     30115     30114     30116         0         1
     30118     30117     30119         0         1
     30121     30120     30122         0         1
     30124     30123     30125         0         1
     30127     30126     30128         0         1
     30130     30129     30131         0         1
     30133     30132     30134         0         1
     30136     30135     30137         0         1
     30139     30138     30140         0         1
     30142     30141     30143         0         1
     30145     30144     30146         0         1
     30148     30147     30149         0         1
     30151     30150     30152         0         1
     30154     30153     30155         0         1
     30157     30156     30158         0         1
     30160     30159     30161         0         1
     30163     30162     30164         0         1
     30166     30165     30167         0         1
     30169     30168     30170         0         1
     30172     30171     30173         0         1
     30175     30174     30176         0         1
     30178     30177     30179         0         1
     30181     30180     30182         0         1
     30184     30183     30185         0         1
     30187     30186     30188         0         1
     30190     30189     30191         0         1
     30193     30192     30194         0         1
     30196     30195     30197         0         1
     30199     30198     30200         0         1
     30202     30201     30203         0         1
     30205     30204     30206         0         1
     30208     30207     30209         0         1
     30211     30210     30212         0         1
     30214     30213     30215         0         1
     30217     30216     30218         0         1
     30220     30219     30221         0         1
     30223     30222     30224         0         1
     30226     30225     30227         0         1
     30229     30228     30230         0         1
     30232     30231     30233         0         1
     30235     30234     30236         0         1
     30238     30237     30239         0         1
     30241     30240     30242         0         1
     30244     30243     30245         0         1
     30247     30246     30248         0         1
     30250     30249     30251         0         1
     30253     30252     30254         0         1
     30256     30255     30257         0         1
     30259     30258     30260         0         1
     30262     30261     30263         0         1
     30265     30264     30266         0         1
     30268     30267     30269         0         1
     30271     30270     30272         0         1
     30274     30273     30275         0         1
     30277     30276     30278         0         1
     30280     30279     30281         0         1
     30283     30282     30284         0         1
     30286     30285     30287         0         1
     30289     30288     30290         0         1
     30292     30291     30293         0         1
     30295     30294     30296         0         1
     30298     30297     30299         0         1
     30301     30300     30302         0         1
     30304     30303     30305         0         1
     30307     30306     30308         0         1
     30310     30309     30311         0         1
     30313     30312     30314         0         1
     30316     30315     30317         0         1
     30319     30318     30320         0         1
     30322     30321     30323         0         1
     30325     30324     30326         0         1
     30328     30327     30329         0         1
     30331     30330     30332         0         1
     30334     30333     30335         0         1
     30337     30336     30338         0         1
     30340     30339     30341         0         1
     30343     30342     30344         0         1
     30346     30345     30347         0         1
     30349     30348     30350         0         1
     30352     30351     30353         0         1
     30355     30354     30356         0         1
     30358     30357     30359         0         1
     30361     30360     30362         0         1
     30364     30363     30365         0         1
     30367     30366     30368         0         1
     30370     30369     30371         0         1
     30373     30372     30374         0         1
     30376     30375     30377         0         1
     30379     30378     30380         0         1
     30382     30381     30383         0         1
     30385     30384     30386         0         1
     30388     30387     30389         0         1
     30391     30390     30392         0         1
     30394     30393     30395         0         1
     30397     30396     30398         0         1
     30400     30399     30401         0         1
     30403     30402     30404         0         1
     30406     30405     30407         0         1
     30409     30408     30410         0         1
     30412     30411     30413         0         1
     30415     30414     30416         0         1
     30418     30417     30419         0         1
     30421     30420     30422         0         1
     30424     30423     30425         0         1
     30427     30426     30428         0         1
     30430     30429     30431         0         1
     30433     30432     30434         0         1
     30436     30435     30437         0         1
     30439     30438     30440         0         1
     30442     30441     30443         0         1
     30445     30444     30446         0         1
     30448     30447     30449         0         1
     30451     30450     30452         0         1
     30454     30453     30455         0         1
     30457     30456     30458         0         1
     30460     30459     30461         0         1
     30463     30462     30464         0         1
     30466     30465     30467         0         1
     30469     30468     30470         0         1
     30472     30471     30473         0         1
     30475     30474     30476         0         1
     30478     30477     30479         0         1
     30481     30480     30482         0         1
     30484     30483     30485         0         1
     30487     30486     30488         0         1
     30490     30489     30491         0         1
     30493     30492     30494         0         1
     30496     30495     30497         0         1
     30499     30498     30500         0         1
     30502     30501     30503         0         1
     30505     30504     30506         0         1
     30508     30507     30509         0         1
     30511     30510     30512         0         1
     30514     30513     30515         0         1
     30517     30516     30518         0         1
     30520     30519     30521         0         1
     30523     30522     30524         0         1
     30526     30525     30527         0         1
     30529     30528     30530         0         1
     30532     30531     30533         0         1
     30535     30534     30536         0         1
     30538     30537     30539         0         1
     30541     30540     30542         0         1
     30544     30543     30545         0         1
     30547     30546     30548         0         1
     30550     30549     30551         0         1
     30553     30552     30554         0         1
     30556     30555     30557         0         1
     30559     30558     30560         0         1
     30562     30561     30563         0         1
     30565     30564     30566         0         1
     30568     30567     30569         0         1
     30571     30570     30572         0         1
     30574     30573     30575         0         1
     30577     30576     30578         0         1
     30580     30579     30581         0         1
     30583     30582     30584         0         1
     30586     30585     30587         0         1
     30589     30588     30590         0         1
     30592     30591     30593         0         1
     30595     30594     30596         0         1
     30598     30597     30599         0         1
     30601     30600     30602         0         1
     30604     30603     30605         0         1
     30607     30606     30608         0         1
     30610     30609     30611         0         1
     30613     30612     30614         0         1
     30616     30615     30617         0         1
     30619     30618     30620         0         1
     30622     30621     30623         0         1
     30625     30624     30626         0         1
     30628     30627     30629         0         1
     30631     30630     30632         0         1
     30634     30633     30635         0         1
     30637     30636     30638         0         1
     30640     30639     30641         0         1
     30643     30642     30644         0         1
     30646     30645     30647         0         1
     30649     30648     30650         0         1
     30652     30651     30653         0         1
     30655     30654     30656         0         1
     30658     30657     30659         0         1
     30661     30660     30662         0         1
     30664     30663     30665         0         1
     30667     30666     30668         0         1
     30670     30669     30671         0         1
     30673     30672     30674         0         1
     30676     30675     30677         0         1
     30679     30678     30680         0         1
     30682     30681     30683         0         1
     30685     30684     30686         0         1
     30688     30687     30689         0         1
     30691     30690     30692         0         1
     30694     30693     30695         0         1
     30697     30696     30698         0         1
     30700     30699     30701         0         1
     30703     30702     30704         0         1
     30706     30705     30707         0         1
     30709     30708     30710         0         1
     30712     30711     30713         0         1
     30715     30714     30716         0         1
     30718     30717     30719         0         1
     30721     30720     30722         0         1
     30724     30723     30725         0         1
     30727     30726     30728         0         1
     30730     30729     30731         0         1
     30733     30732     30734         0         1
     30736     30735     30737         0         1
     30739     30738     30740         0         1
     30742     30741     30743         0         1
     30745     30744     30746         0         1
     30748     30747     30749         0         1
     30751     30750     30752         0         1
     30754     30753     30755         0         1
     30757     30756     30758         0         1
     30760     30759     30761         0         1
     30763     30762     30764         0         1
     30766     30765     30767         0         1
     30769     30768     30770         0         1
     30772     30771     30773         0         1
     30775     30774     30776         0         1
     30778     30777     30779         0         1
     30781     30780     30782         0         1
     30784     30783     30785         0         1
     30787     30786     30788         0         1
     30790     30789     30791         0         1
     30793     30792     30794         0         1
     30796     30795     30797         0         1
     30799     30798     30800         0         1
     30802     30801     30803         0         1
     30805     30804     30806         0         1
     30808     30807     30809         0         1
     30811     30810     30812         0         1
     30814     30813     30815         0         1
     30817     30816     30818         0         1
     30820     30819     30821         0         1
     30823     30822     30824         0         1
     30826     30825     30827         0         1
     30829     30828     30830         0         1
     30832     30831     30833         0         1
     30835     30834     30836         0         1
     30838     30837     30839         0         1
     30841     30840     30842         0         1
     30844     30843     30845         0         1
     30847     30846     30848         0         1
     30850     30849     30851         0         1
     30853     30852     30854         0         1
     30856     30855     30857         0         1
     30859     30858     30860         0         1
     30862     30861     30863         0         1
     30865     30864     30866         0         1
     30868     30867     30869         0         1
     30871     30870     30872         0         1
     30874     30873     30875         0         1
     30877     30876     30878         0         1
     30880     30879     30881         0         1
     30883     30882     30884         0         1
     30886     30885     30887         0         1
     30889     30888     30890         0         1
     30892     30891     30893         0         1
     30895     30894     30896         0         1
     30898     30897     30899         0         1
     30901     30900     30902         0         1
     30904     30903     30905         0         1
     30907     30906     30908         0         1
     30910     30909     30911         0         1
     30913     30912     30914         0         1
     30916     30915     30917         0         1
     30919     30918     30920         0         1
     30922     30921     30923         0         1
     30925     30924     30926         0         1
     30928     30927     30929         0         1
     30931     30930     30932         0         1
     30934     30933     30935         0         1
     30937     30936     30938         0         1
     30940     30939     30941         0         1
     30943     30942     30944         0         1
     30946     30945     30947         0         1
     30949     30948     30950         0         1
     30952     30951     30953         0         1
     30955     30954     30956         0         1
     30958     30957     30959         0         1
     30961     30960     30962         0         1
     30964     30963     30965         0         1
     30967     30966     30968         0         1
     30970     30969     30971         0         1
     30973     30972     30974         0         1
     30976     30975     30977         0         1
     30979     30978     30980         0         1
     30982     30981     30983         0         1
     30985     30984     30986         0         1
     30988     30987     30989         0         1
     30991     30990     30992         0         1
     30994     30993     30995         0         1
     30997     30996     30998         0         1
     31000     30999     31001         0         1
     31003     31002     31004         0         1
     31006     31005     31007         0         1
     31009     31008     31010         0         1
     31012     31011     31013         0         1
     31015     31014     31016         0         1
     31018     31017     31019         0         1
     31021     31020     31022         0         1
     31024     31023     31025         0         1
     31027     31026     31028         0         1
     31030     31029     31031         0         1
     31033     31032     31034         0         1
     31036     31035     31037         0         1
     31039     31038     31040         0         1
     31042     31041     31043         0         1
     31045     31044     31046         0         1
     31048     31047     31049         0         1
     31051     31050     31052         0         1
     31054     31053     31055         0         1
     31057     31056     31058         0         1
     31060     31059     31061         0         1
     31063     31062     31064         0         1
     31066     31065     31067         0         1
     31069     31068     31070         0         1
     31072     31071     31073         0         1
     31075     31074     31076         0         1
     31078     31077     31079         0         1
     31081     31080     31082         0         1
     31084     31083     31085         0         1
     31087     31086     31088         0         1
     31090     31089     31091         0         1
     31093     31092     31094         0         1
     31096     31095     31097         0         1
     31099     31098     31100         0         1
     31102     31101     31103         0         1
     31105     31104     31106         0         1
     31108     31107     31109         0         1
     31111     31110     31112         0         1
     31114     31113     31115         0         1
     31117     31116     31118         0         1
     31120     31119     31121         0         1
     31123     31122     31124         0         1
     31126     31125     31127         0         1
     31129     31128     31130         0         1
     31132     31131     31133         0         1
     31135     31134     31136         0         1
     31138     31137     31139         0         1
     31141     31140     31142         0         1
     31144     31143     31145         0         1
     31147     31146     31148         0         1
     31150     31149     31151         0         1
     31153     31152     31154         0         1
     31156     31155     31157         0         1
     31159     31158     31160         0         1
     31162     31161     31163         0         1
     31165     31164     31166         0         1
     31168     31167     31169         0         1
     31171     31170     31172         0         1
     31174     31173     31175         0         1
     31177     31176     31178         0         1
     31180     31179     31181         0         1
     31183     31182     31184         0         1
     31186     31185     31187         0         1
     31189     31188     31190         0         1
     31192     31191     31193         0         1
     31195     31194     31196         0         1
     31198     31197     31199         0         1
     31201     31200     31202         0         1
     31204     31203     31205         0         1
     31207     31206     31208         0         1
     31210     31209     31211         0         1
     31213     31212     31214         0         1
     31216     31215     31217         0         1
     31219     31218     31220         0         1
     31222     31221     31223         0         1
     31225     31224     31226         0         1
     31228     31227     31229         0         1
     31231     31230     31232         0         1
     31234     31233     31235         0         1
     31237     31236     31238         0         1
     31240     31239     31241         0         1
     31243     31242     31244         0         1
     31246     31245     31247         0         1
     31249     31248     31250         0         1
     31252     31251     31253         0         1
     31255     31254     31256         0         1
     31258     31257     31259         0         1
     31261     31260     31262         0         1
     31264     31263     31265         0         1
     31267     31266     31268         0         1
     31270     31269     31271         0         1
     31273     31272     31274         0         1
     31276     31275     31277         0         1
     31279     31278     31280         0         1
     31282     31281     31283         0         1
     31285     31284     31286         0         1
     31288     31287     31289         0         1
     31291     31290     31292         0         1
     31294     31293     31295         0         1
     31297     31296     31298         0         1
     31300     31299     31301         0         1
     31303     31302     31304         0         1
     31306     31305     31307         0         1
     31309     31308     31310         0         1
     31312     31311     31313         0         1
     31315     31314     31316         0         1
     31318     31317     31319         0         1
     31321     31320     31322         0         1
     31324     31323     31325         0         1
     31327     31326     31328         0         1
     31330     31329     31331         0         1
     31333     31332     31334         0         1
     31336     31335     31337         0         1
     31339     31338     31340         0         1
     31342     31341     31343         0         1
     31345     31344     31346         0         1
     31348     31347     31349         0         1
     31351     31350     31352         0         1
     31354     31353     31355         0         1
     31357     31356     31358         0         1
     31360     31359     31361         0         1
     31363     31362     31364         0         1
     31366     31365     31367         0         1
     31369     31368     31370         0         1
     31372     31371     31373         0         1
     31375     31374     31376         0         1
     31378     31377     31379         0         1
     31381     31380     31382         0         1
     31384     31383     31385         0         1
     31387     31386     31388         0         1
     31390     31389     31391         0         1
     31393     31392     31394         0         1
     31396     31395     31397         0         1
     31399     31398     31400         0         1
     31402     31401     31403         0         1
     31405     31404     31406         0         1
     31408     31407     31409         0         1
     31411     31410     31412         0         1
     31414     31413     31415         0         1
     31417     31416     31418         0         1
     31420     31419     31421         0         1
     31423     31422     31424         0         1
     31426     31425     31427         0         1
     31429     31428     31430         0         1
     31432     31431     31433         0         1
     31435     31434     31436         0         1
     31438     31437     31439         0         1
     31441     31440     31442         0         1
     31444     31443     31445         0         1
     31447     31446     31448         0         1
     31450     31449     31451         0         1
     31453     31452     31454         0         1
     31456     31455     31457         0         1
     31459     31458     31460         0         1
     31462     31461     31463         0         1
     31465     31464     31466         0         1
     31468     31467     31469         0         1
     31471     31470     31472         0         1
     31474     31473     31475         0         1
     31477     31476     31478         0         1
     31480     31479     31481         0         1
     31483     31482     31484         0         1
     31486     31485     31487         0         1
     31489     31488     31490         0         1
     31492     31491     31493         0         1
     31495     31494     31496         0         1
     31498     31497     31499         0         1
     31501     31500     31502         0         1
     31504     31503     31505         0         1
     31507     31506     31508         0         1
     31510     31509     31511         0         1
     31513     31512     31514         0         1
     31516     31515     31517         0         1
     31519     31518     31520         0         1
     31522     31521     31523         0         1
     31525     31524     31526         0         1
     31528     31527     31529         0         1
     31531     31530     31532         0         1
     31534     31533     31535         0         1
     31537     31536     31538         0         1
     31540     31539     31541         0         1
     31543     31542     31544         0         1
     31546     31545     31547         0         1
     31549     31548     31550         0         1
     31552     31551     31553         0         1
     31555     31554     31556         0         1
     31558     31557     31559         0         1
     31561     31560     31562         0         1
     31564     31563     31565         0         1
     31567     31566     31568         0         1
     31570     31569     31571         0         1
     31573     31572     31574         0         1
     31576     31575     31577         0         1
     31579     31578     31580         0         1
     31582     31581     31583         0         1
     31585     31584     31586         0         1
     31588     31587     31589         0         1
     31591     31590     31592         0         1
     31594     31593     31595         0         1
     31597     31596     31598         0         1
     31600     31599     31601         0         1
     31603     31602     31604         0         1
     31606     31605     31607         0         1
     31609     31608     31610         0         1
     31612     31611     31613         0         1
     31615     31614     31616         0         1
     31618     31617     31619         0         1
     31621     31620     31622         0         1
     31624     31623     31625         0         1
     31627     31626     31628         0         1
     31630     31629     31631         0         1
     31633     31632     31634         0         1
     31636     31635     31637         0         1
     31639     31638     31640         0         1
     31642     31641     31643         0         1
     31645     31644     31646         0         1
     31648     31647     31649         0         1
     31651     31650     31652         0         1
     31654     31653     31655         0         1
     31657     31656     31658         0         1
     31660     31659     31661         0         1
     31663     31662     31664         0         1
     31666     31665     31667         0         1
     31669     31668     31670         0         1
     31672     31671     31673         0         1
     31675     31674     31676         0         1
     31678     31677     31679         0         1
     31681     31680     31682         0         1
     31684     31683     31685         0         1
     31687     31686     31688         0         1
     31690     31689     31691         0         1
     31693     31692     31694         0         1
     31696     31695     31697         0         1
     31699     31698     31700         0         1
     31702     31701     31703         0         1
     31705     31704     31706         0         1
     31708     31707     31709         0         1
     31711     31710     31712         0         1
     31714     31713     31715         0         1
     31717     31716     31718         0         1
     31720     31719     31721         0         1
     31723     31722     31724         0         1
     31726     31725     31727         0         1
     31729     31728     31730         0         1
     31732     31731     31733         0         1
     31735     31734     31736         0         1
     31738     31737     31739         0         1
     31741     31740     31742         0         1
     31744     31743     31745         0         1
     31747     31746     31748         0         1
     31750     31749     31751         0         1
     31753     31752     31754         0         1
     31756     31755     31757         0         1
     31759     31758     31760         0         1
     31762     31761     31763         0         1
     31765     31764     31766         0         1
     31768     31767     31769         0         1
     31771     31770     31772         0         1
     31774     31773     31775         0         1
     31777     31776     31778         0         1
     31780     31779     31781         0         1
     31783     31782     31784         0         1
     31786     31785     31787         0         1
     31789     31788     31790         0         1
     31792     31791     31793         0         1
     31795     31794     31796         0         1
     31798     31797     31799         0         1
     31801     31800     31802         0         1
     31804     31803     31805         0         1
     31807     31806     31808         0         1
     31810     31809     31811         0         1
     31813     31812     31814         0         1
     31816     31815     31817         0         1
     31819     31818     31820         0         1
     31822     31821     31823         0         1
     31825     31824     31826         0         1
     31828     31827     31829         0         1
     31831     31830     31832         0         1
     31834     31833     31835         0         1
     31837     31836     31838         0         1
     31840     31839     31841         0         1
     31843     31842     31844         0         1
     31846     31845     31847         0         1
     31849     31848     31850         0         1
     31852     31851     31853         0         1
     31855     31854     31856         0         1
     31858     31857     31859         0         1
     31861     31860     31862         0         1
     31864     31863     31865         0         1
     31867     31866     31868         0         1
     31870     31869     31871         0         1
     31873     31872     31874         0         1
     31876     31875     31877         0         1
     31879     31878     31880         0         1
     31882     31881     31883         0         1
     31885     31884     31886         0         1
     31888     31887     31889         0         1
     31891     31890     31892         0         1
     31894     31893     31895         0         1
     31897     31896     31898         0         1
     31900     31899     31901         0         1
     31903     31902     31904         0         1
     31906     31905     31907         0         1
     31909     31908     31910         0         1
     31912     31911     31913         0         1
     31915     31914     31916         0         1
     31918     31917     31919         0         1
     31921     31920     31922         0         1
     31924     31923     31925         0         1
     31927     31926     31928         0         1
     31930     31929     31931         0         1
     31933     31932     31934         0         1
     31936     31935     31937         0         1
     31939     31938     31940         0         1
     31942     31941     31943         0         1
     31945     31944     31946         0         1
     31948     31947     31949         0         1
     31951     31950     31952         0         1
     31954     31953     31955         0         1
     31957     31956     31958         0         1
     31960     31959     31961         0         1
     31963     31962     31964         0         1
     31966     31965     31967         0         1
     31969     31968     31970         0         1
     31972     31971     31973         0         1
     31975     31974     31976         0         1
     31978     31977     31979         0         1
     31981     31980     31982         0         1
     31984     31983     31985         0         1
     31987     31986     31988         0         1
     31990     31989     31991         0         1
     31993     31992     31994         0         1
     31996     31995     31997         0         1
     31999     31998     32000         0         1
     32002     32001     32003         0         1
     32005     32004     32006         0         1
     32008     32007     32009         0         1
     32011     32010     32012         0         1
     32014     32013     32015         0         1
     32017     32016     32018         0         1
     32020     32019     32021         0         1
     32023     32022     32024         0         1
     32026     32025     32027         0         1
     32029     32028     32030         0         1
     32032     32031     32033         0         1
     32035     32034     32036         0         1
     32038     32037     32039         0         1
     32041     32040     32042         0         1
     32044     32043     32045         0         1
     32047     32046     32048         0         1
     32050     32049     32051         0         1
     32053     32052     32054         0         1
     32056     32055     32057         0         1
     32059     32058     32060         0         1
     32062     32061     32063         0         1
     32065     32064     32066         0         1
     32068     32067     32069         0         1
     32071     32070     32072         0         1
     32074     32073     32075         0         1
     32077     32076     32078         0         1
     32080     32079     32081         0         1
     32083     32082     32084         0         1
     32086     32085     32087         0         1
     32089     32088     32090         0         1
     32092     32091     32093         0         1
     32095     32094     32096         0         1
     32098     32097     32099         0         1
     32101     32100     32102         0         1
     32104     32103     32105         0         1
     32107     32106     32108         0         1
     32110     32109     32111         0         1
     32113     32112     32114         0         1
     32116     32115     32117         0         1
     32119     32118     32120         0         1
     32122     32121     32123         0         1
     32125     32124     32126         0         1
     32128     32127     32129         0         1
     32131     32130     32132         0         1
     32134     32133     32135         0         1
     32137     32136     32138         0         1
     32140     32139     32141         0         1
     32143     32142     32144         0         1
     32146     32145     32147         0         1
     32149     32148     32150         0         1
     32152     32151     32153         0         1
     32155     32154     32156         0         1
     32158     32157     32159         0         1
     32161     32160     32162         0         1
     32164     32163     32165         0         1
     32167     32166     32168         0         1
     32170     32169     32171         0         1
     32173     32172     32174         0         1
     32176     32175     32177         0         1
     32179     32178     32180         0         1
     32182     32181     32183         0         1
     32185     32184     32186         0         1
     32188     32187     32189         0         1
     32191     32190     32192         0         1
     32194     32193     32195         0         1
     32197     32196     32198         0         1
     32200     32199     32201         0         1
     32203     32202     32204         0         1
     32206     32205     32207         0         1
     32209     32208     32210         0         1
     32212     32211     32213         0         1
     32215     32214     32216         0         1
     32218     32217     32219         0         1
     32221     32220     32222         0         1
     32224     32223     32225         0         1
     32227     32226     32228         0         1
     32230     32229     32231         0         1
     32233     32232     32234         0         1
     32236     32235     32237         0         1
     32239     32238     32240         0         1
     32242     32241     32243         0         1
     32245     32244     32246         0         1
     32248     32247     32249         0         1
     32251     32250     32252         0         1
     32254     32253     32255         0         1
     32257     32256     32258         0         1
     32260     32259     32261         0         1
     32263     32262     32264         0         1
     32266     32265     32267         0         1
     32269     32268     32270         0         1
     32272     32271     32273         0         1
     32275     32274     32276         0         1
     32278     32277     32279         0         1
     32281     32280     32282         0         1
     32284     32283     32285         0         1
     32287     32286     32288         0         1
     32290     32289     32291         0         1
     32293     32292     32294         0         1
     32296     32295     32297         0         1
     32299     32298     32300         0         1
     32302     32301     32303         0         1
     32305     32304     32306         0         1
     32308     32307     32309         0         1
     32311     32310     32312         0         1
     32314     32313     32315         0         1
     32317     32316     32318         0         1
     32320     32319     32321         0         1
     32323     32322     32324         0         1
     32326     32325     32327         0         1
     32329     32328     32330         0         1
     32332     32331     32333         0         1
     32335     32334     32336         0         1
     32338     32337     32339         0         1
     32341     32340     32342         0         1
     32344     32343     32345         0         1
     32347     32346     32348         0         1
     32350     32349     32351         0         1
     32353     32352     32354         0         1
     32356     32355     32357         0         1
     32359     32358     32360         0         1
     32362     32361     32363         0         1
     32365     32364     32366         0         1
     32368     32367     32369         0         1
     32371     32370     32372         0         1
     32374     32373     32375         0         1
     32377     32376     32378         0         1
     32380     32379     32381         0         1
     32383     32382     32384         0         1
     32386     32385     32387         0         1
     32389     32388     32390         0         1
     32392     32391     32393         0         1
     32395     32394     32396         0         1
     32398     32397     32399         0         1
     32401     32400     32402         0         1
     32404     32403     32405         0         1
     32407     32406     32408         0         1
     32410     32409     32411         0         1
     32413     32412     32414         0         1
     32416     32415     32417         0         1
     32419     32418     32420         0         1
     32422     32421     32423         0         1
     32425     32424     32426         0         1
     32428     32427     32429         0         1
     32431     32430     32432         0         1
     32434     32433     32435         0         1
     32437     32436     32438         0         1
     32440     32439     32441         0         1
     32443     32442     32444         0         1
     32446     32445     32447         0         1
     32449     32448     32450         0         1
     32452     32451     32453         0         1
     32455     32454     32456         0         1
     32458     32457     32459         0         1
     32461     32460     32462         0         1
     32464     32463     32465         0         1
     32467     32466     32468         0         1
     32470     32469     32471         0         1
     32473     32472     32474         0         1
     32476     32475     32477         0         1
     32479     32478     32480         0         1
     32482     32481     32483         0         1
     32485     32484     32486         0         1
     32488     32487     32489         0         1
     32491     32490     32492         0         1
     32494     32493     32495         0         1
     32497     32496     32498         0         1
     32500     32499     32501         0         1
     32503     32502     32504         0         1
     32506     32505     32507         0         1
     32509     32508     32510         0         1
     32512     32511     32513         0         1
     32515     32514     32516         0         1
     32518     32517     32519         0         1
     32521     32520     32522         0         1
     32524     32523     32525         0         1
     32527     32526     32528         0         1
     32530     32529     32531         0         1
     32533     32532     32534         0         1
     32536     32535     32537         0         1
     32539     32538     32540         0         1
     32542     32541     32543         0         1
     32545     32544     32546         0         1
     32548     32547     32549         0         1
     32551     32550     32552         0         1
     32554     32553     32555         0         1
     32557     32556     32558         0         1
     32560     32559     32561         0         1
     32563     32562     32564         0         1
     32566     32565     32567         0         1
     32569     32568     32570         0         1
     32572     32571     32573         0         1
     32575     32574     32576         0         1
     32578     32577     32579         0         1
     32581     32580     32582         0         1
     32584     32583     32585         0         1
     32587     32586     32588         0         1
     32590     32589     32591         0         1
     32593     32592     32594         0         1
     32596     32595     32597         0         1
     32599     32598     32600         0         1
     32602     32601     32603         0         1
     32605     32604     32606         0         1
     32608     32607     32609         0         1
     32611     32610     32612         0         1
     32614     32613     32615         0         1
     32617     32616     32618         0         1
     32620     32619     32621         0         1
     32623     32622     32624         0         1
     32626     32625     32627         0         1
     32629     32628     32630         0         1
     32632     32631     32633         0         1
     32635     32634     32636         0         1
     32638     32637     32639         0         1
     32641     32640     32642         0         1
     32644     32643     32645         0         1
     32647     32646     32648         0         1
     32650     32649     32651         0         1
     32653     32652     32654         0         1
     32656     32655     32657         0         1
     32659     32658     32660         0         1
     32662     32661     32663         0         1
     32665     32664     32666         0         1
     32668     32667     32669         0         1
     32671     32670     32672         0         1
     32674     32673     32675         0         1
     32677     32676     32678         0         1
     32680     32679     32681         0         1
     32683     32682     32684         0         1
     32686     32685     32687         0         1
     32689     32688     32690         0         1
     32692     32691     32693         0         1
     32695     32694     32696         0         1
     32698     32697     32699         0         1
     32701     32700     32702         0         1
     32704     32703     32705         0         1
     32707     32706     32708         0         1
     32710     32709     32711         0         1
     32713     32712     32714         0         1
     32716     32715     32717         0         1
     32719     32718     32720         0         1
     32722     32721     32723         0         1
     32725     32724     32726         0         1
     32728     32727     32729         0         1
     32731     32730     32732         0         1
     32734     32733     32735         0         1
     32737     32736     32738         0         1
     32740     32739     32741         0         1
     32743     32742     32744         0         1
     32746     32745     32747         0         1
     32749     32748     32750         0         1
     32752     32751     32753         0         1
     32755     32754     32756         0         1
     32758     32757     32759         0         1
     32761     32760     32762         0         1
     32764     32763     32765         0         1
     32767     32766     32768         0         1
     32770     32769     32771         0         1
     32773     32772     32774         0         1
     32776     32775     32777         0         1
     32779     32778     32780         0         1
     32782     32781     32783         0         1
     32785     32784     32786         0         1
     32788     32787     32789         0         1
     32791     32790     32792         0         1
     32794     32793     32795         0         1
     32797     32796     32798         0         1
     32800     32799     32801         0         1
     32803     32802     32804         0         1
     32806     32805     32807         0         1
     32809     32808     32810         0         1
     32812     32811     32813         0         1
     32815     32814     32816         0         1
     32818     32817     32819         0         1
     32821     32820     32822         0         1
     32824     32823     32825         0         1
     32827     32826     32828         0         1
     32830     32829     32831         0         1
     32833     32832     32834         0         1
     32836     32835     32837         0         1
     32839     32838     32840         0         1
     32842     32841     32843         0         1
     32845     32844     32846         0         1
     32848     32847     32849         0         1
     32851     32850     32852         0         1
     32854     32853     32855         0         1
     32857     32856     32858         0         1
     32860     32859     32861         0         1
     32863     32862     32864         0         1
     32866     32865     32867         0         1
     32869     32868     32870         0         1
     32872     32871     32873         0         1
     32875     32874     32876         0         1
     32878     32877     32879         0         1
     32881     32880     32882         0         1
     32884     32883     32885         0         1
     32887     32886     32888         0         1
     32890     32889     32891         0         1
     32893     32892     32894         0         1
     32896     32895     32897         0         1
     32899     32898     32900         0         1
     32902     32901     32903         0         1
     32905     32904     32906         0         1
     32908     32907     32909         0         1
     32911     32910     32912         0         1
     32914     32913     32915         0         1
     32917     32916     32918         0         1
     32920     32919     32921         0         1
     32923     32922     32924         0         1
     32926     32925     32927         0         1
     32929     32928     32930         0         1
     32932     32931     32933         0         1
     32935     32934     32936         0         1
     32938     32937     32939         0         1
     32941     32940     32942         0         1
     32944     32943     32945         0         1
     32947     32946     32948         0         1
     32950     32949     32951         0         1
     32953     32952     32954         0         1
     32956     32955     32957         0         1
     32959     32958     32960         0         1
     32962     32961     32963         0         1
     32965     32964     32966         0         1
     32968     32967     32969         0         1
     32971     32970     32972         0         1
     32974     32973     32975         0         1
     32977     32976     32978         0         1
     32980     32979     32981         0         1
     32983     32982     32984         0         1
     32986     32985     32987         0         1
     32989     32988     32990         0         1
     32992     32991     32993         0         1
     32995     32994     32996         0         1
     32998     32997     32999         0         1
     33001     33000     33002         0         1
     33004     33003     33005         0         1
     33007     33006     33008         0         1
     33010     33009     33011         0         1
     33013     33012     33014         0         1
     33016     33015     33017         0         1
     33019     33018     33020         0         1
     33022     33021     33023         0         1
     33025     33024     33026         0         1
     33028     33027     33029         0         1
     33031     33030     33032         0         1
     33034     33033     33035         0         1
     33037     33036     33038         0         1
     33040     33039     33041         0         1
     33043     33042     33044         0         1
     33046     33045     33047         0         1
     33049     33048     33050         0         1
     33052     33051     33053         0         1
     33055     33054     33056         0         1
     33058     33057     33059         0         1
     33061     33060     33062         0         1
     33064     33063     33065         0         1
     33067     33066     33068         0         1
     33070     33069     33071         0         1
     33073     33072     33074         0         1
     33076     33075     33077         0         1
     33079     33078     33080         0         1
     33082     33081     33083         0         1
     33085     33084     33086         0         1
     33088     33087     33089         0         1
     33091     33090     33092         0         1
     33094     33093     33095         0         1
     33097     33096     33098         0         1
     33100     33099     33101         0         1
     33103     33102     33104         0         1
     33106     33105     33107         0         1
     33109     33108     33110         0         1
     33112     33111     33113         0         1
     33115     33114     33116         0         1
     33118     33117     33119         0         1
     33121     33120     33122         0         1
     33124     33123     33125         0         1
     33127     33126     33128         0         1
     33130     33129     33131         0         1
     33133     33132     33134         0         1
     33136     33135     33137         0         1
     33139     33138     33140         0         1
     33142     33141     33143         0         1
     33145     33144     33146         0         1
     33148     33147     33149         0         1
     33151     33150     33152         0         1
     33154     33153     33155         0         1
     33157     33156     33158         0         1
     33160     33159     33161         0         1
     33163     33162     33164         0         1
     33166     33165     33167         0         1
     33169     33168     33170         0         1
     33172     33171     33173         0         1
     33175     33174     33176         0         1
     33178     33177     33179         0         1
     33181     33180     33182         0         1
     33184     33183     33185         0         1
     33187     33186     33188         0         1
     33190     33189     33191         0         1
     33193     33192     33194         0         1
     33196     33195     33197         0         1
     33199     33198     33200         0         1
     33202     33201     33203         0         1
     33205     33204     33206         0         1
     33208     33207     33209         0         1
     33211     33210     33212         0         1
     33214     33213     33215         0         1
     33217     33216     33218         0         1
     33220     33219     33221         0         1
     33223     33222     33224         0         1
     33226     33225     33227         0         1
     33229     33228     33230         0         1
     33232     33231     33233         0         1
     33235     33234     33236         0         1
     33238     33237     33239         0         1
     33241     33240     33242         0         1
     33244     33243     33245         0         1
     33247     33246     33248         0         1
     33250     33249     33251         0         1
     33253     33252     33254         0         1
     33256     33255     33257         0         1
     33259     33258     33260         0         1
     33262     33261     33263         0         1
     33265     33264     33266         0         1
     33268     33267     33269         0         1
     33271     33270     33272         0         1
     33274     33273     33275         0         1
     33277     33276     33278         0         1
     33280     33279     33281         0         1
     33283     33282     33284         0         1
     33286     33285     33287         0         1
     33289     33288     33290         0         1
     33292     33291     33293         0         1
     33295     33294     33296         0         1
     33298     33297     33299         0         1
     33301     33300     33302         0         1
     33304     33303     33305         0         1
     33307     33306     33308         0         1
     33310     33309     33311         0         1
     33313     33312     33314         0         1
     33316     33315     33317         0         1
     33319     33318     33320         0         1
     33322     33321     33323         0         1
     33325     33324     33326         0         1
     33328     33327     33329         0         1
     33331     33330     33332         0         1
     33334     33333     33335         0         1
     33337     33336     33338         0         1
     33340     33339     33341         0         1
     33343     33342     33344         0         1
     33346     33345     33347         0         1
     33349     33348     33350         0         1
     33352     33351     33353         0         1
     33355     33354     33356         0         1
     33358     33357     33359         0         1
     33361     33360     33362         0         1
     33364     33363     33365         0         1
     33367     33366     33368         0         1
     33370     33369     33371         0         1
     33373     33372     33374         0         1
     33376     33375     33377         0         1
     33379     33378     33380         0         1
     33382     33381     33383         0         1
     33385     33384     33386         0         1
     33388     33387     33389         0         1
     33391     33390     33392         0         1
     33394     33393     33395         0         1
     33397     33396     33398         0         1
     33400     33399     33401         0         1
     33403     33402     33404         0         1
     33406     33405     33407         0         1
     33409     33408     33410         0         1
     33412     33411     33413         0         1
     33415     33414     33416         0         1
     33418     33417     33419         0         1
     33421     33420     33422         0         1
     33424     33423     33425         0         1
     33427     33426     33428         0         1
     33430     33429     33431         0         1
     33433     33432     33434         0         1
     33436     33435     33437         0         1
     33439     33438     33440         0         1
     33442     33441     33443         0         1
     33445     33444     33446         0         1
     33448     33447     33449         0         1
     33451     33450     33452         0         1
     33454     33453     33455         0         1
     33457     33456     33458         0         1
     33460     33459     33461         0         1
     33463     33462     33464         0         1
     33466     33465     33467         0         1
     33469     33468     33470         0         1
     33472     33471     33473         0         1
     33475     33474     33476         0         1
     33478     33477     33479         0         1
     33481     33480     33482         0         1
     33484     33483     33485         0         1
     33487     33486     33488         0         1
     33490     33489     33491         0         1
     33493     33492     33494         0         1
     33496     33495     33497         0         1
     33499     33498     33500         0         1
     33502     33501     33503         0         1
     33505     33504     33506         0         1
     33508     33507     33509         0         1
     33511     33510     33512         0         1
     33514     33513     33515         0         1
     33517     33516     33518         0         1
     33520     33519     33521         0         1
     33523     33522     33524         0         1
     33526     33525     33527         0         1
     33529     33528     33530         0         1
     33532     33531     33533         0         1
     33535     33534     33536         0         1
     33538     33537     33539         0         1
     33541     33540     33542         0         1
     33544     33543     33545         0         1
     33547     33546     33548         0         1
     33550     33549     33551         0         1
     33553     33552     33554         0         1
     33556     33555     33557         0         1
     33559     33558     33560         0         1
     33562     33561     33563         0         1
     33565     33564     33566         0         1
     33568     33567     33569         0         1
     33571     33570     33572         0         1
     33574     33573     33575         0         1
     33577     33576     33578         0         1
     33580     33579     33581         0         1
     33583     33582     33584         0         1
     33586     33585     33587         0         1
     33589     33588     33590         0         1
     33592     33591     33593         0         1
     33595     33594     33596         0         1
     33598     33597     33599         0         1
     33601     33600     33602         0         1
     33604     33603     33605         0         1
     33607     33606     33608         0         1
     33610     33609     33611         0         1
     33613     33612     33614         0         1
     33616     33615     33617         0         1
     33619     33618     33620         0         1
     33622     33621     33623         0         1
     33625     33624     33626         0         1
     33628     33627     33629         0         1
     33631     33630     33632         0         1
     33634     33633     33635         0         1
     33637     33636     33638         0         1
     33640     33639     33641         0         1
     33643     33642     33644         0         1
     33646     33645     33647         0         1
     33649     33648     33650         0         1
     33652     33651     33653         0         1
     33655     33654     33656         0         1
     33658     33657     33659         0         1
     33661     33660     33662         0         1
     33664     33663     33665         0         1
     33667     33666     33668         0         1
     33670     33669     33671         0         1
     33673     33672     33674         0         1
     33676     33675     33677         0         1
     33679     33678     33680         0         1
     33682     33681     33683         0         1
     33685     33684     33686         0         1
     33688     33687     33689         0         1
     33691     33690     33692         0         1
     33694     33693     33695         0         1
     33697     33696     33698         0         1
     33700     33699     33701         0         1
     33703     33702     33704         0         1
     33706     33705     33707         0         1
     33709     33708     33710         0         1
     33712     33711     33713         0         1
     33715     33714     33716         0         1
     33718     33717     33719         0         1
     33721     33720     33722         0         1
     33724     33723     33725         0         1
     33727     33726     33728         0         1
     33730     33729     33731         0         1
     33733     33732     33734         0         1
     33736     33735     33737         0         1
     33739     33738     33740         0         1
     33742     33741     33743         0         1
     33745     33744     33746         0         1
     33748     33747     33749         0         1
     33751     33750     33752         0         1
     33754     33753     33755         0         1
     33757     33756     33758         0         1
     33760     33759     33761         0         1
     33763     33762     33764         0         1
     33766     33765     33767         0         1
     33769     33768     33770         0         1
     33772     33771     33773         0         1
     33775     33774     33776         0         1
     33778     33777     33779         0         1
     33781     33780     33782         0         1
     33784     33783     33785         0         1
     33787     33786     33788         0         1
     33790     33789     33791         0         1
     33793     33792     33794         0         1
     33796     33795     33797         0         1
     33799     33798     33800         0         1
     33802     33801     33803         0         1
     33805     33804     33806         0         1
     33808     33807     33809         0         1
     33811     33810     33812         0         1
     33814     33813     33815         0         1
     33817     33816     33818         0         1
     33820     33819     33821         0         1
     33823     33822     33824         0         1
     33826     33825     33827         0         1
     33829     33828     33830         0         1
     33832     33831     33833         0         1
     33835     33834     33836         0         1
     33838     33837     33839         0         1
     33841     33840     33842         0         1
     33844     33843     33845         0         1
     33847     33846     33848         0         1
     33850     33849     33851         0         1
     33853     33852     33854         0         1
     33856     33855     33857         0         1
     33859     33858     33860         0         1
     33862     33861     33863         0         1
     33865     33864     33866         0         1
     33868     33867     33869         0         1
     33871     33870     33872         0         1
     33874     33873     33875         0         1
     33877     33876     33878         0         1
     33880     33879     33881         0         1
     33883     33882     33884         0         1
     33886     33885     33887         0         1
     33889     33888     33890         0         1
     33892     33891     33893         0         1
     33895     33894     33896         0         1
     33898     33897     33899         0         1
     33901     33900     33902         0         1
     33904     33903     33905         0         1
     33907     33906     33908         0         1
     33910     33909     33911         0         1
     33913     33912     33914         0         1
     33916     33915     33917         0         1
     33919     33918     33920         0         1
     33922     33921     33923         0         1
     33925     33924     33926         0         1
     33928     33927     33929         0         1
     33931     33930     33932         0         1
     33934     33933     33935         0         1
     33937     33936     33938         0         1
     33940     33939     33941         0         1
     33943     33942     33944         0         1
     33946     33945     33947         0         1
     33949     33948     33950         0         1
     33952     33951     33953         0         1
     33955     33954     33956         0         1
     33958     33957     33959         0         1
     33961     33960     33962         0         1
     33964     33963     33965         0         1
     33967     33966     33968         0         1
     33970     33969     33971         0         1
     33973     33972     33974         0         1
     33976     33975     33977         0         1
     33979     33978     33980         0         1
     33982     33981     33983         0         1
     33985     33984     33986         0         1
     33988     33987     33989         0         1
     33991     33990     33992         0         1
     33994     33993     33995         0         1
     33997     33996     33998         0         1
     34000     33999     34001         0         1
     34003     34002     34004         0         1
     34006     34005     34007         0         1
     34009     34008     34010         0         1
     34012     34011     34013         0         1
     34015     34014     34016         0         1
     34018     34017     34019         0         1
     34021     34020     34022         0         1
     34024     34023     34025         0         1
     34027     34026     34028         0         1
     34030     34029     34031         0         1
     34033     34032     34034         0         1
     34036     34035     34037         0         1
     34039     34038     34040         0         1
     34042     34041     34043         0         1
     34045     34044     34046         0         1
     34048     34047     34049         0         1
     34051     34050     34052         0         1
     34054     34053     34055         0         1
     34057     34056     34058         0         1
     34060     34059     34061         0         1
     34063     34062     34064         0         1
     34066     34065     34067         0         1
     34069     34068     34070         0         1
     34072     34071     34073         0         1
     34075     34074     34076         0         1
     34078     34077     34079         0         1
     34081     34080     34082         0         1
     34084     34083     34085         0         1
     34087     34086     34088         0         1
     34090     34089     34091         0         1
     34093     34092     34094         0         1
     34096     34095     34097         0         1
     34099     34098     34100         0         1
     34102     34101     34103         0         1
     34105     34104     34106         0         1
     34108     34107     34109         0         1
     34111     34110     34112         0         1
     34114     34113     34115         0         1
     34117     34116     34118         0         1
     34120     34119     34121         0         1
     34123     34122     34124         0         1
     34126     34125     34127         0         1
     34129     34128     34130         0         1
     34132     34131     34133         0         1
     34135     34134     34136         0         1
     34138     34137     34139         0         1
     34141     34140     34142         0         1
     34144     34143     34145         0         1
     34147     34146     34148         0         1
     34150     34149     34151         0         1
     34153     34152     34154         0         1
     34156     34155     34157         0         1
     34159     34158     34160         0         1
     34162     34161     34163         0         1
     34165     34164     34166         0         1
     34168     34167     34169         0         1
     34171     34170     34172         0         1
     34174     34173     34175         0         1
     34177     34176     34178         0         1
     34180     34179     34181         0         1
     34183     34182     34184         0         1
     34186     34185     34187         0         1
     34189     34188     34190         0         1
     34192     34191     34193         0         1
     34195     34194     34196         0         1
     34198     34197     34199         0         1
     34201     34200     34202         0         1
     34204     34203     34205         0         1
     34207     34206     34208         0         1
     34210     34209     34211         0         1
     34213     34212     34214         0         1
     34216     34215     34217         0         1
     34219     34218     34220         0         1
     34222     34221     34223         0         1
     34225     34224     34226         0         1
     34228     34227     34229         0         1
     34231     34230     34232         0         1
     34234     34233     34235         0         1
     34237     34236     34238         0         1
     34240     34239     34241         0         1
     34243     34242     34244         0         1
     34246     34245     34247         0         1
     34249     34248     34250         0         1
     34252     34251     34253         0         1
     34255     34254     34256         0         1
     34258     34257     34259         0         1
     34261     34260     34262         0         1
     34264     34263     34265         0         1
     34267     34266     34268         0         1
     34270     34269     34271         0         1
     34273     34272     34274         0         1
     34276     34275     34277         0         1
     34279     34278     34280         0         1
     34282     34281     34283         0         1
     34285     34284     34286         0         1
     34288     34287     34289         0         1
     34291     34290     34292         0         1
     34294     34293     34295         0         1
     34297     34296     34298         0         1
     34300     34299     34301         0         1
     34303     34302     34304         0         1
     34306     34305     34307         0         1
     34309     34308     34310         0         1
     34312     34311     34313         0         1
     34315     34314     34316         0         1
     34318     34317     34319         0         1
     34321     34320     34322         0         1
     34324     34323     34325         0         1
     34327     34326     34328         0         1
     34330     34329     34331         0         1
     34333     34332     34334         0         1
     34336     34335     34337         0         1
     34339     34338     34340         0         1
     34342     34341     34343         0         1
     34345     34344     34346         0         1
     34348     34347     34349         0         1
     34351     34350     34352         0         1
     34354     34353     34355         0         1
     34357     34356     34358         0         1
     34360     34359     34361         0         1
     34363     34362     34364         0         1
     34366     34365     34367         0         1
     34369     34368     34370         0         1
     34372     34371     34373         0         1
     34375     34374     34376         0         1
     34378     34377     34379         0         1
     34381     34380     34382         0         1
     34384     34383     34385         0         1
     34387     34386     34388         0         1
     34390     34389     34391         0         1
     34393     34392     34394         0         1
     34396     34395     34397         0         1
     34399     34398     34400         0         1
     34402     34401     34403         0         1
     34405     34404     34406         0         1
     34408     34407     34409         0         1
     34411     34410     34412         0         1
     34414     34413     34415         0         1
     34417     34416     34418         0         1
     34420     34419     34421         0         1
     34423     34422     34424         0         1
     34426     34425     34427         0         1
     34429     34428     34430         0         1
     34432     34431     34433         0         1
     34435     34434     34436         0         1
     34438     34437     34439         0         1
     34441     34440     34442         0         1
     34444     34443     34445         0         1
     34447     34446     34448         0         1
     34450     34449     34451         0         1
     34453     34452     34454         0         1
     34456     34455     34457         0         1
     34459     34458     34460         0         1
     34462     34461     34463         0         1
     34465     34464     34466         0         1
     34468     34467     34469         0         1
     34471     34470     34472         0         1
     34474     34473     34475         0         1
     34477     34476     34478         0         1
     34480     34479     34481         0         1
     34483     34482     34484         0         1
     34486     34485     34487         0         1
     34489     34488     34490         0         1
     34492     34491     34493         0         1
     34495     34494     34496         0         1
     34498     34497     34499         0         1
     34501     34500     34502         0         1
     34504     34503     34505         0         1
     34507     34506     34508         0         1
     34510     34509     34511         0         1
     34513     34512     34514         0         1
     34516     34515     34517         0         1
     34519     34518     34520         0         1
     34522     34521     34523         0         1
     34525     34524     34526         0         1
     34528     34527     34529         0         1
     34531     34530     34532         0         1
     34534     34533     34535         0         1
     34537     34536     34538         0         1
     34540     34539     34541         0         1
     34543     34542     34544         0         1
     34546     34545     34547         0         1
     34549     34548     34550         0         1
     34552     34551     34553         0         1
     34555     34554     34556         0         1
     34558     34557     34559         0         1
     34561     34560     34562         0         1
     34564     34563     34565         0         1
     34567     34566     34568         0         1
     34570     34569     34571         0         1
     34573     34572     34574         0         1
     34576     34575     34577         0         1
     34579     34578     34580         0         1
     34582     34581     34583         0         1
     34585     34584     34586         0         1
     34588     34587     34589         0         1
     34591     34590     34592         0         1
     34594     34593     34595         0         1
     34597     34596     34598         0         1
     34600     34599     34601         0         1
     34603     34602     34604         0         1
     34606     34605     34607         0         1
     34609     34608     34610         0         1
     34612     34611     34613         0         1
     34615     34614     34616         0         1
     34618     34617     34619         0         1
     34621     34620     34622         0         1
     34624     34623     34625         0         1
     34627     34626     34628         0         1
     34630     34629     34631         0         1
     34633     34632     34634         0         1
     34636     34635     34637         0         1
     34639     34638     34640         0         1
     34642     34641     34643         0         1
     34645     34644     34646         0         1
     34648     34647     34649         0         1
     34651     34650     34652         0         1
     34654     34653     34655         0         1
     34657     34656     34658         0         1
     34660     34659     34661         0         1
     34663     34662     34664         0         1
     34666     34665     34667         0         1
     34669     34668     34670         0         1
     34672     34671     34673         0         1
     34675     34674     34676         0         1
     34678     34677     34679         0         1
     34681     34680     34682         0         1
     34684     34683     34685         0         1
     34687     34686     34688         0         1
     34690     34689     34691         0         1
     34693     34692     34694         0         1
     34696     34695     34697         0         1
     34699     34698     34700         0         1
     34702     34701     34703         0         1
     34705     34704     34706         0         1
     34708     34707     34709         0         1
     34711     34710     34712         0         1
     34714     34713     34715         0         1
     34717     34716     34718         0         1
     34720     34719     34721         0         1
     34723     34722     34724         0         1
     34726     34725     34727         0         1
     34729     34728     34730         0         1
     34732     34731     34733         0         1
     34735     34734     34736         0         1
     34738     34737     34739         0         1
     34741     34740     34742         0         1
     34744     34743     34745         0         1
     34747     34746     34748         0         1
     34750     34749     34751         0         1
     34753     34752     34754         0         1
     34756     34755     34757         0         1
     34759     34758     34760         0         1
     34762     34761     34763         0         1
     34765     34764     34766         0         1
     34768     34767     34769         0         1
     34771     34770     34772         0         1
     34774     34773     34775         0         1
     34777     34776     34778         0         1
     34780     34779     34781         0         1
     34783     34782     34784         0         1
     34786     34785     34787         0         1
     34789     34788     34790         0         1
     34792     34791     34793         0         1
     34795     34794     34796         0         1
     34798     34797     34799         0         1
     34801     34800     34802         0         1
     34804     34803     34805         0         1
     34807     34806     34808         0         1
     34810     34809     34811         0         1
     34813     34812     34814         0         1
     34816     34815     34817         0         1
     34819     34818     34820         0         1
     34822     34821     34823         0         1
     34825     34824     34826         0         1
     34828     34827     34829         0         1
     34831     34830     34832         0         1
     34834     34833     34835         0         1
     34837     34836     34838         0         1
     34840     34839     34841         0         1
     34843     34842     34844         0         1
     34846     34845     34847         0         1
     34849     34848     34850         0         1
     34852     34851     34853         0         1
     34855     34854     34856         0         1
     34858     34857     34859         0         1
     34861     34860     34862         0         1
     34864     34863     34865         0         1
     34867     34866     34868         0         1
     34870     34869     34871         0         1
     34873     34872     34874         0         1
     34876     34875     34877         0         1
     34879     34878     34880         0         1
     34882     34881     34883         0         1
     34885     34884     34886         0         1
     34888     34887     34889         0         1
     34891     34890     34892         0         1
     34894     34893     34895         0         1
     34897     34896     34898         0         1
     34900     34899     34901         0         1
     34903     34902     34904         0         1
     34906     34905     34907         0         1
     34909     34908     34910         0         1
     34912     34911     34913         0         1
     34915     34914     34916         0         1
     34918     34917     34919         0         1
     34921     34920     34922         0         1
     34924     34923     34925         0         1
     34927     34926     34928         0         1
     34930     34929     34931         0         1
     34933     34932     34934         0         1
     34936     34935     34937         0         1
     34939     34938     34940         0         1
     34942     34941     34943         0         1
     34945     34944     34946         0         1
     34948     34947     34949         0         1
     34951     34950     34952         0         1
     34954     34953     34955         0         1
     34957     34956     34958         0         1
     34960     34959     34961         0         1
     34963     34962     34964         0         1
     34966     34965     34967         0         1
     34969     34968     34970         0         1
     34972     34971     34973         0         1
     34975     34974     34976         0         1
     34978     34977     34979         0         1
     34981     34980     34982         0         1
     34984     34983     34985         0         1
     34987     34986     34988         0         1
     34990     34989     34991         0         1
     34993     34992     34994         0         1
     34996     34995     34997         0         1
     34999     34998     35000         0         1
     35002     35001     35003         0         1
     35005     35004     35006         0         1
     35008     35007     35009         0         1
     35011     35010     35012         0         1
     35014     35013     35015         0         1
     35017     35016     35018         0         1
     35020     35019     35021         0         1
     35023     35022     35024         0         1
     35026     35025     35027         0         1
     35029     35028     35030         0         1
     35032     35031     35033         0         1
     35035     35034     35036         0         1
     35038     35037     35039         0         1
     35041     35040     35042         0         1
     35044     35043     35045         0         1
     35047     35046     35048         0         1
     35050     35049     35051         0         1
     35053     35052     35054         0         1
     35056     35055     35057         0         1
     35059     35058     35060         0         1
     35062     35061     35063         0         1
     35065     35064     35066         0         1
     35068     35067     35069         0         1
     35071     35070     35072         0         1
     35074     35073     35075         0         1
     35077     35076     35078         0         1
     35080     35079     35081         0         1
     35083     35082     35084         0         1
     35086     35085     35087         0         1
     35089     35088     35090         0         1
     35092     35091     35093         0         1
     35095     35094     35096         0         1
     35098     35097     35099         0         1
     35101     35100     35102         0         1
     35104     35103     35105         0         1
     35107     35106     35108         0         1
     35110     35109     35111         0         1
     35113     35112     35114         0         1
     35116     35115     35117         0         1
     35119     35118     35120         0         1
     35122     35121     35123         0         1
     35125     35124     35126         0         1
     35128     35127     35129         0         1
     35131     35130     35132         0         1
     35134     35133     35135         0         1
     35137     35136     35138         0         1
     35140     35139     35141         0         1
     35143     35142     35144         0         1
     35146     35145     35147         0         1
     35149     35148     35150         0         1
     35152     35151     35153         0         1
     35155     35154     35156         0         1
     35158     35157     35159         0         1
     35161     35160     35162         0         1
     35164     35163     35165         0         1
     35167     35166     35168         0         1
     35170     35169     35171         0         1
     35173     35172     35174         0         1
     35176     35175     35177         0         1
     35179     35178     35180         0         1
     35182     35181     35183         0         1
     35185     35184     35186         0         1
     35188     35187     35189         0         1
     35191     35190     35192         0         1
     35194     35193     35195         0         1
     35197     35196     35198         0         1
     35200     35199     35201         0         1
     35203     35202     35204         0         1
     35206     35205     35207         0         1
     35209     35208     35210         0         1
     35212     35211     35213         0         1
     35215     35214     35216         0         1
     35218     35217     35219         0         1
     35221     35220     35222         0         1
     35224     35223     35225         0         1
     35227     35226     35228         0         1
     35230     35229     35231         0         1
     35233     35232     35234         0         1
     35236     35235     35237         0         1
     35239     35238     35240         0         1
     35242     35241     35243         0         1
     35245     35244     35246         0         1
     35248     35247     35249         0         1
     35251     35250     35252         0         1
     35254     35253     35255         0         1
     35257     35256     35258         0         1
     35260     35259     35261         0         1
     35263     35262     35264         0         1
     35266     35265     35267         0         1
     35269     35268     35270         0         1
     35272     35271     35273         0         1
     35275     35274     35276         0         1
     35278     35277     35279         0         1
     35281     35280     35282         0         1
     35284     35283     35285         0         1
     35287     35286     35288         0         1
     35290     35289     35291         0         1
     35293     35292     35294         0         1
     35296     35295     35297         0         1
     35299     35298     35300         0         1
     35302     35301     35303         0         1
     35305     35304     35306         0         1
     35308     35307     35309         0         1
     35311     35310     35312         0         1
     35314     35313     35315         0         1
     35317     35316     35318         0         1
     35320     35319     35321         0         1
     35323     35322     35324         0         1
     35326     35325     35327         0         1
     35329     35328     35330         0         1
     35332     35331     35333         0         1
     35335     35334     35336         0         1
     35338     35337     35339         0         1
     35341     35340     35342         0         1
     35344     35343     35345         0         1
     35347     35346     35348         0         1
     35350     35349     35351         0         1
     35353     35352     35354         0         1
     35356     35355     35357         0         1
     35359     35358     35360         0         1
     35362     35361     35363         0         1
     35365     35364     35366         0         1
     35368     35367     35369         0         1
     35371     35370     35372         0         1
     35374     35373     35375         0         1
     35377     35376     35378         0         1
     35380     35379     35381         0         1
     35383     35382     35384         0         1
     35386     35385     35387         0         1
     35389     35388     35390         0         1
     35392     35391     35393         0         1
     35395     35394     35396         0         1
     35398     35397     35399         0         1
     35401     35400     35402         0         1
     35404     35403     35405         0         1
     35407     35406     35408         0         1
     35410     35409     35411         0         1
     35413     35412     35414         0         1
     35416     35415     35417         0         1
     35419     35418     35420         0         1
     35422     35421     35423         0         1
     35425     35424     35426         0         1
     35428     35427     35429         0         1
     35431     35430     35432         0         1
     35434     35433     35435         0         1
     35437     35436     35438         0         1
     35440     35439     35441         0         1
     35443     35442     35444         0         1
     35446     35445     35447         0         1
     35449     35448     35450         0         1
     35452     35451     35453         0         1
     35455     35454     35456         0         1
     35458     35457     35459         0         1
     35461     35460     35462         0         1
     35464     35463     35465         0         1
     35467     35466     35468         0         1
     35470     35469     35471         0         1
     35473     35472     35474         0         1
     35476     35475     35477         0         1
     35479     35478     35480         0         1
     35482     35481     35483         0         1
     35485     35484     35486         0         1
     35488     35487     35489         0         1
     35491     35490     35492         0         1
     35494     35493     35495         0         1
     35497     35496     35498         0         1
     35500     35499     35501         0         1
     35503     35502     35504         0         1
     35506     35505     35507         0         1
     35509     35508     35510         0         1
     35512     35511     35513         0         1
     35515     35514     35516         0         1
     35518     35517     35519         0         1
     35521     35520     35522         0         1
     35524     35523     35525         0         1
     35527     35526     35528         0         1
     35530     35529     35531         0         1
     35533     35532     35534         0         1
     35536     35535     35537         0         1
     35539     35538     35540         0         1
     35542     35541     35543         0         1
     35545     35544     35546         0         1
     35548     35547     35549         0         1
     35551     35550     35552         0         1
     35554     35553     35555         0         1
     35557     35556     35558         0         1
     35560     35559     35561         0         1
     35563     35562     35564         0         1
     35566     35565     35567         0         1
     35569     35568     35570         0         1
     35572     35571     35573         0         1
     35575     35574     35576         0         1
     35578     35577     35579         0         1
     35581     35580     35582         0         1
     35584     35583     35585         0         1
     35587     35586     35588         0         1
     35590     35589     35591         0         1
     35593     35592     35594         0         1
     35596     35595     35597         0         1
     35599     35598     35600         0         1
     35602     35601     35603         0         1
     35605     35604     35606         0         1
     35608     35607     35609         0         1
     35611     35610     35612         0         1
     35614     35613     35615         0         1
     35617     35616     35618         0         1
     35620     35619     35621         0         1
     35623     35622     35624         0         1
     35626     35625     35627         0         1
     35629     35628     35630         0         1
     35632     35631     35633         0         1
     35635     35634     35636         0         1
     35638     35637     35639         0         1
     35641     35640     35642         0         1
     35644     35643     35645         0         1
     35647     35646     35648         0         1
     35650     35649     35651         0         1
     35653     35652     35654         0         1
     35656     35655     35657         0         1
     35659     35658     35660         0         1
     35662     35661     35663         0         1
     35665     35664     35666         0         1
     35668     35667     35669         0         1
     35671     35670     35672         0         1
     35674     35673     35675         0         1
     35677     35676     35678         0         1
     35680     35679     35681         0         1
     35683     35682     35684         0         1
     35686     35685     35687         0         1
     35689     35688     35690         0         1
     35692     35691     35693         0         1
     35695     35694     35696         0         1
     35698     35697     35699         0         1
     35701     35700     35702         0         1
     35704     35703     35705         0         1
     35707     35706     35708         0         1
     35710     35709     35711         0         1
     35713     35712     35714         0         1
     35716     35715     35717         0         1
     35719     35718     35720         0         1
     35722     35721     35723         0         1
     35725     35724     35726         0         1
     35728     35727     35729         0         1
     35731     35730     35732         0         1
     35734     35733     35735         0         1
     35737     35736     35738         0         1
     35740     35739     35741         0         1
     35743     35742     35744         0         1
     35746     35745     35747         0         1
     35749     35748     35750         0         1
     35752     35751     35753         0         1
     35755     35754     35756         0         1
     35758     35757     35759         0         1
     35761     35760     35762         0         1
     35764     35763     35765         0         1
     35767     35766     35768         0         1
     35770     35769     35771         0         1
     35773     35772     35774         0         1
     35776     35775     35777         0         1
     35779     35778     35780         0         1
     35782     35781     35783         0         1
     35785     35784     35786         0         1
     35788     35787     35789         0         1
     35791     35790     35792         0         1
     35794     35793     35795         0         1
     35797     35796     35798         0         1
     35800     35799     35801         0         1
     35803     35802     35804         0         1
     35806     35805     35807         0         1
     35809     35808     35810         0         1
     35812     35811     35813         0         1
     35815     35814     35816         0         1
     35818     35817     35819         0         1
     35821     35820     35822         0         1
     35824     35823     35825         0         1
     35827     35826     35828         0         1
     35830     35829     35831         0         1
     35833     35832     35834         0         1
     35836     35835     35837         0         1
     35839     35838     35840         0         1
     35842     35841     35843         0         1
     35845     35844     35846         0         1
     35848     35847     35849         0         1
     35851     35850     35852         0         1
     35854     35853     35855         0         1
     35857     35856     35858         0         1
     35860     35859     35861         0         1
     35863     35862     35864         0         1
     35866     35865     35867         0         1
     35869     35868     35870         0         1
     35872     35871     35873         0         1
     35875     35874     35876         0         1
     35878     35877     35879         0         1
     35881     35880     35882         0         1
     35884     35883     35885         0         1
     35887     35886     35888         0         1
     35890     35889     35891         0         1
     35893     35892     35894         0         1
     35896     35895     35897         0         1
     35899     35898     35900         0         1
     35902     35901     35903         0         1
     35905     35904     35906         0         1
     35908     35907     35909         0         1
     35911     35910     35912         0         1
     35914     35913     35915         0         1
     35917     35916     35918         0         1
     35920     35919     35921         0         1
     35923     35922     35924         0         1
     35926     35925     35927         0         1
     35929     35928     35930         0         1
     35932     35931     35933         0         1
     35935     35934     35936         0         1
     35938     35937     35939         0         1
     35941     35940     35942         0         1
     35944     35943     35945         0         1
     35947     35946     35948         0         1
     35950     35949     35951         0         1
     35953     35952     35954         0         1
     35956     35955     35957         0         1
     35959     35958     35960         0         1
     35962     35961     35963         0         1
     35965     35964     35966         0         1
     35968     35967     35969         0         1
     35971     35970     35972         0         1
     35974     35973     35975         0         1
     35977     35976     35978         0         1
     35980     35979     35981         0         1
     35983     35982     35984         0         1
     35986     35985     35987         0         1
     35989     35988     35990         0         1
     35992     35991     35993         0         1
     35995     35994     35996         0         1
     35998     35997     35999         0         1
     36001     36000     36002         0         1
     36004     36003     36005         0         1
     36007     36006     36008         0         1
     36010     36009     36011         0         1
     36013     36012     36014         0         1
     36016     36015     36017         0         1
     36019     36018     36020         0         1
     36022     36021     36023         0         1
     36025     36024     36026         0         1
     36028     36027     36029         0         1
     36031     36030     36032         0         1
     36034     36033     36035         0         1
     36037     36036     36038         0         1
     36040     36039     36041         0         1
     36043     36042     36044         0         1
     36046     36045     36047         0         1
     36049     36048     36050         0         1
     36052     36051     36053         0         1
     36055     36054     36056         0         1
     36058     36057     36059         0         1
     36061     36060     36062         0         1
     36064     36063     36065         0         1
     36067     36066     36068         0         1
     36070     36069     36071         0         1
     36073     36072     36074         0         1
     36076     36075     36077         0         1
     36079     36078     36080         0         1
     36082     36081     36083         0         1
     36085     36084     36086         0         1
     36088     36087     36089         0         1
     36091     36090     36092         0         1
     36094     36093     36095         0         1
     36097     36096     36098         0         1
     36100     36099     36101         0         1
     36103     36102     36104         0         1
     36106     36105     36107         0         1
     36109     36108     36110         0         1
     36112     36111     36113         0         1
     36115     36114     36116         0         1
     36118     36117     36119         0         1
     36121     36120     36122         0         1
     36124     36123     36125         0         1
     36127     36126     36128         0         1
     36130     36129     36131         0         1
     36133     36132     36134         0         1
     36136     36135     36137         0         1
     36139     36138     36140         0         1
     36142     36141     36143         0         1
     36145     36144     36146         0         1
     36148     36147     36149         0         1
     36151     36150     36152         0         1
     36154     36153     36155         0         1
     36157     36156     36158         0         1
     36160     36159     36161         0         1
     36163     36162     36164         0         1
     36166     36165     36167         0         1
     36169     36168     36170         0         1
     36172     36171     36173         0         1
     36175     36174     36176         0         1
     36178     36177     36179         0         1
     36181     36180     36182         0         1
     36184     36183     36185         0         1
     36187     36186     36188         0         1
     36190     36189     36191         0         1
     36193     36192     36194         0         1
     36196     36195     36197         0         1
     36199     36198     36200         0         1
     36202     36201     36203         0         1
     36205     36204     36206         0         1
     36208     36207     36209         0         1
     36211     36210     36212         0         1
     36214     36213     36215         0         1
     36217     36216     36218         0         1
     36220     36219     36221         0         1
     36223     36222     36224         0         1
     36226     36225     36227         0         1
     36229     36228     36230         0         1
     36232     36231     36233         0         1
     36235     36234     36236         0         1
     36238     36237     36239         0         1
     36241     36240     36242         0         1
     36244     36243     36245         0         1
     36247     36246     36248         0         1
     36250     36249     36251         0         1
     36253     36252     36254         0         1
     36256     36255     36257         0         1
     36259     36258     36260         0         1
     36262     36261     36263         0         1
     36265     36264     36266         0         1
     36268     36267     36269         0         1
     36271     36270     36272         0         1
     36274     36273     36275         0         1
     36277     36276     36278         0         1
     36280     36279     36281         0         1
     36283     36282     36284         0         1
     36286     36285     36287         0         1
     36289     36288     36290         0         1
     36292     36291     36293         0         1
     36295     36294     36296         0         1
     36298     36297     36299         0         1
     36301     36300     36302         0         1
     36304     36303     36305         0         1
     36307     36306     36308         0         1
     36310     36309     36311         0         1
     36313     36312     36314         0         1
     36316     36315     36317         0         1
     36319     36318     36320         0         1
     36322     36321     36323         0         1
     36325     36324     36326         0         1
     36328     36327     36329         0         1
     36331     36330     36332         0         1
     36334     36333     36335         0         1
     36337     36336     36338         0         1
     36340     36339     36341         0         1
     36343     36342     36344         0         1
     36346     36345     36347         0         1
     36349     36348     36350         0         1
     36352     36351     36353         0         1
     36355     36354     36356         0         1
     36358     36357     36359         0         1
     36361     36360     36362         0         1
     36364     36363     36365         0         1
     36367     36366     36368         0         1
     36370     36369     36371         0         1
     36373     36372     36374         0         1
     36376     36375     36377         0         1
     36379     36378     36380         0         1
     36382     36381     36383         0         1
     36385     36384     36386         0         1
     36388     36387     36389         0         1
     36391     36390     36392         0         1
     36394     36393     36395         0         1
     36397     36396     36398         0         1
     36400     36399     36401         0         1
     36403     36402     36404         0         1
     36406     36405     36407         0         1
     36409     36408     36410         0         1
     36412     36411     36413         0         1
     36415     36414     36416         0         1
     36418     36417     36419         0         1
     36421     36420     36422         0         1
     36424     36423     36425         0         1
     36427     36426     36428         0         1
     36430     36429     36431         0         1
     36433     36432     36434         0         1
     36436     36435     36437         0         1
     36439     36438     36440         0         1
     36442     36441     36443         0         1
     36445     36444     36446         0         1
     36448     36447     36449         0         1
     36451     36450     36452         0         1
     36454     36453     36455         0         1
     36457     36456     36458         0         1
     36460     36459     36461         0         1
     36463     36462     36464         0         1
     36466     36465     36467         0         1
     36469     36468     36470         0         1
     36472     36471     36473         0         1
     36475     36474     36476         0         1
     36478     36477     36479         0         1
     36481     36480     36482         0         1
     36484     36483     36485         0         1
     36487     36486     36488         0         1
     36490     36489     36491         0         1
     36493     36492     36494         0         1
     36496     36495     36497         0         1
     36499     36498     36500         0         1
     36502     36501     36503         0         1
     36505     36504     36506         0         1
     36508     36507     36509         0         1
     36511     36510     36512         0         1
     36514     36513     36515         0         1
     36517     36516     36518         0         1
     36520     36519     36521         0         1
     36523     36522     36524         0         1
     36526     36525     36527         0         1
     36529     36528     36530         0         1
     36532     36531     36533         0         1
     36535     36534     36536         0         1
     36538     36537     36539         0         1
     36541     36540     36542         0         1
     36544     36543     36545         0         1
     36547     36546     36548         0         1
     36550     36549     36551         0         1
     36553     36552     36554         0         1
     36556     36555     36557         0         1
     36559     36558     36560         0         1
     36562     36561     36563         0         1
     36565     36564     36566         0         1
     36568     36567     36569         0         1
     36571     36570     36572         0         1
     36574     36573     36575         0         1
     36577     36576     36578         0         1
     36580     36579     36581         0         1
     36583     36582     36584         0         1
     36586     36585     36587         0         1
     36589     36588     36590         0         1
     36592     36591     36593         0         1
     36595     36594     36596         0         1
     36598     36597     36599         0         1
     36601     36600     36602         0         1
     36604     36603     36605         0         1
     36607     36606     36608         0         1
     36610     36609     36611         0         1
     36613     36612     36614         0         1
     36616     36615     36617         0         1
     36619     36618     36620         0         1
     36622     36621     36623         0         1
     36625     36624     36626         0         1
     36628     36627     36629         0         1
     36631     36630     36632         0         1
     36634     36633     36635         0         1
     36637     36636     36638         0         1
     36640     36639     36641         0         1
     36643     36642     36644         0         1
     36646     36645     36647         0         1
     36649     36648     36650         0         1
     36652     36651     36653         0         1
     36655     36654     36656         0         1
     36658     36657     36659         0         1
     36661     36660     36662         0         1
     36664     36663     36665         0         1
     36667     36666     36668         0         1
     36670     36669     36671         0         1
     36673     36672     36674         0         1
     36676     36675     36677         0         1
     36679     36678     36680         0         1
     36682     36681     36683         0         1
     36685     36684     36686         0         1
     36688     36687     36689         0         1
     36691     36690     36692         0         1
     36694     36693     36695         0         1
     36697     36696     36698         0         1
     36700     36699     36701         0         1
     36703     36702     36704         0         1
     36706     36705     36707         0         1
     36709     36708     36710         0         1
     36712     36711     36713         0         1
     36715     36714     36716         0         1
     36718     36717     36719         0         1
     36721     36720     36722         0         1
     36724     36723     36725         0         1
     36727     36726     36728         0         1
     36730     36729     36731         0         1
     36733     36732     36734         0         1
     36736     36735     36737         0         1
     36739     36738     36740         0         1
     36742     36741     36743         0         1
     36745     36744     36746         0         1
     36748     36747     36749         0         1
     36751     36750     36752         0         1
     36754     36753     36755         0         1
     36757     36756     36758         0         1
     36760     36759     36761         0         1
     36763     36762     36764         0         1
     36766     36765     36767         0         1
     36769     36768     36770         0         1
     36772     36771     36773         0         1
     36775     36774     36776         0         1
     36778     36777     36779         0         1
     36781     36780     36782         0         1
     36784     36783     36785         0         1
     36787     36786     36788         0         1
     36790     36789     36791         0         1
     36793     36792     36794         0         1
     36796     36795     36797         0         1
     36799     36798     36800         0         1
     36802     36801     36803         0         1
     36805     36804     36806         0         1
     36808     36807     36809         0         1
     36811     36810     36812         0         1
     36814     36813     36815         0         1
     36817     36816     36818         0         1
     36820     36819     36821         0         1
     36823     36822     36824         0         1
     36826     36825     36827         0         1
     36829     36828     36830         0         1
     36832     36831     36833         0         1
     36835     36834     36836         0         1
     36838     36837     36839         0         1
     36841     36840     36842         0         1
     36844     36843     36845         0         1
     36847     36846     36848         0         1
     36850     36849     36851         0         1
     36853     36852     36854         0         1
     36856     36855     36857         0         1
     36859     36858     36860         0         1
     36862     36861     36863         0         1
     36865     36864     36866         0         1
     36868     36867     36869         0         1
     36871     36870     36872         0         1
     36874     36873     36875         0         1
     36877     36876     36878         0         1
     36880     36879     36881         0         1
     36883     36882     36884         0         1
     36886     36885     36887         0         1
     36889     36888     36890         0         1
     36892     36891     36893         0         1
     36895     36894     36896         0         1
     36898     36897     36899         0         1
     36901     36900     36902         0         1
     36904     36903     36905         0         1
     36907     36906     36908         0         1
     36910     36909     36911         0         1
     36913     36912     36914         0         1
     36916     36915     36917         0         1
     36919     36918     36920         0         1
     36922     36921     36923         0         1
     36925     36924     36926         0         1
     36928     36927     36929         0         1
     36931     36930     36932         0         1
     36934     36933     36935         0         1
     36937     36936     36938         0         1
     36940     36939     36941         0         1
     36943     36942     36944         0         1
     36946     36945     36947         0         1
     36949     36948     36950         0         1
     36952     36951     36953         0         1
     36955     36954     36956         0         1
     36958     36957     36959         0         1
     36961     36960     36962         0         1
     36964     36963     36965         0         1
     36967     36966     36968         0         1
     36970     36969     36971         0         1
     36973     36972     36974         0         1
     36976     36975     36977         0         1
     36979     36978     36980         0         1
     36982     36981     36983         0         1
     36985     36984     36986         0         1
     36988     36987     36989         0         1
     36991     36990     36992         0         1
     36994     36993     36995         0         1
     36997     36996     36998         0         1
     37000     36999     37001         0         1
     37003     37002     37004         0         1
     37006     37005     37007         0         1
     37009     37008     37010         0         1
     37012     37011     37013         0         1
     37015     37014     37016         0         1
     37018     37017     37019         0         1
     37021     37020     37022         0         1
     37024     37023     37025         0         1
     37027     37026     37028         0         1
     37030     37029     37031         0         1
     37033     37032     37034         0         1
     37036     37035     37037         0         1
     37039     37038     37040         0         1
     37042     37041     37043         0         1
     37045     37044     37046         0         1
     37048     37047     37049         0         1
     37051     37050     37052         0         1
     37054     37053     37055         0         1
     37057     37056     37058         0         1
     37060     37059     37061         0         1
     37063     37062     37064         0         1
     37066     37065     37067         0         1
     37069     37068     37070         0         1
     37072     37071     37073         0         1
     37075     37074     37076         0         1
     37078     37077     37079         0         1
     37081     37080     37082         0         1
     37084     37083     37085         0         1
     37087     37086     37088         0         1
     37090     37089     37091         0         1
     37093     37092     37094         0         1
     37096     37095     37097         0         1
     37099     37098     37100         0         1
     37102     37101     37103         0         1
     37105     37104     37106         0         1
     37108     37107     37109         0         1
     37111     37110     37112         0         1
     37114     37113     37115         0         1
     37117     37116     37118         0         1
     37120     37119     37121         0         1
     37123     37122     37124         0         1
     37126     37125     37127         0         1
     37129     37128     37130         0         1
     37132     37131     37133         0         1
     37135     37134     37136         0         1
     37138     37137     37139         0         1
     37141     37140     37142         0         1
     37144     37143     37145         0         1
     37147     37146     37148         0         1
     37150     37149     37151         0         1
     37153     37152     37154         0         1
     37156     37155     37157         0         1
     37159     37158     37160         0         1
     37162     37161     37163         0         1
     37165     37164     37166         0         1
     37168     37167     37169         0         1
     37171     37170     37172         0         1
     37174     37173     37175         0         1
     37177     37176     37178         0         1
     37180     37179     37181         0         1
     37183     37182     37184         0         1
     37186     37185     37187         0         1
     37189     37188     37190         0         1
     37192     37191     37193         0         1
     37195     37194     37196         0         1
     37198     37197     37199         0         1
     37201     37200     37202         0         1
     37204     37203     37205         0         1
     37207     37206     37208         0         1
     37210     37209     37211         0         1
     37213     37212     37214         0         1
     37216     37215     37217         0         1
     37219     37218     37220         0         1
     37222     37221     37223         0         1
     37225     37224     37226         0         1
     37228     37227     37229         0         1
     37231     37230     37232         0         1
     37234     37233     37235         0         1
     37237     37236     37238         0         1
     37240     37239     37241         0         1
     37243     37242     37244         0         1
     37246     37245     37247         0         1
     37249     37248     37250         0         1
     37252     37251     37253         0         1
     37255     37254     37256         0         1
     37258     37257     37259         0         1
     37261     37260     37262         0         1
     37264     37263     37265         0         1
     37267     37266     37268         0         1
     37270     37269     37271         0         1
     37273     37272     37274         0         1
     37276     37275     37277         0         1
     37279     37278     37280         0         1
     37282     37281     37283         0         1
     37285     37284     37286         0         1
     37288     37287     37289         0         1
     37291     37290     37292         0         1
     37294     37293     37295         0         1
     37297     37296     37298         0         1
     37300     37299     37301         0         1
     37303     37302     37304         0         1
     37306     37305     37307         0         1
     37309     37308     37310         0         1
     37312     37311     37313         0         1
     37315     37314     37316         0         1
     37318     37317     37319         0         1
     37321     37320     37322         0         1
     37324     37323     37325         0         1
     37327     37326     37328         0         1
     37330     37329     37331         0         1
     37333     37332     37334         0         1
     37336     37335     37337         0         1
     37339     37338     37340         0         1
     37342     37341     37343         0         1
     37345     37344     37346         0         1
     37348     37347     37349         0         1
     37351     37350     37352         0         1
     37354     37353     37355         0         1
     37357     37356     37358         0         1
     37360     37359     37361         0         1
     37363     37362     37364         0         1
     37366     37365     37367         0         1
     37369     37368     37370         0         1
     37372     37371     37373         0         1
     37375     37374     37376         0         1
     37378     37377     37379         0         1
     37381     37380     37382         0         1
     37384     37383     37385         0         1
     37387     37386     37388         0         1
     37390     37389     37391         0         1
     37393     37392     37394         0         1
     37396     37395     37397         0         1
     37399     37398     37400         0         1
     37402     37401     37403         0         1
     37405     37404     37406         0         1
     37408     37407     37409         0         1
     37411     37410     37412         0         1
     37414     37413     37415         0         1
     37417     37416     37418         0         1
     37420     37419     37421         0         1
     37423     37422     37424         0         1
     37426     37425     37427         0         1
     37429     37428     37430         0         1
     37432     37431     37433         0         1
     37435     37434     37436         0         1
     37438     37437     37439         0         1
     37441     37440     37442         0         1
     37444     37443     37445         0         1
     37447     37446     37448         0         1
     37450     37449     37451         0         1
     37453     37452     37454         0         1
     37456     37455     37457         0         1
     37459     37458     37460         0         1
     37462     37461     37463         0         1
     37465     37464     37466         0         1
     37468     37467     37469         0         1
     37471     37470     37472         0         1
     37474     37473     37475         0         1
     37477     37476     37478         0         1
     37480     37479     37481         0         1
     37483     37482     37484         0         1
     37486     37485     37487         0         1
     37489     37488     37490         0         1
     37492     37491     37493         0         1
     37495     37494     37496         0         1
     37498     37497     37499         0         1
     37501     37500     37502         0         1
     37504     37503     37505         0         1
     37507     37506     37508         0         1
     37510     37509     37511         0         1
     37513     37512     37514         0         1
     37516     37515     37517         0         1
     37519     37518     37520         0         1
     37522     37521     37523         0         1
     37525     37524     37526         0         1
     37528     37527     37529         0         1
     37531     37530     37532         0         1
     37534     37533     37535         0         1
     37537     37536     37538         0         1
     37540     37539     37541         0         1
     37543     37542     37544         0         1
     37546     37545     37547         0         1
     37549     37548     37550         0         1
     37552     37551     37553         0         1
     37555     37554     37556         0         1
     37558     37557     37559         0         1
     37561     37560     37562         0         1
     37564     37563     37565         0         1
     37567     37566     37568         0         1
     37570     37569     37571         0         1
     37573     37572     37574         0         1
     37576     37575     37577         0         1
     37579     37578     37580         0         1
     37582     37581     37583         0         1
     37585     37584     37586         0         1
     37588     37587     37589         0         1
     37591     37590     37592         0         1
     37594     37593     37595         0         1
     37597     37596     37598         0         1
     37600     37599     37601         0         1
     37603     37602     37604         0         1
     37606     37605     37607         0         1
     37609     37608     37610         0         1
     37612     37611     37613         0         1
     37615     37614     37616         0         1
     37618     37617     37619         0         1
     37621     37620     37622         0         1
     37624     37623     37625         0         1
     37627     37626     37628         0         1
     37630     37629     37631         0         1
     37633     37632     37634         0         1
     37636     37635     37637         0         1
     37639     37638     37640         0         1
     37642     37641     37643         0         1
     37645     37644     37646         0         1
     37648     37647     37649         0         1
     37651     37650     37652         0         1
     37654     37653     37655         0         1
     37657     37656     37658         0         1
     37660     37659     37661         0         1
     37663     37662     37664         0         1
     37666     37665     37667         0         1
     37669     37668     37670         0         1
     37672     37671     37673         0         1
     37675     37674     37676         0         1
     37678     37677     37679         0         1
     37681     37680     37682         0         1
     37684     37683     37685         0         1
     37687     37686     37688         0         1
     37690     37689     37691         0         1
     37693     37692     37694         0         1
     37696     37695     37697         0         1
     37699     37698     37700         0         1
     37702     37701     37703         0         1
     37705     37704     37706         0         1
     37708     37707     37709         0         1
     37711     37710     37712         0         1
     37714     37713     37715         0         1
     37717     37716     37718         0         1
     37720     37719     37721         0         1
     37723     37722     37724         0         1
     37726     37725     37727         0         1
     37729     37728     37730         0         1
     37732     37731     37733         0         1
     37735     37734     37736         0         1
     37738     37737     37739         0         1
     37741     37740     37742         0         1
     37744     37743     37745         0         1
     37747     37746     37748         0         1
     37750     37749     37751         0         1
     37753     37752     37754         0         1
     37756     37755     37757         0         1
     37759     37758     37760         0         1
     37762     37761     37763         0         1
     37765     37764     37766         0         1
     37768     37767     37769         0         1
     37771     37770     37772         0         1
     37774     37773     37775         0         1
     37777     37776     37778         0         1
     37780     37779     37781         0         1
     37783     37782     37784         0         1
     37786     37785     37787         0         1
     37789     37788     37790         0         1
     37792     37791     37793         0         1
     37795     37794     37796         0         1
     37798     37797     37799         0         1
     37801     37800     37802         0         1
     37804     37803     37805         0         1
     37807     37806     37808         0         1
     37810     37809     37811         0         1
     37813     37812     37814         0         1
     37816     37815     37817         0         1
     37819     37818     37820         0         1
     37822     37821     37823         0         1
     37825     37824     37826         0         1
     37828     37827     37829         0         1
     37831     37830     37832         0         1
     37834     37833     37835         0         1
     37837     37836     37838         0         1
     37840     37839     37841         0         1
     37843     37842     37844         0         1
     37846     37845     37847         0         1
     37849     37848     37850         0         1
     37852     37851     37853         0         1
     37855     37854     37856         0         1
     37858     37857     37859         0         1
     37861     37860     37862         0         1
     37864     37863     37865         0         1
     37867     37866     37868         0         1
     37870     37869     37871         0         1
     37873     37872     37874         0         1
     37876     37875     37877         0         1
     37879     37878     37880         0         1
     37882     37881     37883         0         1
     37885     37884     37886         0         1
     37888     37887     37889         0         1
     37891     37890     37892         0         1
     37894     37893     37895         0         1
     37897     37896     37898         0         1
     37900     37899     37901         0         1
     37903     37902     37904         0         1
     37906     37905     37907         0         1
     37909     37908     37910         0         1
     37912     37911     37913         0         1
     37915     37914     37916         0         1
     37918     37917     37919         0         1
     37921     37920     37922         0         1
     37924     37923     37925         0         1
     37927     37926     37928         0         1
     37930     37929     37931         0         1
     37933     37932     37934         0         1
     37936     37935     37937         0         1
     37939     37938     37940         0         1
     37942     37941     37943         0         1
     37945     37944     37946         0         1
     37948     37947     37949         0         1
     37951     37950     37952         0         1
     37954     37953     37955         0         1
     37957     37956     37958         0         1
     37960     37959     37961         0         1
     37963     37962     37964         0         1
     37966     37965     37967         0         1
     37969     37968     37970         0         1
     37972     37971     37973         0         1
     37975     37974     37976         0         1
     37978     37977     37979         0         1
     37981     37980     37982         0         1
     37984     37983     37985         0         1
     37987     37986     37988         0         1
     37990     37989     37991         0         1
     37993     37992     37994         0         1
     37996     37995     37997         0         1
     37999     37998     38000         0         1
     38002     38001     38003         0         1
     38005     38004     38006         0         1
     38008     38007     38009         0         1
     38011     38010     38012         0         1
     38014     38013     38015         0         1
     38017     38016     38018         0         1
     38020     38019     38021         0         1
     38023     38022     38024         0         1
     38026     38025     38027         0         1
     38029     38028     38030         0         1
     38032     38031     38033         0         1
     38035     38034     38036         0         1
     38038     38037     38039         0         1
     38041     38040     38042         0         1
     38044     38043     38045         0         1
     38047     38046     38048         0         1
     38050     38049     38051         0         1
     38053     38052     38054         0         1
     38056     38055     38057         0         1
     38059     38058     38060         0         1
     38062     38061     38063         0         1
     38065     38064     38066         0         1
     38068     38067     38069         0         1
     38071     38070     38072         0         1
     38074     38073     38075         0         1
     38077     38076     38078         0         1
     38080     38079     38081         0         1
     38083     38082     38084         0         1
     38086     38085     38087         0         1
     38089     38088     38090         0         1
     38092     38091     38093         0         1
     38095     38094     38096         0         1
     38098     38097     38099         0         1
     38101     38100     38102         0         1
     38104     38103     38105         0         1
     38107     38106     38108         0         1
     38110     38109     38111         0         1
     38113     38112     38114         0         1
     38116     38115     38117         0         1
     38119     38118     38120         0         1
     38122     38121     38123         0         1
     38125     38124     38126         0         1
     38128     38127     38129         0         1
     38131     38130     38132         0         1
     38134     38133     38135         0         1
     38137     38136     38138         0         1
     38140     38139     38141         0         1
     38143     38142     38144         0         1
     38146     38145     38147         0         1
     38149     38148     38150         0         1
     38152     38151     38153         0         1
     38155     38154     38156         0         1
     38158     38157     38159         0         1
     38161     38160     38162         0         1
     38164     38163     38165         0         1
     38167     38166     38168         0         1
     38170     38169     38171         0         1
     38173     38172     38174         0         1
     38176     38175     38177         0         1
     38179     38178     38180         0         1
     38182     38181     38183         0         1
     38185     38184     38186         0         1
     38188     38187     38189         0         1
     38191     38190     38192         0         1
     38194     38193     38195         0         1
     38197     38196     38198         0         1
     38200     38199     38201         0         1
     38203     38202     38204         0         1
     38206     38205     38207         0         1
     38209     38208     38210         0         1
     38212     38211     38213         0         1
     38215     38214     38216         0         1
     38218     38217     38219         0         1
     38221     38220     38222         0         1
     38224     38223     38225         0         1
     38227     38226     38228         0         1
     38230     38229     38231         0         1
     38233     38232     38234         0         1
     38236     38235     38237         0         1
     38239     38238     38240         0         1
     38242     38241     38243         0         1
     38245     38244     38246         0         1
     38248     38247     38249         0         1
     38251     38250     38252         0         1
     38254     38253     38255         0         1
     38257     38256     38258         0         1
     38260     38259     38261         0         1
     38263     38262     38264         0         1
     38266     38265     38267         0         1
     38269     38268     38270         0         1
     38272     38271     38273         0         1
     38275     38274     38276         0         1
     38278     38277     38279         0         1
     38281     38280     38282         0         1
     38284     38283     38285         0         1
     38287     38286     38288         0         1
     38290     38289     38291         0         1
     38293     38292     38294         0         1
     38296     38295     38297         0         1
     38299     38298     38300         0         1
     38302     38301     38303         0         1
     38305     38304     38306         0         1
     38308     38307     38309         0         1
     38311     38310     38312         0         1
     38314     38313     38315         0         1
     38317     38316     38318         0         1
     38320     38319     38321         0         1
     38323     38322     38324         0         1
     38326     38325     38327         0         1
     38329     38328     38330         0         1
