* GENERATED BY CHARMM-GUI (HTTP://WWW.CHARMM-GUI.ORG) V3.7 ON JUL, 07. 2026. JOB
* READ PDB, MANIPULATE STRUCTURE IF NEEDED, AND GENERATE TOPOLOGY FILE
*  DATE:     7/ 7/26      9:10:17      CREATED BY USER: charmm-gui
*
       500  EXT
         1         1  GLY       N              -0.0720000000       -3.2000000000        1.5740000000  PROA      2               0.0000000000
         2         1  GLY       HT1            -0.5383712133       -3.8234293157        0.8844829373  PROA      2               0.0000000000
         3         1  GLY       HT2            -0.4520833645       -2.2363320396        1.4819092937  PROA      2               0.0000000000
         4         1  GLY       HT3            -0.2512204276       -3.5523557226        2.5359383988  PROA      2               0.0000000000
         5         1  GLY       CA              1.3670000000       -3.1830000000        1.3210000000  PROA      2               0.0000000000
         6         1  GLY       HA1             1.5050910760       -2.7873892230        0.3240802801  PROA      2               0.0000000000
         7         1  GLY       HA2             1.7400000000       -4.1830000000        1.4650000000  PROA      2               0.0000000000
         8         1  GLY       C               2.1030000000       -2.3170000000        2.2620000000  PROA      2               0.0000000000
         9         1  GLY       O               1.8900000000       -2.4010000000        3.4610000000  PROA      2               0.0000000000
        10         2  ALA       N               3.0240000000       -1.4830000000        1.7430000000  PROA      3               0.0000000000
        11         2  ALA       HN              3.2601883839       -1.4874956277        0.7717147707  PROA      3               0.0000000000
        12         2  ALA       CA              3.7360000000       -0.5240000000        2.5480000000  PROA      3               0.0000000000
        13         2  ALA       HA              3.4020000000       -0.7040000000        3.5300000000  PROA      3               0.0000000000
        14         2  ALA       CB              5.2670000000       -0.6700000000        2.3800000000  PROA      3               0.0000000000
        15         2  ALA       HB1             5.5780000000       -0.4730000000        1.3360000000  PROA      3               0.0000000000
        16         2  ALA       HB2             5.7980000000        0.0370000000        3.0600000000  PROA      3               0.0000000000
        17         2  ALA       HB3             5.5680000000       -1.6950000000        2.6670000000  PROA      3               0.0000000000
        18         2  ALA       C               3.3160000000        0.8870000000        2.2540000000  PROA      3               0.0000000000
        19         2  ALA       O               2.9320000000        1.2090000000        1.1390000000  PROA      3               0.0000000000
        20         3  LEU       N               3.3630000000        1.7700000000        3.2640000000  PROA      4               0.0000000000
        21         3  LEU       HN              3.6522357580        1.6342667184        4.2093695376  PROA      4               0.0000000000
        22         3  LEU       CA              2.9270000000        3.1520000000        2.9530000000  PROA      4               0.0000000000
        23         3  LEU       HA              2.5350000000        3.2470000000        1.9520000000  PROA      4               0.0000000000
        24         3  LEU       CB              4.0410000000        4.2470000000        3.1040000000  PROA      4               0.0000000000
        25         3  LEU       HB1             4.6907695034        3.9400155444        3.9558628918  PROA      4               0.0000000000
        26         3  LEU       HB2             4.5960000000        3.9340000000        4.0240000000  PROA      4               0.0000000000
        27         3  LEU       CG              3.6150000000        5.7280000000        3.3740000000  PROA      4               0.0000000000
        28         3  LEU       HG              2.7310000000        5.6140000000        4.0430000000  PROA      4               0.0000000000
        29         3  LEU       CD1             4.6770000000        6.5230000000        4.1250000000  PROA      4               0.0000000000
        30         3  LEU       HD11            5.2510000000        5.8340000000        4.7570000000  PROA      4               0.0000000000
        31         3  LEU       HD12            5.3650000000        7.0070000000        3.4010000000  PROA      4               0.0000000000
        32         3  LEU       HD13            4.2160000000        7.3170000000        4.7590000000  PROA      4               0.0000000000
        33         3  LEU       CD2             2.8230000000        6.6870000000        2.4560000000  PROA      4               0.0000000000
        34         3  LEU       HD21            1.8910000000        6.2040000000        2.0900000000  PROA      4               0.0000000000
        35         3  LEU       HD22            2.5410000000        7.6240000000        2.9930000000  PROA      4               0.0000000000
        36         3  LEU       HD23            3.4340000000        6.9540000000        1.5730000000  PROA      4               0.0000000000
        37         3  LEU       C               1.7670000000        3.4690000000        3.8480000000  PROA      4               0.0000000000
        38         3  LEU       O               1.8720000000        3.2790000000        5.0520000000  PROA      4               0.0000000000
        39         4  ALA       N               0.6590000000        4.0270000000        3.2760000000  PROA      5               0.0000000000
        40         4  ALA       HN              0.5124717388        4.1591212007        2.2960644832  PROA      5               0.0000000000
        41         4  ALA       CA             -0.4220000000        4.4800000000        4.1350000000  PROA      5               0.0000000000
        42         4  ALA       HA             -0.1860000000        4.1350000000        5.1220000000  PROA      5               0.0000000000
        43         4  ALA       CB             -0.6550000000        6.0060000000        4.0400000000  PROA      5               0.0000000000
        44         4  ALA       HB1            -0.8350000000        6.2920000000        2.9810000000  PROA      5               0.0000000000
        45         4  ALA       HB2            -1.5310000000        6.3110000000        4.6480000000  PROA      5               0.0000000000
        46         4  ALA       HB3             0.2320000000        6.5580000000        4.4110000000  PROA      5               0.0000000000
        47         4  ALA       C              -1.6620000000        3.7320000000        3.7330000000  PROA      5               0.0000000000
        48         4  ALA       O              -2.0730000000        3.7380000000        2.5710000000  PROA      5               0.0000000000
        49         5  VAL       N              -2.3270000000        3.0450000000        4.6670000000  PROA      6               0.0000000000
        50         5  VAL       HN             -2.0710951373        2.9522790665        5.6257111608  PROA      6               0.0000000000
        51         5  VAL       CA             -3.5520000000        2.3450000000        4.3000000000  PROA      6               0.0000000000
        52         5  VAL       HA             -3.4640000000        1.9590000000        3.2900000000  PROA      6               0.0000000000
        53         5  VAL       CB             -4.8610000000        3.1460000000        4.4380000000  PROA      6               0.0000000000
        54         5  VAL       HB             -5.0070000000        3.4840000000        5.4850000000  PROA      6               0.0000000000
        55         5  VAL       CG1            -4.8500000000        4.3970000000        3.5370000000  PROA      6               0.0000000000
        56         5  VAL       HG11           -4.6500000000        4.0990000000        2.4830000000  PROA      6               0.0000000000
        57         5  VAL       HG12           -5.8270000000        4.9160000000        3.5850000000  PROA      6               0.0000000000
        58         5  VAL       HG13           -4.0590000000        5.1050000000        3.8670000000  PROA      6               0.0000000000
        59         5  VAL       CG2            -6.0650000000        2.2840000000        3.9860000000  PROA      6               0.0000000000
        60         5  VAL       HG21           -5.8650000000        1.8130000000        3.0000000000  PROA      6               0.0000000000
        61         5  VAL       HG22           -6.2790000000        1.4920000000        4.7360000000  PROA      6               0.0000000000
        62         5  VAL       HG23           -6.9810000000        2.9090000000        3.9000000000  PROA      6               0.0000000000
        63         5  VAL       C              -3.6050000000        1.1360000000        5.1700000000  PROA      6               0.0000000000
        64         5  VAL       O              -3.6700000000        1.2730000000        6.3880000000  PROA      6               0.0000000000
        65         6  VAL       N              -3.5620000000       -0.0710000000        4.5580000000  PROA      7               0.0000000000
        66         6  VAL       HN             -3.5533137646       -0.2550166872        3.5785746745  PROA      7               0.0000000000
        67         6  VAL       CA             -3.5230000000       -1.2630000000        5.3950000000  PROA      7               0.0000000000
        68         6  VAL       HA             -3.4340000000       -0.9370000000        6.4200000000  PROA      7               0.0000000000
        69         6  VAL       CB             -4.7630000000       -2.1420000000        5.2260000000  PROA      7               0.0000000000
        70         6  VAL       HB             -4.5960000000       -2.8620000000        4.3940000000  PROA      7               0.0000000000
        71         6  VAL       CG1            -5.0740000000       -2.9100000000        6.5260000000  PROA      7               0.0000000000
        72         6  VAL       HG11           -5.2600000000       -2.1840000000        7.3470000000  PROA      7               0.0000000000
        73         6  VAL       HG12           -5.9890000000       -3.5250000000        6.3930000000  PROA      7               0.0000000000
        74         6  VAL       HG13           -4.2370000000       -3.5690000000        6.8340000000  PROA      7               0.0000000000
        75         6  VAL       CG2            -5.9810000000       -1.2790000000        4.8220000000  PROA      7               0.0000000000
        76         6  VAL       HG21           -6.1370000000       -0.4760000000        5.5690000000  PROA      7               0.0000000000
        77         6  VAL       HG22           -5.8440000000       -0.8250000000        3.8140000000  PROA      7               0.0000000000
        78         6  VAL       HG23           -6.9050000000       -1.8940000000        4.7950000000  PROA      7               0.0000000000
        79         6  VAL       C              -2.2440000000       -2.0080000000        5.0700000000  PROA      7               0.0000000000
        80         6  VAL       O              -1.9240000000       -2.3050000000        3.9090000000  PROA      7               0.0000000000
        81         7  VAL       N              -1.3860000000       -2.3680000000        6.0410000000  PROA      8               0.0000000000
        82         7  VAL       HN             -1.4335374585       -1.9664958038        6.9519040183  PROA      8               0.0000000000
        83         7  VAL       CA             -0.3390000000       -3.3420000000        5.8740000000  PROA      8               0.0000000000
        84         7  VAL       HA              0.1160000000       -3.2420000000        4.9000000000  PROA      8               0.0000000000
        85         7  VAL       CB             -0.8410000000       -4.7780000000        6.1100000000  PROA      8               0.0000000000
        86         7  VAL       HB             -1.2620000000       -4.9360000000        7.1280000000  PROA      8               0.0000000000
        87         7  VAL       CG1            -1.9680000000       -5.1380000000        5.1210000000  PROA      8               0.0000000000
        88         7  VAL       HG11           -1.6590000000       -4.9120000000        4.0790000000  PROA      8               0.0000000000
        89         7  VAL       HG12           -2.2110000000       -6.2140000000        5.2010000000  PROA      8               0.0000000000
        90         7  VAL       HG13           -2.8940000000       -4.5700000000        5.3420000000  PROA      8               0.0000000000
        91         7  VAL       CG2             0.2950000000       -5.7230000000        5.7430000000  PROA      8               0.0000000000
        92         7  VAL       HG21            0.7080000000       -5.4630000000        4.7460000000  PROA      8               0.0000000000
        93         7  VAL       HG22            1.1140000000       -5.6590000000        6.4970000000  PROA      8               0.0000000000
        94         7  VAL       HG23           -0.0500000000       -6.7750000000        5.7240000000  PROA      8               0.0000000000
        95         7  VAL       C               0.8240000000       -3.0420000000        6.8100000000  PROA      8               0.0000000000
        96         7  VAL       O               0.6690000000       -3.0040000000        8.0230000000  PROA      8               0.0000000000
        97         8  TRP       N               2.0180000000       -2.8240000000        6.2170000000  PROA      9               0.0000000000
        98         8  TRP       HN              2.1236298406       -2.8902682053        5.2276271169  PROA      9               0.0000000000
        99         8  TRP       CA              3.2280000000       -2.4820000000        6.9420000000  PROA      9               0.0000000000
       100         8  TRP       HA              3.0380000000       -2.5790000000        7.9990000000  PROA      9               0.0000000000
       101         8  TRP       CB              4.4220000000       -3.4340000000        6.6050000000  PROA      9               0.0000000000
       102         8  TRP       HB1             4.4356689254       -3.5866869717        5.5029105576  PROA      9               0.0000000000
       103         8  TRP       HB2             4.4890000000       -3.5340000000        5.5000000000  PROA      9               0.0000000000
       104         8  TRP       CG              4.3210000000       -4.8120000000        7.2560000000  PROA      9               0.0000000000
       105         8  TRP       CD1             4.6220000000       -5.1620000000        8.5430000000  PROA      9               0.0000000000
       106         8  TRP       HD1             5.0340000000       -4.4980000000        9.2900000000  PROA      9               0.0000000000
       107         8  TRP       NE1             4.2060000000       -6.4510000000        8.8070000000  PROA      9               0.0000000000
       108         8  TRP       HE1             4.4160000000       -6.9270000000        9.6330000000  PROA      9               0.0000000000
       109         8  TRP       CE2             3.6760000000       -6.9840000000        7.6580000000  PROA      9               0.0000000000
       110         8  TRP       CD2             3.7890000000       -6.0010000000        6.6410000000  PROA      9               0.0000000000
       111         8  TRP       CE3             3.3660000000       -6.2630000000        5.3390000000  PROA      9               0.0000000000
       112         8  TRP       HE3             3.4100000000       -5.5250000000        4.5580000000  PROA      9               0.0000000000
       113         8  TRP       CZ3             2.7880000000       -7.5140000000        5.0830000000  PROA      9               0.0000000000
       114         8  TRP       HZ3             2.3260000000       -7.7310000000        4.1290000000  PROA      9               0.0000000000
       115         8  TRP       CZ2             3.0990000000       -8.2210000000        7.3990000000  PROA      9               0.0000000000
       116         8  TRP       HZ2             2.9630000000       -8.9540000000        8.1800000000  PROA      9               0.0000000000
       117         8  TRP       CH2             2.6430000000       -8.4730000000        6.1010000000  PROA      9               0.0000000000
       118         8  TRP       HH2             2.1600000000       -9.3990000000        5.8020000000  PROA      9               0.0000000000
       119         8  TRP       C               3.6230000000       -1.0230000000        6.6990000000  PROA      9               0.0000000000
       120         8  TRP       O               3.7090000000       -0.5110000000        5.5760000000  PROA      9               0.0000000000
       121         9  LEU       N               3.8800000000       -0.2490000000        7.7630000000  PROA      10              0.0000000000
       122         9  LEU       HN              3.9033664012       -0.5265246195        8.7212476229  PROA      10              0.0000000000
       123         9  LEU       CA              4.1620000000        1.1610000000        7.5420000000  PROA      10              0.0000000000
       124         9  LEU       HA              3.8620000000        1.4160000000        6.5340000000  PROA      10              0.0000000000
       125         9  LEU       CB              5.6670000000        1.5600000000        7.3660000000  PROA      10              0.0000000000
       126         9  LEU       HB1             6.1080080452        0.8594391811        6.6197850892  PROA      10              0.0000000000
       127         9  LEU       HB2             6.1630000000        0.9080000000        6.6110000000  PROA      10              0.0000000000
       128         9  LEU       CG              6.6820000000        1.5670000000        8.5530000000  PROA      10              0.0000000000
       129         9  LEU       HG              7.6350000000        1.9150000000        8.0700000000  PROA      10              0.0000000000
       130         9  LEU       CD1             6.3110000000        2.7120000000        9.5180000000  PROA      10              0.0000000000
       131         9  LEU       HD11            5.3220000000        2.5390000000        9.9840000000  PROA      10              0.0000000000
       132         9  LEU       HD12            7.0510000000        2.7710000000       10.3430000000  PROA      10              0.0000000000
       133         9  LEU       HD13            6.2860000000        3.6960000000        9.0150000000  PROA      10              0.0000000000
       134         9  LEU       CD2             7.0980000000        0.2700000000        9.2610000000  PROA      10              0.0000000000
       135         9  LEU       HD21            6.4300000000       -0.5740000000        8.9980000000  PROA      10              0.0000000000
       136         9  LEU       HD22            8.1250000000       -0.0010000000        8.9220000000  PROA      10              0.0000000000
       137         9  LEU       HD23            7.1510000000        0.4010000000       10.3520000000  PROA      10              0.0000000000
       138         9  LEU       C               3.2770000000        2.0110000000        8.4210000000  PROA      10              0.0000000000
       139         9  LEU       O               3.1520000000        1.8060000000        9.6250000000  PROA      10              0.0000000000
       140        10  TRP       N               2.5720000000        2.9630000000        7.7950000000  PROA      11              0.0000000000
       141        10  TRP       HN              2.6493041562        3.1629177742        6.8211084295  PROA      11              0.0000000000
       142        10  TRP       CA              1.6320000000        3.7800000000        8.5100000000  PROA      11              0.0000000000
       143        10  TRP       HA              1.6940000000        3.5820000000        9.5730000000  PROA      11              0.0000000000
       144        10  TRP       CB              1.9740000000        5.2960000000        8.3720000000  PROA      11              0.0000000000
       145        10  TRP       HB1             2.1186106947        5.5157892337        7.2908516616  PROA      11              0.0000000000
       146        10  TRP       HB2             2.0440000000        5.5500000000        7.2940000000  PROA      11              0.0000000000
       147        10  TRP       CG              3.2580000000        5.7530000000        9.0930000000  PROA      11              0.0000000000
       148        10  TRP       CD1             3.4130000000        6.2580000000       10.3600000000  PROA      11              0.0000000000
       149        10  TRP       HD1             2.7010000000        6.2490000000       11.1740000000  PROA      11              0.0000000000
       150        10  TRP       NE1             4.7280000000        6.6410000000       10.5690000000  PROA      11              0.0000000000
       151        10  TRP       HE1             5.1570000000        6.9380000000       11.3930000000  PROA      11              0.0000000000
       152        10  TRP       CE2             5.4590000000        6.3470000000        9.4540000000  PROA      11              0.0000000000
       153        10  TRP       CD2             4.5810000000        5.7770000000        8.5110000000  PROA      11              0.0000000000
       154        10  TRP       CE3             5.0610000000        5.3740000000        7.2730000000  PROA      11              0.0000000000
       155        10  TRP       HE3             4.3940000000        4.9320000000        6.5460000000  PROA      11              0.0000000000
       156        10  TRP       CZ3             6.4300000000        5.5610000000        6.9890000000  PROA      11              0.0000000000
       157        10  TRP       HZ3             6.6980000000        5.4490000000        5.9530000000  PROA      11              0.0000000000
       158        10  TRP       CZ2             6.8150000000        6.5240000000        9.1840000000  PROA      11              0.0000000000
       159        10  TRP       HZ2             7.4780000000        6.9790000000        9.9010000000  PROA      11              0.0000000000
       160        10  TRP       CH2             7.2930000000        6.1460000000        7.9170000000  PROA      11              0.0000000000
       161        10  TRP       HH2             8.3260000000        6.3260000000        7.6500000000  PROA      11              0.0000000000
       162        10  TRP       C               0.1770000000        3.4470000000        8.1460000000  PROA      11              0.0000000000
       163        10  TRP       O              -0.2510000000        3.0440000000        7.0580000000  PROA      11              0.0000000000
       164        11  LEU       N              -0.6780000000        3.6950000000        9.1320000000  PROA      12              0.0000000000
       165        11  LEU       HN             -0.3381551419        3.8811584770       10.0515949673  PROA      12              0.0000000000
       166        11  LEU       CA             -2.0990000000        3.7260000000        9.0150000000  PROA      12              0.0000000000
       167        11  LEU       HA             -2.4060000000        3.6270000000        7.9760000000  PROA      12              0.0000000000
       168        11  LEU       CB             -2.3540000000        5.1300000000        9.5950000000  PROA      12              0.0000000000
       169        11  LEU       HB1            -1.8975742447        5.1539465076       10.6114705331  PROA      12              0.0000000000
       170        11  LEU       HB2            -1.8920000000        5.0910000000       10.6150000000  PROA      12              0.0000000000
       171        11  LEU       CG             -3.7420000000        5.7390000000        9.8020000000  PROA      12              0.0000000000
       172        11  LEU       HG             -3.5540000000        6.8070000000       10.0640000000  PROA      12              0.0000000000
       173        11  LEU       CD1            -4.7890000000        5.9660000000        8.6930000000  PROA      12              0.0000000000
       174        11  LEU       HD11           -5.0190000000        5.0040000000        8.1980000000  PROA      12              0.0000000000
       175        11  LEU       HD12           -5.7200000000        6.4280000000        9.0780000000  PROA      12              0.0000000000
       176        11  LEU       HD13           -4.3660000000        6.6330000000        7.9130000000  PROA      12              0.0000000000
       177        11  LEU       CD2            -4.6350000000        4.8890000000       10.7100000000  PROA      12              0.0000000000
       178        11  LEU       HD21           -4.1180000000        4.6850000000       11.6710000000  PROA      12              0.0000000000
       179        11  LEU       HD22           -5.5840000000        5.4200000000       10.9240000000  PROA      12              0.0000000000
       180        11  LEU       HD23           -4.8720000000        3.9110000000       10.2320000000  PROA      12              0.0000000000
       181        11  LEU       C              -2.6170000000        2.5630000000        9.8620000000  PROA      12              0.0000000000
       182        11  LEU       O              -2.3660000000        2.4840000000       11.0640000000  PROA      12              0.0000000000
       183        12  TRP       N              -3.3120000000        1.6080000000        9.2250000000  PROA      13              0.0000000000
       184        12  TRP       HN             -3.5794060049        1.6559319046        8.2655186812  PROA      13              0.0000000000
       185        12  TRP       CA             -3.7290000000        0.4110000000        9.9160000000  PROA      13              0.0000000000
       186        12  TRP       HA             -3.6700000000        0.5660000000       10.9850000000  PROA      13              0.0000000000
       187        12  TRP       CB             -5.2180000000        0.0470000000        9.6100000000  PROA      13              0.0000000000
       188        12  TRP       HB1            -5.3299361294       -0.0305763851        8.5056660390  PROA      13              0.0000000000
       189        12  TRP       HB2            -5.3430000000       -0.0880000000        8.5120000000  PROA      13              0.0000000000
       190        12  TRP       CG             -6.2250000000        1.0850000000       10.0990000000  PROA      13              0.0000000000
       191        12  TRP       CD1            -6.8260000000        1.2080000000       11.3190000000  PROA      13              0.0000000000
       192        12  TRP       HD1            -6.6590000000        0.5680000000       12.1750000000  PROA      13              0.0000000000
       193        12  TRP       NE1            -7.5920000000        2.3570000000       11.3730000000  PROA      13              0.0000000000
       194        12  TRP       HE1            -8.1450000000        2.5580000000       12.1530000000  PROA      13              0.0000000000
       195        12  TRP       CE2            -7.5550000000        2.9590000000       10.1390000000  PROA      13              0.0000000000
       196        12  TRP       CD2            -6.7210000000        2.1780000000        9.3060000000  PROA      13              0.0000000000
       197        12  TRP       CE3            -6.4900000000        2.5320000000        7.9740000000  PROA      13              0.0000000000
       198        12  TRP       HE3            -5.8000000000        1.9250000000        7.4210000000  PROA      13              0.0000000000
       199        12  TRP       CZ3            -7.1170000000        3.6820000000        7.4810000000  PROA      13              0.0000000000
       200        12  TRP       HZ3            -6.9820000000        3.9550000000        6.4480000000  PROA      13              0.0000000000
       201        12  TRP       CZ2            -8.1530000000        4.1180000000        9.6580000000  PROA      13              0.0000000000
       202        12  TRP       HZ2            -8.8160000000        4.7490000000       10.2240000000  PROA      13              0.0000000000
       203        12  TRP       CH2            -7.9160000000        4.4740000000        8.3150000000  PROA      13              0.0000000000
       204        12  TRP       HH2            -8.3580000000        5.3970000000        7.9610000000  PROA      13              0.0000000000
       205        12  TRP       C              -2.8060000000       -0.7670000000        9.5940000000  PROA      13              0.0000000000
       206        12  TRP       O              -2.2210000000       -0.9170000000        8.5180000000  PROA      13              0.0000000000
       207        13  LEU       N              -2.7390000000       -1.7150000000       10.5330000000  PROA      14              0.0000000000
       208        13  LEU       HN             -3.1359070018       -1.4694954075       11.4150412332  PROA      14              0.0000000000
       209        13  LEU       CA             -2.1870000000       -3.0370000000       10.4830000000  PROA      14              0.0000000000
       210        13  LEU       HA             -1.9160000000       -3.2650000000        9.4580000000  PROA      14              0.0000000000
       211        13  LEU       CB             -3.4630000000       -3.8050000000       10.9490000000  PROA      14              0.0000000000
       212        13  LEU       HB1            -3.7843150049       -3.3530619970       11.9157569286  PROA      14              0.0000000000
       213        13  LEU       HB2            -3.7220000000       -3.4050000000       11.9620000000  PROA      14              0.0000000000
       214        13  LEU       CG             -3.5430000000       -5.3210000000       11.2220000000  PROA      14              0.0000000000
       215        13  LEU       HG             -4.6290000000       -5.4700000000       11.4460000000  PROA      14              0.0000000000
       216        13  LEU       CD1            -3.5610000000       -6.3850000000       10.0880000000  PROA      14              0.0000000000
       217        13  LEU       HD11           -2.8660000000       -6.0890000000        9.2780000000  PROA      14              0.0000000000
       218        13  LEU       HD12           -3.2830000000       -7.3870000000       10.4580000000  PROA      14              0.0000000000
       219        13  LEU       HD13           -4.5790000000       -6.4510000000        9.6420000000  PROA      14              0.0000000000
       220        13  LEU       CD2            -2.4370000000       -5.8440000000       12.1290000000  PROA      14              0.0000000000
       221        13  LEU       HD21           -2.4300000000       -5.2790000000       13.0860000000  PROA      14              0.0000000000
       222        13  LEU       HD22           -2.5970000000       -6.9130000000       12.3700000000  PROA      14              0.0000000000
       223        13  LEU       HD23           -1.4410000000       -5.7400000000       11.6480000000  PROA      14              0.0000000000
       224        13  LEU       C              -0.9320000000       -3.0710000000       11.3870000000  PROA      14              0.0000000000
       225        13  LEU       O              -0.9930000000       -2.8490000000       12.5980000000  PROA      14              0.0000000000
       226        14  TRP       N               0.2530000000       -3.3040000000       10.7750000000  PROA      15              0.0000000000
       227        14  TRP       HN              0.3163033479       -3.4667686059        9.7932123921  PROA      15              0.0000000000
       228        14  TRP       CA              1.5280000000       -3.3370000000       11.4910000000  PROA      15              0.0000000000
       229        14  TRP       HA              1.3310000000       -3.3510000000       12.5520000000  PROA      15              0.0000000000
       230        14  TRP       CB              2.3530000000       -4.6140000000       11.1750000000  PROA      15              0.0000000000
       231        14  TRP       HB1             2.5092753714       -4.6551266353       10.0740967807  PROA      15              0.0000000000
       232        14  TRP       HB2             2.5450000000       -4.6400000000       10.0830000000  PROA      15              0.0000000000
       233        14  TRP       CG              1.6770000000       -5.9070000000       11.5830000000  PROA      15              0.0000000000
       234        14  TRP       CD1             1.7160000000       -6.5570000000       12.7890000000  PROA      15              0.0000000000
       235        14  TRP       HD1             2.2330000000       -6.2230000000       13.6770000000  PROA      15              0.0000000000
       236        14  TRP       NE1             0.8820000000       -7.6560000000       12.7680000000  PROA      15              0.0000000000
       237        14  TRP       HE1             0.8630000000       -8.3220000000       13.4820000000  PROA      15              0.0000000000
       238        14  TRP       CE2             0.3280000000       -7.7580000000       11.5090000000  PROA      15              0.0000000000
       239        14  TRP       CD2             0.8100000000       -6.6790000000       10.7360000000  PROA      15              0.0000000000
       240        14  TRP       CE3             0.4190000000       -6.5040000000        9.4160000000  PROA      15              0.0000000000
       241        14  TRP       HE3             0.7790000000       -5.6800000000        8.8190000000  PROA      15              0.0000000000
       242        14  TRP       CZ3            -0.4830000000       -7.4310000000        8.8750000000  PROA      15              0.0000000000
       243        14  TRP       HZ3            -0.8580000000       -7.3060000000        7.8690000000  PROA      15              0.0000000000
       244        14  TRP       CZ2            -0.5600000000       -8.6830000000       10.9720000000  PROA      15              0.0000000000
       245        14  TRP       HZ2            -0.9580000000       -9.4770000000       11.5790000000  PROA      15              0.0000000000
       246        14  TRP       CH2            -0.9700000000       -8.5020000000        9.6410000000  PROA      15              0.0000000000
       247        14  TRP       HH2            -1.6720000000       -9.1750000000        9.1670000000  PROA      15              0.0000000000
       248        14  TRP       C               2.4180000000       -2.1190000000       11.2310000000  PROA      15              0.0000000000
       249        14  TRP       OT1             1.9880182027       -1.2279242255       10.4508079607  PROA      15              0.0000000000
       250        14  TRP       OT2             3.5358305197       -2.0687277477       11.8102474687  PROA      15              0.0000000000
       251        15  GLY       N              -0.0720000000        3.2000000000       -1.5740000000  PROB      2               0.0000000000
       252        15  GLY       HT1            -0.5383712133        3.8234293157       -0.8844829373  PROB      2               0.0000000000
       253        15  GLY       HT2            -0.4520833645        2.2363320396       -1.4819092937  PROB      2               0.0000000000
       254        15  GLY       HT3            -0.2512204276        3.5523557226       -2.5359383988  PROB      2               0.0000000000
       255        15  GLY       CA              1.3670000000        3.1830000000       -1.3210000000  PROB      2               0.0000000000
       256        15  GLY       HA1             1.5050910760        2.7873892230       -0.3240802801  PROB      2               0.0000000000
       257        15  GLY       HA2             1.7400000000        4.1830000000       -1.4650000000  PROB      2               0.0000000000
       258        15  GLY       C               2.1030000000        2.3170000000       -2.2620000000  PROB      2               0.0000000000
       259        15  GLY       O               1.8900000000        2.4010000000       -3.4610000000  PROB      2               0.0000000000
       260        16  ALA       N               3.0240000000        1.4830000000       -1.7430000000  PROB      3               0.0000000000
       261        16  ALA       HN              3.2601883839        1.4874956277       -0.7717147707  PROB      3               0.0000000000
       262        16  ALA       CA              3.7360000000        0.5240000000       -2.5480000000  PROB      3               0.0000000000
       263        16  ALA       HA              3.4020000000        0.7040000000       -3.5300000000  PROB      3               0.0000000000
       264        16  ALA       CB              5.2670000000        0.6700000000       -2.3800000000  PROB      3               0.0000000000
       265        16  ALA       HB1             5.5780000000        0.4730000000       -1.3360000000  PROB      3               0.0000000000
       266        16  ALA       HB2             5.7980000000       -0.0370000000       -3.0600000000  PROB      3               0.0000000000
       267        16  ALA       HB3             5.5680000000        1.6950000000       -2.6670000000  PROB      3               0.0000000000
       268        16  ALA       C               3.3160000000       -0.8870000000       -2.2540000000  PROB      3               0.0000000000
       269        16  ALA       O               2.9320000000       -1.2090000000       -1.1390000000  PROB      3               0.0000000000
       270        17  LEU       N               3.3630000000       -1.7700000000       -3.2640000000  PROB      4               0.0000000000
       271        17  LEU       HN              3.6522357580       -1.6342667184       -4.2093695376  PROB      4               0.0000000000
       272        17  LEU       CA              2.9270000000       -3.1520000000       -2.9530000000  PROB      4               0.0000000000
       273        17  LEU       HA              2.5350000000       -3.2470000000       -1.9520000000  PROB      4               0.0000000000
       274        17  LEU       CB              4.0410000000       -4.2470000000       -3.1040000000  PROB      4               0.0000000000
       275        17  LEU       HB1             4.6907695034       -3.9400155444       -3.9558628918  PROB      4               0.0000000000
       276        17  LEU       HB2             4.5960000000       -3.9340000000       -4.0240000000  PROB      4               0.0000000000
       277        17  LEU       CG              3.6150000000       -5.7280000000       -3.3740000000  PROB      4               0.0000000000
       278        17  LEU       HG              2.7310000000       -5.6140000000       -4.0430000000  PROB      4               0.0000000000
       279        17  LEU       CD1             4.6770000000       -6.5230000000       -4.1250000000  PROB      4               0.0000000000
       280        17  LEU       HD11            5.2510000000       -5.8340000000       -4.7570000000  PROB      4               0.0000000000
       281        17  LEU       HD12            5.3650000000       -7.0070000000       -3.4010000000  PROB      4               0.0000000000
       282        17  LEU       HD13            4.2160000000       -7.3170000000       -4.7590000000  PROB      4               0.0000000000
       283        17  LEU       CD2             2.8230000000       -6.6870000000       -2.4560000000  PROB      4               0.0000000000
       284        17  LEU       HD21            1.8910000000       -6.2040000000       -2.0900000000  PROB      4               0.0000000000
       285        17  LEU       HD22            2.5410000000       -7.6240000000       -2.9930000000  PROB      4               0.0000000000
       286        17  LEU       HD23            3.4340000000       -6.9540000000       -1.5730000000  PROB      4               0.0000000000
       287        17  LEU       C               1.7670000000       -3.4690000000       -3.8480000000  PROB      4               0.0000000000
       288        17  LEU       O               1.8720000000       -3.2790000000       -5.0520000000  PROB      4               0.0000000000
       289        18  ALA       N               0.6590000000       -4.0270000000       -3.2760000000  PROB      5               0.0000000000
       290        18  ALA       HN              0.5124717388       -4.1591212007       -2.2960644832  PROB      5               0.0000000000
       291        18  ALA       CA             -0.4220000000       -4.4800000000       -4.1350000000  PROB      5               0.0000000000
       292        18  ALA       HA             -0.1860000000       -4.1350000000       -5.1220000000  PROB      5               0.0000000000
       293        18  ALA       CB             -0.6550000000       -6.0060000000       -4.0400000000  PROB      5               0.0000000000
       294        18  ALA       HB1            -0.8350000000       -6.2920000000       -2.9810000000  PROB      5               0.0000000000
       295        18  ALA       HB2            -1.5310000000       -6.3110000000       -4.6480000000  PROB      5               0.0000000000
       296        18  ALA       HB3             0.2320000000       -6.5580000000       -4.4110000000  PROB      5               0.0000000000
       297        18  ALA       C              -1.6620000000       -3.7320000000       -3.7330000000  PROB      5               0.0000000000
       298        18  ALA       O              -2.0730000000       -3.7380000000       -2.5710000000  PROB      5               0.0000000000
       299        19  VAL       N              -2.3270000000       -3.0450000000       -4.6670000000  PROB      6               0.0000000000
       300        19  VAL       HN             -2.0710951373       -2.9522790665       -5.6257111608  PROB      6               0.0000000000
       301        19  VAL       CA             -3.5520000000       -2.3450000000       -4.3000000000  PROB      6               0.0000000000
       302        19  VAL       HA             -3.4640000000       -1.9590000000       -3.2900000000  PROB      6               0.0000000000
       303        19  VAL       CB             -4.8610000000       -3.1460000000       -4.4380000000  PROB      6               0.0000000000
       304        19  VAL       HB             -5.0070000000       -3.4840000000       -5.4850000000  PROB      6               0.0000000000
       305        19  VAL       CG1            -4.8500000000       -4.3970000000       -3.5370000000  PROB      6               0.0000000000
       306        19  VAL       HG11           -4.6500000000       -4.0990000000       -2.4830000000  PROB      6               0.0000000000
       307        19  VAL       HG12           -5.8270000000       -4.9160000000       -3.5850000000  PROB      6               0.0000000000
       308        19  VAL       HG13           -4.0590000000       -5.1050000000       -3.8670000000  PROB      6               0.0000000000
       309        19  VAL       CG2            -6.0650000000       -2.2840000000       -3.9860000000  PROB      6               0.0000000000
       310        19  VAL       HG21           -5.8650000000       -1.8130000000       -3.0000000000  PROB      6               0.0000000000
       311        19  VAL       HG22           -6.2790000000       -1.4920000000       -4.7360000000  PROB      6               0.0000000000
       312        19  VAL       HG23           -6.9810000000       -2.9090000000       -3.9000000000  PROB      6               0.0000000000
       313        19  VAL       C              -3.6050000000       -1.1360000000       -5.1700000000  PROB      6               0.0000000000
       314        19  VAL       O              -3.6700000000       -1.2730000000       -6.3880000000  PROB      6               0.0000000000
       315        20  VAL       N              -3.5620000000        0.0710000000       -4.5580000000  PROB      7               0.0000000000
       316        20  VAL       HN             -3.5533137646        0.2550166872       -3.5785746745  PROB      7               0.0000000000
       317        20  VAL       CA             -3.5230000000        1.2630000000       -5.3950000000  PROB      7               0.0000000000
       318        20  VAL       HA             -3.4340000000        0.9370000000       -6.4200000000  PROB      7               0.0000000000
       319        20  VAL       CB             -4.7630000000        2.1420000000       -5.2260000000  PROB      7               0.0000000000
       320        20  VAL       HB             -4.5960000000        2.8620000000       -4.3940000000  PROB      7               0.0000000000
       321        20  VAL       CG1            -5.0740000000        2.9100000000       -6.5260000000  PROB      7               0.0000000000
       322        20  VAL       HG11           -5.2600000000        2.1840000000       -7.3470000000  PROB      7               0.0000000000
       323        20  VAL       HG12           -5.9890000000        3.5250000000       -6.3930000000  PROB      7               0.0000000000
       324        20  VAL       HG13           -4.2370000000        3.5690000000       -6.8340000000  PROB      7               0.0000000000
       325        20  VAL       CG2            -5.9810000000        1.2790000000       -4.8220000000  PROB      7               0.0000000000
       326        20  VAL       HG21           -6.1370000000        0.4760000000       -5.5690000000  PROB      7               0.0000000000
       327        20  VAL       HG22           -5.8440000000        0.8250000000       -3.8140000000  PROB      7               0.0000000000
       328        20  VAL       HG23           -6.9050000000        1.8940000000       -4.7950000000  PROB      7               0.0000000000
       329        20  VAL       C              -2.2440000000        2.0080000000       -5.0700000000  PROB      7               0.0000000000
       330        20  VAL       O              -1.9240000000        2.3050000000       -3.9090000000  PROB      7               0.0000000000
       331        21  VAL       N              -1.3860000000        2.3680000000       -6.0410000000  PROB      8               0.0000000000
       332        21  VAL       HN             -1.4335374585        1.9664958038       -6.9519040183  PROB      8               0.0000000000
       333        21  VAL       CA             -0.3390000000        3.3420000000       -5.8740000000  PROB      8               0.0000000000
       334        21  VAL       HA              0.1160000000        3.2420000000       -4.9000000000  PROB      8               0.0000000000
       335        21  VAL       CB             -0.8410000000        4.7780000000       -6.1100000000  PROB      8               0.0000000000
       336        21  VAL       HB             -1.2620000000        4.9360000000       -7.1280000000  PROB      8               0.0000000000
       337        21  VAL       CG1            -1.9680000000        5.1380000000       -5.1210000000  PROB      8               0.0000000000
       338        21  VAL       HG11           -1.6590000000        4.9120000000       -4.0790000000  PROB      8               0.0000000000
       339        21  VAL       HG12           -2.2110000000        6.2140000000       -5.2010000000  PROB      8               0.0000000000
       340        21  VAL       HG13           -2.8940000000        4.5700000000       -5.3420000000  PROB      8               0.0000000000
       341        21  VAL       CG2             0.2950000000        5.7230000000       -5.7430000000  PROB      8               0.0000000000
       342        21  VAL       HG21            0.7080000000        5.4630000000       -4.7460000000  PROB      8               0.0000000000
       343        21  VAL       HG22            1.1140000000        5.6590000000       -6.4970000000  PROB      8               0.0000000000
       344        21  VAL       HG23           -0.0500000000        6.7750000000       -5.7240000000  PROB      8               0.0000000000
       345        21  VAL       C               0.8240000000        3.0420000000       -6.8100000000  PROB      8               0.0000000000
       346        21  VAL       O               0.6690000000        3.0040000000       -8.0230000000  PROB      8               0.0000000000
       347        22  TRP       N               2.0180000000        2.8240000000       -6.2170000000  PROB      9               0.0000000000
       348        22  TRP       HN              2.1236298406        2.8902682053       -5.2276271169  PROB      9               0.0000000000
       349        22  TRP       CA              3.2280000000        2.4820000000       -6.9420000000  PROB      9               0.0000000000
       350        22  TRP       HA              3.0380000000        2.5790000000       -7.9990000000  PROB      9               0.0000000000
       351        22  TRP       CB              4.4220000000        3.4340000000       -6.6050000000  PROB      9               0.0000000000
       352        22  TRP       HB1             4.4356689254        3.5866869717       -5.5029105576  PROB      9               0.0000000000
       353        22  TRP       HB2             4.4890000000        3.5340000000       -5.5000000000  PROB      9               0.0000000000
       354        22  TRP       CG              4.3210000000        4.8120000000       -7.2560000000  PROB      9               0.0000000000
       355        22  TRP       CD1             4.6220000000        5.1620000000       -8.5430000000  PROB      9               0.0000000000
       356        22  TRP       HD1             5.0340000000        4.4980000000       -9.2900000000  PROB      9               0.0000000000
       357        22  TRP       NE1             4.2060000000        6.4510000000       -8.8070000000  PROB      9               0.0000000000
       358        22  TRP       HE1             4.4160000000        6.9270000000       -9.6330000000  PROB      9               0.0000000000
       359        22  TRP       CE2             3.6760000000        6.9840000000       -7.6580000000  PROB      9               0.0000000000
       360        22  TRP       CD2             3.7890000000        6.0010000000       -6.6410000000  PROB      9               0.0000000000
       361        22  TRP       CE3             3.3660000000        6.2630000000       -5.3390000000  PROB      9               0.0000000000
       362        22  TRP       HE3             3.4100000000        5.5250000000       -4.5580000000  PROB      9               0.0000000000
       363        22  TRP       CZ3             2.7880000000        7.5140000000       -5.0830000000  PROB      9               0.0000000000
       364        22  TRP       HZ3             2.3260000000        7.7310000000       -4.1290000000  PROB      9               0.0000000000
       365        22  TRP       CZ2             3.0990000000        8.2210000000       -7.3990000000  PROB      9               0.0000000000
       366        22  TRP       HZ2             2.9630000000        8.9540000000       -8.1800000000  PROB      9               0.0000000000
       367        22  TRP       CH2             2.6430000000        8.4730000000       -6.1010000000  PROB      9               0.0000000000
       368        22  TRP       HH2             2.1600000000        9.3990000000       -5.8020000000  PROB      9               0.0000000000
       369        22  TRP       C               3.6230000000        1.0230000000       -6.6990000000  PROB      9               0.0000000000
       370        22  TRP       O               3.7090000000        0.5110000000       -5.5760000000  PROB      9               0.0000000000
       371        23  LEU       N               3.8800000000        0.2490000000       -7.7630000000  PROB      10              0.0000000000
       372        23  LEU       HN              3.9033664012        0.5265246195       -8.7212476229  PROB      10              0.0000000000
       373        23  LEU       CA              4.1620000000       -1.1610000000       -7.5420000000  PROB      10              0.0000000000
       374        23  LEU       HA              3.8620000000       -1.4160000000       -6.5340000000  PROB      10              0.0000000000
       375        23  LEU       CB              5.6670000000       -1.5600000000       -7.3660000000  PROB      10              0.0000000000
       376        23  LEU       HB1             6.1080080452       -0.8594391811       -6.6197850892  PROB      10              0.0000000000
       377        23  LEU       HB2             6.1630000000       -0.9080000000       -6.6110000000  PROB      10              0.0000000000
       378        23  LEU       CG              6.6820000000       -1.5670000000       -8.5530000000  PROB      10              0.0000000000
       379        23  LEU       HG              7.6350000000       -1.9150000000       -8.0700000000  PROB      10              0.0000000000
       380        23  LEU       CD1             6.3110000000       -2.7120000000       -9.5180000000  PROB      10              0.0000000000
       381        23  LEU       HD11            5.3220000000       -2.5390000000       -9.9840000000  PROB      10              0.0000000000
       382        23  LEU       HD12            7.0510000000       -2.7710000000      -10.3430000000  PROB      10              0.0000000000
       383        23  LEU       HD13            6.2860000000       -3.6960000000       -9.0150000000  PROB      10              0.0000000000
       384        23  LEU       CD2             7.0980000000       -0.2700000000       -9.2610000000  PROB      10              0.0000000000
       385        23  LEU       HD21            6.4300000000        0.5740000000       -8.9980000000  PROB      10              0.0000000000
       386        23  LEU       HD22            8.1250000000        0.0010000000       -8.9220000000  PROB      10              0.0000000000
       387        23  LEU       HD23            7.1510000000       -0.4010000000      -10.3520000000  PROB      10              0.0000000000
       388        23  LEU       C               3.2770000000       -2.0110000000       -8.4210000000  PROB      10              0.0000000000
       389        23  LEU       O               3.1520000000       -1.8060000000       -9.6250000000  PROB      10              0.0000000000
       390        24  TRP       N               2.5720000000       -2.9630000000       -7.7950000000  PROB      11              0.0000000000
       391        24  TRP       HN              2.6493041562       -3.1629177742       -6.8211084295  PROB      11              0.0000000000
       392        24  TRP       CA              1.6320000000       -3.7800000000       -8.5100000000  PROB      11              0.0000000000
       393        24  TRP       HA              1.6940000000       -3.5820000000       -9.5730000000  PROB      11              0.0000000000
       394        24  TRP       CB              1.9740000000       -5.2960000000       -8.3720000000  PROB      11              0.0000000000
       395        24  TRP       HB1             2.1186106947       -5.5157892337       -7.2908516616  PROB      11              0.0000000000
       396        24  TRP       HB2             2.0440000000       -5.5500000000       -7.2940000000  PROB      11              0.0000000000
       397        24  TRP       CG              3.2580000000       -5.7530000000       -9.0930000000  PROB      11              0.0000000000
       398        24  TRP       CD1             3.4130000000       -6.2580000000      -10.3600000000  PROB      11              0.0000000000
       399        24  TRP       HD1             2.7010000000       -6.2490000000      -11.1740000000  PROB      11              0.0000000000
       400        24  TRP       NE1             4.7280000000       -6.6410000000      -10.5690000000  PROB      11              0.0000000000
       401        24  TRP       HE1             5.1570000000       -6.9380000000      -11.3930000000  PROB      11              0.0000000000
       402        24  TRP       CE2             5.4590000000       -6.3470000000       -9.4540000000  PROB      11              0.0000000000
       403        24  TRP       CD2             4.5810000000       -5.7770000000       -8.5110000000  PROB      11              0.0000000000
       404        24  TRP       CE3             5.0610000000       -5.3740000000       -7.2730000000  PROB      11              0.0000000000
       405        24  TRP       HE3             4.3940000000       -4.9320000000       -6.5460000000  PROB      11              0.0000000000
       406        24  TRP       CZ3             6.4300000000       -5.5610000000       -6.9890000000  PROB      11              0.0000000000
       407        24  TRP       HZ3             6.6980000000       -5.4490000000       -5.9530000000  PROB      11              0.0000000000
       408        24  TRP       CZ2             6.8150000000       -6.5240000000       -9.1840000000  PROB      11              0.0000000000
       409        24  TRP       HZ2             7.4780000000       -6.9790000000       -9.9010000000  PROB      11              0.0000000000
       410        24  TRP       CH2             7.2930000000       -6.1460000000       -7.9170000000  PROB      11              0.0000000000
       411        24  TRP       HH2             8.3260000000       -6.3260000000       -7.6500000000  PROB      11              0.0000000000
       412        24  TRP       C               0.1770000000       -3.4470000000       -8.1460000000  PROB      11              0.0000000000
       413        24  TRP       O              -0.2510000000       -3.0440000000       -7.0580000000  PROB      11              0.0000000000
       414        25  LEU       N              -0.6780000000       -3.6950000000       -9.1320000000  PROB      12              0.0000000000
       415        25  LEU       HN             -0.3381551419       -3.8811584770      -10.0515949673  PROB      12              0.0000000000
       416        25  LEU       CA             -2.0990000000       -3.7260000000       -9.0150000000  PROB      12              0.0000000000
       417        25  LEU       HA             -2.4060000000       -3.6270000000       -7.9760000000  PROB      12              0.0000000000
       418        25  LEU       CB             -2.3540000000       -5.1300000000       -9.5950000000  PROB      12              0.0000000000
       419        25  LEU       HB1            -1.8975742447       -5.1539465076      -10.6114705331  PROB      12              0.0000000000
       420        25  LEU       HB2            -1.8920000000       -5.0910000000      -10.6150000000  PROB      12              0.0000000000
       421        25  LEU       CG             -3.7420000000       -5.7390000000       -9.8020000000  PROB      12              0.0000000000
       422        25  LEU       HG             -3.5540000000       -6.8070000000      -10.0640000000  PROB      12              0.0000000000
       423        25  LEU       CD1            -4.7890000000       -5.9660000000       -8.6930000000  PROB      12              0.0000000000
       424        25  LEU       HD11           -5.0190000000       -5.0040000000       -8.1980000000  PROB      12              0.0000000000
       425        25  LEU       HD12           -5.7200000000       -6.4280000000       -9.0780000000  PROB      12              0.0000000000
       426        25  LEU       HD13           -4.3660000000       -6.6330000000       -7.9130000000  PROB      12              0.0000000000
       427        25  LEU       CD2            -4.6350000000       -4.8890000000      -10.7100000000  PROB      12              0.0000000000
       428        25  LEU       HD21           -4.1180000000       -4.6850000000      -11.6710000000  PROB      12              0.0000000000
       429        25  LEU       HD22           -5.5840000000       -5.4200000000      -10.9240000000  PROB      12              0.0000000000
       430        25  LEU       HD23           -4.8720000000       -3.9110000000      -10.2320000000  PROB      12              0.0000000000
       431        25  LEU       C              -2.6170000000       -2.5630000000       -9.8620000000  PROB      12              0.0000000000
       432        25  LEU       O              -2.3660000000       -2.4840000000      -11.0640000000  PROB      12              0.0000000000
       433        26  TRP       N              -3.3120000000       -1.6080000000       -9.2250000000  PROB      13              0.0000000000
       434        26  TRP       HN             -3.5794060049       -1.6559319046       -8.2655186812  PROB      13              0.0000000000
       435        26  TRP       CA             -3.7290000000       -0.4110000000       -9.9160000000  PROB      13              0.0000000000
       436        26  TRP       HA             -3.6700000000       -0.5660000000      -10.9850000000  PROB      13              0.0000000000
       437        26  TRP       CB             -5.2180000000       -0.0470000000       -9.6100000000  PROB      13              0.0000000000
       438        26  TRP       HB1            -5.3299361294        0.0305763851       -8.5056660390  PROB      13              0.0000000000
       439        26  TRP       HB2            -5.3430000000        0.0880000000       -8.5120000000  PROB      13              0.0000000000
       440        26  TRP       CG             -6.2250000000       -1.0850000000      -10.0990000000  PROB      13              0.0000000000
       441        26  TRP       CD1            -6.8260000000       -1.2080000000      -11.3190000000  PROB      13              0.0000000000
       442        26  TRP       HD1            -6.6590000000       -0.5680000000      -12.1750000000  PROB      13              0.0000000000
       443        26  TRP       NE1            -7.5920000000       -2.3570000000      -11.3730000000  PROB      13              0.0000000000
       444        26  TRP       HE1            -8.1450000000       -2.5580000000      -12.1530000000  PROB      13              0.0000000000
       445        26  TRP       CE2            -7.5550000000       -2.9590000000      -10.1390000000  PROB      13              0.0000000000
       446        26  TRP       CD2            -6.7210000000       -2.1780000000       -9.3060000000  PROB      13              0.0000000000
       447        26  TRP       CE3            -6.4900000000       -2.5320000000       -7.9740000000  PROB      13              0.0000000000
       448        26  TRP       HE3            -5.8000000000       -1.9250000000       -7.4210000000  PROB      13              0.0000000000
       449        26  TRP       CZ3            -7.1170000000       -3.6820000000       -7.4810000000  PROB      13              0.0000000000
       450        26  TRP       HZ3            -6.9820000000       -3.9550000000       -6.4480000000  PROB      13              0.0000000000
       451        26  TRP       CZ2            -8.1530000000       -4.1180000000       -9.6580000000  PROB      13              0.0000000000
       452        26  TRP       HZ2            -8.8160000000       -4.7490000000      -10.2240000000  PROB      13              0.0000000000
       453        26  TRP       CH2            -7.9160000000       -4.4740000000       -8.3150000000  PROB      13              0.0000000000
       454        26  TRP       HH2            -8.3580000000       -5.3970000000       -7.9610000000  PROB      13              0.0000000000
       455        26  TRP       C              -2.8060000000        0.7670000000       -9.5940000000  PROB      13              0.0000000000
       456        26  TRP       O              -2.2210000000        0.9170000000       -8.5180000000  PROB      13              0.0000000000
       457        27  LEU       N              -2.7390000000        1.7150000000      -10.5330000000  PROB      14              0.0000000000
       458        27  LEU       HN             -3.1359070018        1.4694954075      -11.4150412332  PROB      14              0.0000000000
       459        27  LEU       CA             -2.1870000000        3.0370000000      -10.4830000000  PROB      14              0.0000000000
       460        27  LEU       HA             -1.9160000000        3.2650000000       -9.4580000000  PROB      14              0.0000000000
       461        27  LEU       CB             -3.4630000000        3.8050000000      -10.9490000000  PROB      14              0.0000000000
       462        27  LEU       HB1            -3.7843150049        3.3530619970      -11.9157569286  PROB      14              0.0000000000
       463        27  LEU       HB2            -3.7220000000        3.4050000000      -11.9620000000  PROB      14              0.0000000000
       464        27  LEU       CG             -3.5430000000        5.3210000000      -11.2220000000  PROB      14              0.0000000000
       465        27  LEU       HG             -4.6290000000        5.4700000000      -11.4460000000  PROB      14              0.0000000000
       466        27  LEU       CD1            -3.5610000000        6.3850000000      -10.0880000000  PROB      14              0.0000000000
       467        27  LEU       HD11           -2.8660000000        6.0890000000       -9.2780000000  PROB      14              0.0000000000
       468        27  LEU       HD12           -3.2830000000        7.3870000000      -10.4580000000  PROB      14              0.0000000000
       469        27  LEU       HD13           -4.5790000000        6.4510000000       -9.6420000000  PROB      14              0.0000000000
       470        27  LEU       CD2            -2.4370000000        5.8440000000      -12.1290000000  PROB      14              0.0000000000
       471        27  LEU       HD21           -2.4300000000        5.2790000000      -13.0860000000  PROB      14              0.0000000000
       472        27  LEU       HD22           -2.5970000000        6.9130000000      -12.3700000000  PROB      14              0.0000000000
       473        27  LEU       HD23           -1.4410000000        5.7400000000      -11.6480000000  PROB      14              0.0000000000
       474        27  LEU       C              -0.9320000000        3.0710000000      -11.3870000000  PROB      14              0.0000000000
       475        27  LEU       O              -0.9930000000        2.8490000000      -12.5980000000  PROB      14              0.0000000000
       476        28  TRP       N               0.2530000000        3.3040000000      -10.7750000000  PROB      15              0.0000000000
       477        28  TRP       HN              0.3163033479        3.4667686059       -9.7932123921  PROB      15              0.0000000000
       478        28  TRP       CA              1.5280000000        3.3370000000      -11.4910000000  PROB      15              0.0000000000
       479        28  TRP       HA              1.3310000000        3.3510000000      -12.5520000000  PROB      15              0.0000000000
       480        28  TRP       CB              2.3530000000        4.6140000000      -11.1750000000  PROB      15              0.0000000000
       481        28  TRP       HB1             2.5092753714        4.6551266353      -10.0740967807  PROB      15              0.0000000000
       482        28  TRP       HB2             2.5450000000        4.6400000000      -10.0830000000  PROB      15              0.0000000000
       483        28  TRP       CG              1.6770000000        5.9070000000      -11.5830000000  PROB      15              0.0000000000
       484        28  TRP       CD1             1.7160000000        6.5570000000      -12.7890000000  PROB      15              0.0000000000
       485        28  TRP       HD1             2.2330000000        6.2230000000      -13.6770000000  PROB      15              0.0000000000
       486        28  TRP       NE1             0.8820000000        7.6560000000      -12.7680000000  PROB      15              0.0000000000
       487        28  TRP       HE1             0.8630000000        8.3220000000      -13.4820000000  PROB      15              0.0000000000
       488        28  TRP       CE2             0.3280000000        7.7580000000      -11.5090000000  PROB      15              0.0000000000
       489        28  TRP       CD2             0.8100000000        6.6790000000      -10.7360000000  PROB      15              0.0000000000
       490        28  TRP       CE3             0.4190000000        6.5040000000       -9.4160000000  PROB      15              0.0000000000
       491        28  TRP       HE3             0.7790000000        5.6800000000       -8.8190000000  PROB      15              0.0000000000
       492        28  TRP       CZ3            -0.4830000000        7.4310000000       -8.8750000000  PROB      15              0.0000000000
       493        28  TRP       HZ3            -0.8580000000        7.3060000000       -7.8690000000  PROB      15              0.0000000000
       494        28  TRP       CZ2            -0.5600000000        8.6830000000      -10.9720000000  PROB      15              0.0000000000
       495        28  TRP       HZ2            -0.9580000000        9.4770000000      -11.5790000000  PROB      15              0.0000000000
       496        28  TRP       CH2            -0.9700000000        8.5020000000       -9.6410000000  PROB      15              0.0000000000
       497        28  TRP       HH2            -1.6720000000        9.1750000000       -9.1670000000  PROB      15              0.0000000000
       498        28  TRP       C               2.4180000000        2.1190000000      -11.2310000000  PROB      15              0.0000000000
       499        28  TRP       OT1             1.9880182027        1.2279242255      -10.4508079607  PROB      15              0.0000000000
       500        28  TRP       OT2             3.5358305197        2.0687277477      -11.8102474687  PROB      15              0.0000000000
